Title
81319
    1CHL1    C3    1   2.157   5.702  10.239  0.9019  0.3147  0.0292
    1CHL1    H3    2   2.267   5.689  10.228  1.2378  1.5278  1.7958
    1CHL1    O3    3   2.130   5.728  10.376  0.4298  0.1925 -0.4422
    1CHL1   H3'    4   2.036   5.746  10.382  0.7025  1.0174  1.8046
    1CHL1    C4    5   2.119   5.819  10.146  0.1550  0.2785 -0.4476
    1CHL1   H4A    6   2.014   5.844  10.171  0.0517 -1.6084  1.2021
    1CHL1   H4B    7   2.172   5.911  10.178 -0.8827  0.4967  0.6917
    1CHL1    C5    8   2.137   5.788   9.999  0.7295 -0.3616  0.2354
    1CHL1    C6    9   2.217   5.866   9.921 -0.6579  0.2937  0.1879
    1CHL1    H6   10   2.266   5.951   9.971 -2.3823  2.4084 -1.6116
    1CHL1    C7   11   2.228   5.854   9.770 -0.3372  0.5081 -0.8065
    1CHL1   H7A   12   2.215   5.953   9.721 -1.5805  1.3244  1.1278
    1CHL1   H7B   13   2.329   5.821   9.736 -0.5925  0.0338 -1.0877
    1CHL1    C8   14   2.124   5.755   9.704  0.0348 -0.6214 -0.5095
    1CHL1    H8   15   2.029   5.812   9.715  2.2900  3.0568  0.8597
    1CHL1   C14   16   2.160   5.719   9.561 -0.1425 -0.2390  0.2128
    1CHL1   H14   17   2.261   5.673   9.567  1.8391  3.6946 -1.3236
    1CHL1   C15   18   2.164   5.826   9.446 -0.4116 -0.1951  0.0446
    1CHL1  H15A   19   2.101   5.912   9.478  0.7294  1.0418 -0.9813
    1CHL1  H15B   20   2.272   5.850   9.449  0.3290 -3.1827 -1.3059
    1CHL1   C16   21   2.129   5.751   9.321 -0.2182  0.4037 -0.2690
    1CHL1  H16A   22   2.031   5.792   9.288 -0.3817  0.2588  0.0338
    1CHL1  H16B   23   2.210   5.759   9.246  1.0582  0.6080  1.1055
    1CHL1   C17   24   2.129   5.601   9.366  0.3219  0.7400  0.8539
    1CHL1   H17   25   2.238   5.583   9.379  0.4531  1.3670  0.6100
    1CHL1   C13   26   2.074   5.608   9.504  0.6140  0.0446 -0.3483
    1CHL1   C18   27   1.921   5.648   9.498  0.4301  0.0714 -0.1164
    1CHL1  H18A   28   1.854   5.565   9.465  0.1326 -0.6174  2.0600
    1CHL1  H18B   29   1.885   5.672   9.601  0.0468 -1.4643  0.1330
    1CHL1  H18C   30   1.905   5.741   9.440 -1.7915 -0.7221 -0.8357
    1CHL1   C12   31   2.084   5.481   9.588 -0.2455 -0.0036  0.3148
    1CHL1  H12A   32   2.007   5.413   9.545 -0.9935  1.3607 -0.5036
    1CHL1  H12B   33   2.188   5.443   9.583  0.4336  1.7561  0.9025
    1CHL1   C11   34   2.045   5.504   9.732  0.1443  0.1845  0.5078
    1CHL1  H11A   35   1.935   5.511   9.721  0.2830  1.3877 -0.1640
    1CHL1  H11B   36   2.063   5.409   9.787 -3.7780 -0.4155  0.8886
    1CHL1    C9   37   2.112   5.631   9.800  0.1269 -0.3319  0.6986
    1CHL1    H9   38   2.218   5.610   9.822  0.2272  0.6691  1.2073
    1CHL1   C10   39   2.059   5.665   9.944  0.8247 -0.3800  0.0319
    1CHL1   C19   40   1.912   5.714   9.939 -0.1152  0.2133  0.5268
    1CHL1  H19A   41   1.850   5.624   9.923  1.1761 -0.5536 -0.2519
    1CHL1  H19B   42   1.882   5.753  10.039  1.5185 -1.1489  1.5896
    1CHL1  H19C   43   1.894   5.789   9.859 -0.0860  1.1641  1.4026
    1CHL1    C1   44   2.078   5.546  10.043 -0.2856  0.3425 -0.5464
    1CHL1   H1A   45   2.002   5.465  10.033  0.9270 -0.8753 -0.1339
    1CHL1   H1B   46   2.179   5.502  10.030  0.3163  1.1776  1.1188
    1CHL1    C2   47   2.079   5.573  10.197  0.2470  0.5506  0.8621
    1CHL1   H2A   48   2.128   5.498  10.262 -1.0678 -0.1788  1.0306
    1CHL1   H2B   49   1.973   5.586  10.229  0.1105  2.8884 -0.3869
    1CHL1   C20   50   2.065   5.503   9.265  0.3610 -0.0945  0.6517
    1CHL1   H20   51   1.958   5.491   9.294  0.1991 -0.5570 -0.1161
    1CHL1   C21   52   2.141   5.360   9.276  0.3074 -0.4345 -0.0875
    1CHL1  H21A   53   2.251   5.373   9.274  0.2702 -0.1867 -0.5477
    1CHL1  H21B   54   2.111   5.287   9.198  0.7422 -2.0591  1.2345
    1CHL1  H21C   55   2.110   5.309   9.369 -2.5382  0.4069 -0.5120
    1CHL1   C22   56   2.054   5.553   9.120  0.2416  0.6214 -0.7984
    1CHL1  H22A   57   1.994   5.481   9.062  2.8076 -1.8462 -0.5118
    1CHL1  H22B   58   2.000   5.650   9.119  0.6544  0.8518 -1.1995
    1CHL1   C23   59   2.187   5.563   9.041 -0.5366  0.3820 -0.3133
    1CHL1  H23A   60   2.262   5.627   9.092 -2.2293  2.5160 -0.4234
    1CHL1  H23B   61   2.233   5.461   9.042 -0.5264  0.3880 -0.1327
    1CHL1   C24   62   2.173   5.623   8.894  0.4474  0.3291 -0.4799
    1CHL1  H24A   63   2.121   5.541   8.839 -3.0188  0.7956  1.9504
    1CHL1  H24B   64   2.109   5.712   8.910 -0.0193 -0.2737  1.2025
    1CHL1   C25   65   2.308   5.653   8.824  0.2867 -0.9554 -0.1456
    1CHL1   H25   66   2.349   5.743   8.875  0.2706 -1.7257  1.2272
    1CHL1   C26   67   2.415   5.546   8.836  0.2240 -0.3014 -0.0398
    1CHL1  H26A   68   2.378   5.458   8.780  1.6446 -1.5634  0.9597
    1CHL1  H26B   69   2.501   5.599   8.790 -0.7031  1.1073 -0.1613
    1CHL1  H26C   70   2.446   5.517   8.939  0.0681  2.9076  0.9770
    1CHL1   C27   71   2.290   5.690   8.676 -0.4813  0.4623 -0.4707
    1CHL1  H27A   72   2.212   5.769   8.669 -1.2698 -0.3665 -1.1705
    1CHL1  H27B   73   2.385   5.724   8.630 -0.2342  1.0067  0.4198
    1CHL1  H27C   74   2.245   5.600   8.628 -3.3075 -1.0447  4.6375
    2CHL1    C3   75   2.844   3.882   9.986 -0.3734  0.6281  1.2391
    2CHL1    H3   76   2.875   3.776   9.973 -1.3076  0.2507  2.0329
    2CHL1    O3   77   2.907   3.918  10.102 -0.2027 -0.1275  0.1071
    2CHL1   H3'   78   2.874   3.852  10.164 -0.2843 -2.1399 -2.0182
    2CHL1    C4   79   2.892   3.983   9.880  0.1800  0.1278 -0.1020
    2CHL1   H4A   80   2.865   4.089   9.902  0.8105  0.0062  1.3155
    2CHL1   H4B   81   3.003   3.986   9.881  0.1880 -0.2393  0.9187
    2CHL1    C5   82   2.822   3.960   9.751  0.5771 -0.8222 -0.2363
    2CHL1    C6   83   2.891   3.930   9.643 -0.3744 -0.7053 -0.6968
    2CHL1    H6   84   3.000   3.921   9.654 -0.3490  1.0209  0.5619
    2CHL1    C7   85   2.825   3.901   9.518 -0.3868  0.1086 -0.0704
    2CHL1   H7A   86   2.879   3.955   9.437  1.4069  1.5136  2.0165
    2CHL1   H7B   87   2.839   3.793   9.495 -0.6197  0.4821 -2.0466
    2CHL1    C8   88   2.671   3.936   9.501 -0.2602 -0.3472  0.3743
    2CHL1    H8   89   2.669   4.045   9.478 -0.9785 -0.2210  0.9960
    2CHL1   C14   90   2.602   3.850   9.392 -0.1065  0.2752  0.6200
    2CHL1   H14   91   2.612   3.747   9.431  2.8492  0.9452  1.7605
    2CHL1   C15   92   2.659   3.831   9.250  0.4122 -0.3746 -0.0978
    2CHL1  H15A   93   2.684   3.930   9.206  3.5874 -0.1276  2.0751
    2CHL1  H15B   94   2.750   3.767   9.245  1.0990  0.6167 -0.3662
    2CHL1   C16   95   2.543   3.774   9.166  0.3135 -0.6403  0.5616
    2CHL1  H16A   96   2.535   3.827   9.069  0.2279 -1.6153  0.0334
    2CHL1  H16B   97   2.549   3.667   9.137 -1.2558 -0.0862 -1.9117
    2CHL1   C17   98   2.420   3.782   9.261  0.4490  0.4438 -0.1411
    2CHL1   H17   99   2.425   3.683   9.312  0.1477  0.5062  0.0121
    2CHL1   C13  100   2.453   3.878   9.373  0.3033  0.2820  0.3904
    2CHL1   C18  101   2.440   4.024   9.323  0.1468 -0.0285  0.3878
    2CHL1  H18A  102   2.500   4.095   9.384 -0.1421  0.2312  0.3727
    2CHL1  H18B  103   2.465   4.038   9.215  0.8385 -3.8028  0.0047
    2CHL1  H18C  104   2.332   4.050   9.332  0.7120  2.5766  0.2204
    2CHL1   C12  105   2.380   3.854   9.508 -0.1821  0.5767  0.6651
    2CHL1  H12A  106   2.277   3.891   9.491  0.4227  1.2165 -1.7396
    2CHL1  H12B  107   2.392   3.746   9.532  3.4726  0.6199 -0.6203
    2CHL1   C11  108   2.447   3.943   9.609 -0.4654  0.9197  0.2058
    2CHL1  H11A  109   2.443   4.048   9.573  1.0564  1.1464  0.6366
    2CHL1  H11B  110   2.378   3.936   9.696 -2.4758 -0.7792 -1.4648
    2CHL1    C9  111   2.593   3.908   9.630  0.7551 -0.2923  0.1017
    2CHL1    H9  112   2.599   3.799   9.648 -0.6261 -0.5139 -0.7259
    2CHL1   C10  113   2.663   3.970   9.758  0.1687 -0.1400 -0.2606
    2CHL1   C19  114   2.619   4.120   9.778 -0.1547  0.2925 -0.3785
    2CHL1  H19A  115   2.623   4.175   9.682  0.9159  0.0964 -0.4559
    2CHL1  H19B  116   2.512   4.131   9.806  0.0006 -1.7971  1.1412
    2CHL1  H19C  117   2.694   4.160   9.850 -0.2588 -0.4647  0.1608
    2CHL1    C1  118   2.611   3.886   9.883  0.4211  0.1414  0.6021
    2CHL1   H1A  119   2.509   3.919   9.911  0.6239  0.2221  1.2637
    2CHL1   H1B  120   2.607   3.776   9.867  2.0168  0.1579 -0.0080
    2CHL1    C2  121   2.692   3.895  10.012 -0.2740 -0.2241 -0.5967
    2CHL1   H2A  122   2.662   3.841  10.104  0.5554 -1.3660 -0.9888
    2CHL1   H2B  123   2.681   4.001  10.044 -2.3346 -0.0263 -1.8999
    2CHL1   C20  124   2.276   3.780   9.198  0.0919  0.1358  0.1856
    2CHL1   H20  125   2.202   3.791   9.280  1.0699  0.7635  0.9887
    2CHL1   C21  126   2.267   3.636   9.133  0.2582  0.1141 -0.1570
    2CHL1  H21A  127   2.336   3.624   9.047  0.5293  2.4337 -0.2843
    2CHL1  H21B  128   2.162   3.619   9.103 -0.0869  0.7126  0.6830
    2CHL1  H21C  129   2.291   3.554   9.204 -2.0926 -0.9139 -0.4901
    2CHL1   C22  130   2.246   3.888   9.088  0.8309  0.7943  0.3524
    2CHL1  H22A  131   2.322   3.968   9.090 -1.6477  3.1777  1.3838
    2CHL1  H22B  132   2.256   3.831   8.993 -2.2103  1.5749 -0.5047
    2CHL1   C23  133   2.113   3.953   9.070  0.1917 -0.0059 -1.1732
    2CHL1  H23A  134   2.030   3.884   9.045 -0.7614  1.0031 -0.8788
    2CHL1  H23B  135   2.069   4.003   9.160  1.7812 -0.4891 -0.0992
    2CHL1   C24  136   2.111   4.064   8.967  0.1504 -0.3700 -0.3793
    2CHL1  H24A  137   2.177   4.150   8.991  1.0440 -1.8471  2.6002
    2CHL1  H24B  138   2.156   4.023   8.874 -1.9893 -1.9825 -0.7458
    2CHL1   C25  139   1.967   4.108   8.922  0.4429 -0.4026 -0.8586
    2CHL1   H25  140   1.904   4.099   9.013  0.0989  0.5278 -0.9991
    2CHL1   C26  141   1.981   4.255   8.869 -0.6407  0.8038  0.5558
    2CHL1  H26A  142   2.031   4.312   8.950 -0.9544  0.5342  0.9396
    2CHL1  H26B  143   2.050   4.265   8.783  0.4908 -0.9502  1.2235
    2CHL1  H26C  144   1.884   4.293   8.831  0.6186  1.9021 -1.6690
    2CHL1   C27  145   1.904   4.023   8.816  0.5625  0.1362  0.3366
    2CHL1  H27A  146   1.812   4.074   8.779  0.8594  0.2609 -0.2359
    2CHL1  H27B  147   1.973   4.013   8.729  1.6038  1.2515  1.0202
    2CHL1  H27C  148   1.877   3.927   8.864 -0.1611 -0.2331 -0.7822
    3CHL1    C3  149   3.342   3.513  10.316  0.6973 -0.0869  1.3985
    3CHL1    H3  150   3.343   3.414  10.266  2.6005  0.4336  0.3388
    3CHL1    O3  151   3.359   3.486  10.452  0.6470  0.4702  0.3700
    3CHL1   H3'  152   3.304   3.410  10.473  1.7544  0.2997  2.7947
    3CHL1    C4  153   3.453   3.602  10.255  0.6339 -0.0781 -0.2113
    3CHL1   H4A  154   3.444   3.698  10.310 -0.1023 -0.5919  0.5938
    3CHL1   H4B  155   3.550   3.555  10.282  0.4165 -0.0962  0.5356
    3CHL1    C5  156   3.434   3.616  10.100 -1.1349  0.3186 -0.7595
    3CHL1    C6  157   3.530   3.564  10.022  0.1899 -0.3693  0.0904
    3CHL1    H6  158   3.605   3.500  10.071 -0.0643 -0.8585 -0.1515
    3CHL1    C7  159   3.531   3.571   9.873  0.6341 -0.1021 -0.6642
    3CHL1   H7A  160   3.624   3.623   9.840  0.7936  0.0238 -0.0357
    3CHL1   H7B  161   3.542   3.465   9.839  2.2595 -0.8913  2.1180
    3CHL1    C8  162   3.404   3.646   9.823  0.3741 -0.3934  0.6484
    3CHL1    H8  163   3.425   3.754   9.841  0.9941  0.1491 -2.9679
    3CHL1   C14  164   3.374   3.603   9.685 -0.0159  0.1604  0.4907
    3CHL1   H14  165   3.349   3.495   9.673  0.1777  0.2534 -0.8705
    3CHL1   C15  166   3.497   3.613   9.592 -0.1452 -0.1097 -0.4316
    3CHL1  H15A  167   3.546   3.711   9.606  1.9952 -1.0828 -0.8671
    3CHL1  H15B  168   3.579   3.539   9.603 -0.1811 -0.2484 -1.0883
    3CHL1   C16  169   3.444   3.608   9.445  0.7768  0.8409 -0.1009
    3CHL1  H16A  170   3.498   3.686   9.388 -1.1467  1.1573 -1.5123
    3CHL1  H16B  171   3.445   3.504   9.405  1.4314  0.7846  0.0515
    3CHL1   C17  172   3.296   3.635   9.459 -0.2650 -0.3583 -0.8079
    3CHL1   H17  173   3.245   3.537   9.465  0.1477 -0.4787  0.7628
    3CHL1   C13  174   3.270   3.690   9.608 -0.6749  0.6873  0.7209
    3CHL1   C18  175   3.299   3.844   9.614  0.3246 -0.4513  0.0230
    3CHL1  H18A  176   3.306   3.882   9.718  2.6063 -1.2067  0.1691
    3CHL1  H18B  177   3.397   3.873   9.570 -0.4376 -1.5586 -2.5286
    3CHL1  H18C  178   3.214   3.893   9.562 -2.4668 -1.5013  3.4177
    3CHL1   C12  179   3.140   3.650   9.676 -0.4073 -0.3111  0.2853
    3CHL1  H12A  180   3.047   3.698   9.642 -1.4156 -1.0878  1.8707
    3CHL1  H12B  181   3.124   3.540   9.675  0.5737 -0.4713  1.2214
    3CHL1   C11  182   3.159   3.682   9.828  0.1329  0.3767 -0.4374
    3CHL1  H11A  183   3.156   3.792   9.842 -1.1522  0.2685  0.1799
    3CHL1  H11B  184   3.066   3.638   9.870  1.9750 -1.7463  1.6010
    3CHL1    C9  185   3.279   3.619   9.902 -0.2352 -0.1554  0.1131
    3CHL1    H9  186   3.269   3.508   9.903 -0.3179 -0.1450  0.5862
    3CHL1   C10  187   3.295   3.658  10.054  0.4296 -0.1588 -0.6959
    3CHL1   C19  188   3.283   3.817  10.082  0.5526  0.2728 -0.1324
    3CHL1  H19A  189   3.183   3.848  10.044  0.9541  1.6273 -0.1049
    3CHL1  H19B  190   3.305   3.852  10.185 -2.9254  2.6045 -0.0802
    3CHL1  H19C  191   3.351   3.883  10.025  0.8366  0.1776  0.0979
    3CHL1    C1  192   3.186   3.580  10.129 -0.0700 -0.8431  1.0794
    3CHL1   H1A  193   3.085   3.617  10.098 -0.0103  0.0610  1.9284
    3CHL1   H1B  194   3.203   3.472  10.110 -0.4758 -0.6020 -0.7320
    3CHL1    C2  195   3.206   3.579  10.282  0.4200  0.9800  0.2950
    3CHL1   H2A  196   3.134   3.502  10.318  0.1205  0.9355 -0.3945
    3CHL1   H2B  197   3.195   3.674  10.339 -0.9019  0.2594  1.2681
    3CHL1   C20  198   3.245   3.714   9.339  1.0277 -0.4445 -0.4694
    3CHL1   H20  199   3.312   3.802   9.333 -0.3091  0.5386 -1.2282
    3CHL1   C21  200   3.095   3.759   9.353 -0.3810 -0.5107  0.5104
    3CHL1  H21A  201   3.030   3.670   9.369  0.7863 -1.7520 -1.4013
    3CHL1  H21B  202   3.058   3.815   9.265 -1.1336 -2.2000 -0.2879
    3CHL1  H21C  203   3.079   3.827   9.439 -3.0041  0.8007 -0.9733
    3CHL1   C22  204   3.256   3.631   9.212 -0.0614 -0.1872 -0.2177
    3CHL1  H22A  205   3.347   3.567   9.213 -0.8676 -1.3663  2.3677
    3CHL1  H22B  206   3.170   3.563   9.193  1.9076 -2.1803 -2.3582
    3CHL1   C23  207   3.265   3.712   9.080  0.8939 -0.2374 -0.3765
    3CHL1  H23A  208   3.178   3.781   9.078  0.5681 -0.6706 -1.1354
    3CHL1  H23B  209   3.356   3.774   9.075  1.0063 -0.3056  0.6067
    3CHL1   C24  210   3.265   3.622   8.961 -0.1475 -0.1119  0.2991
    3CHL1  H24A  211   3.353   3.554   8.961  1.3506  1.7616 -1.1586
    3CHL1  H24B  212   3.175   3.557   8.970 -1.9596  2.1107 -1.2813
    3CHL1   C25  213   3.258   3.686   8.819 -0.4826  1.1656 -0.3421
    3CHL1   H25  214   3.342   3.759   8.815  1.2541 -0.5518  2.6429
    3CHL1   C26  215   3.297   3.584   8.707 -0.1896  0.1274 -0.3301
    3CHL1  H26A  216   3.294   3.633   8.607 -1.3846 -0.8157 -0.7554
    3CHL1  H26B  217   3.401   3.547   8.722  0.0114 -0.2823 -2.5622
    3CHL1  H26C  218   3.226   3.499   8.707 -0.4794  0.3583  0.6699
    3CHL1   C27  219   3.112   3.733   8.807  0.4432 -0.3867  0.2604
    3CHL1  H27A  220   3.102   3.815   8.881 -1.0742  0.9683 -1.3793
    3CHL1  H27B  221   3.078   3.767   8.707  1.8913 -0.8129 -0.3885
    3CHL1  H27C  222   3.042   3.649   8.828 -0.1552  0.1255  0.3529
    4CHL1    C3  223   3.300   5.838  10.560 -0.4339  0.2908 -0.0754
    4CHL1    H3  224   3.401   5.873  10.529 -0.4247 -1.5209 -2.2242
    4CHL1    O3  225   3.282   5.842  10.705 -0.2233 -0.2761  0.3589
    4CHL1   H3'  226   3.193   5.806  10.711  0.2025 -1.1213  1.7727
    4CHL1    C4  227   3.194   5.919  10.490  0.2766 -0.6363 -0.0872
    4CHL1   H4A  228   3.094   5.897  10.532  0.9068  0.2395  1.9766
    4CHL1   H4B  229   3.214   6.024  10.519 -0.7387 -0.7350  0.9801
    4CHL1    C5  230   3.200   5.901  10.340  0.2035  0.4277 -0.1516
    4CHL1    C6  231   3.196   6.007  10.257  0.4336  0.4584 -0.9187
    4CHL1    H6  232   3.183   6.104  10.307 -0.6879  0.3963 -1.0634
    4CHL1    C7  233   3.178   5.992  10.111  0.0535  0.1496  0.3902
    4CHL1   H7A  234   3.094   6.054  10.073 -0.2272 -0.1412  0.5359
    4CHL1   H7B  235   3.272   6.033  10.069  2.0805 -2.1719  2.5609
    4CHL1    C8  236   3.139   5.847  10.065  0.2324 -0.1044 -0.5821
    4CHL1    H8  237   3.031   5.821  10.072  0.2079 -0.4761 -2.1186
    4CHL1   C14  238   3.179   5.821   9.917  0.0751  0.6475 -0.7030
    4CHL1   H14  239   3.290   5.823   9.906  0.1484  0.5174 -0.0302
    4CHL1   C15  240   3.128   5.924   9.815  0.2735 -0.8546 -0.3942
    4CHL1  H15A  241   3.021   5.930   9.846 -0.2732 -4.7322 -1.2435
    4CHL1  H15B  242   3.181   6.021   9.825  0.0773 -0.9478  1.6812
    4CHL1   C16  243   3.141   5.854   9.686  0.0813  0.1370  0.2347
    4CHL1  H16A  244   3.043   5.854   9.633 -0.1695 -0.5382  0.7002
    4CHL1  H16B  245   3.220   5.894   9.619 -0.8850  0.8651 -0.4727
    4CHL1   C17  246   3.169   5.705   9.713  0.2087  1.0768 -0.2814
    4CHL1   H17  247   3.280   5.692   9.713  0.4034  2.5392 -1.1544
    4CHL1   C13  248   3.132   5.684   9.863 -0.0456 -0.0051  0.0221
    4CHL1   C18  249   2.972   5.675   9.874  0.5139 -0.1655 -0.3962
    4CHL1  H18A  250   2.914   5.760   9.832 -0.2961  0.3240  1.6580
    4CHL1  H18B  251   2.919   5.597   9.814  0.1156 -0.6910  0.6206
    4CHL1  H18C  252   2.953   5.654   9.982 -0.0350 -0.3313 -0.5212
    4CHL1   C12  253   3.205   5.575   9.938  1.0592 -0.1298 -0.0717
    4CHL1  H12A  254   3.163   5.476   9.911 -0.7241  1.0556 -1.8246
    4CHL1  H12B  255   3.314   5.577   9.920  1.3387  0.9562  1.6361
    4CHL1   C11  256   3.193   5.591  10.093  0.4520  0.2175  0.5004
    4CHL1  H11A  257   3.097   5.545  10.125  0.2914 -1.4411 -2.1945
    4CHL1  H11B  258   3.259   5.513  10.138  1.1200 -0.2755 -1.2839
    4CHL1    C9  259   3.214   5.734  10.150 -0.1429  0.8498 -0.4656
    4CHL1    H9  260   3.322   5.750  10.133 -0.5119  1.9776 -1.8211
    4CHL1   C10  261   3.189   5.747  10.295 -0.2696 -0.8356  0.1689
    4CHL1   C19  262   3.053   5.702  10.329 -0.1574 -0.3126 -0.4399
    4CHL1  H19A  263   3.056   5.592  10.309 -0.5541 -0.2607 -0.7932
    4CHL1  H19B  264   3.019   5.723  10.432  0.1839 -0.7148 -0.2440
    4CHL1  H19C  265   2.979   5.749  10.260  0.5439 -0.3458 -1.2265
    4CHL1    C1  266   3.303   5.670  10.372 -0.9938 -0.2748  0.0116
    4CHL1   H1A  267   3.297   5.561  10.354 -0.9490 -0.1094 -1.0423
    4CHL1   H1B  268   3.402   5.708  10.338 -0.7674 -0.5108  0.4122
    4CHL1    C2  269   3.292   5.698  10.524 -0.1992  0.3267  0.7200
    4CHL1   H2A  270   3.360   5.632  10.583  0.3511 -0.4298 -0.7305
    4CHL1   H2B  271   3.187   5.679  10.554 -0.1978 -0.2046  0.3987
    4CHL1   C20  272   3.117   5.606   9.604 -0.0631 -0.2920  0.2835
    4CHL1   H20  273   3.010   5.633   9.590  0.1839  0.4646 -0.1330
    4CHL1   C21  274   3.136   5.460   9.649 -1.1998 -0.2366 -0.2888
    4CHL1  H21A  275   3.055   5.437   9.723 -0.1060 -1.0503  0.6727
    4CHL1  H21B  276   3.235   5.448   9.698  0.0686 -0.9757 -2.9806
    4CHL1  H21C  277   3.115   5.385   9.570  0.8656 -1.2396  0.0844
    4CHL1   C22  278   3.183   5.625   9.463 -1.0675  0.0599  1.0594
    4CHL1  H22A  279   3.126   5.558   9.395  0.3215  0.9123 -0.9964
    4CHL1  H22B  280   3.161   5.728   9.428  1.4300  0.7132  1.3303
    4CHL1   C23  281   3.331   5.586   9.447 -0.0418 -0.6806 -0.1905
    4CHL1  H23A  282   3.398   5.645   9.513 -2.8082  1.9307  0.3670
    4CHL1  H23B  283   3.344   5.478   9.470 -2.2933 -1.0628 -0.6265
    4CHL1   C24  284   3.389   5.617   9.309 -0.2517 -0.2715 -0.1511
    4CHL1  H24A  285   3.316   5.575   9.237  0.9679 -2.1346 -0.3523
    4CHL1  H24B  286   3.389   5.727   9.296 -1.3495 -0.2304  0.2180
    4CHL1   C25  287   3.540   5.572   9.292 -0.3556 -0.3816  0.5462
    4CHL1   H25  288   3.551   5.464   9.318 -0.7573 -0.2142  1.4113
    4CHL1   C26  289   3.580   5.581   9.139 -0.1745 -0.2478 -0.2849
    4CHL1  H26A  290   3.519   5.504   9.087 -1.2834  0.1075  0.4819
    4CHL1  H26B  291   3.551   5.682   9.102  2.0444  1.1554  1.6279
    4CHL1  H26C  292   3.689   5.569   9.122 -0.4980  1.3338 -3.8339
    4CHL1   C27  293   3.636   5.655   9.373  0.0752 -0.1270  1.0765
    4CHL1  H27A  294   3.606   5.635   9.478 -3.7018  2.2108  0.5547
    4CHL1  H27B  295   3.744   5.639   9.354 -0.0160 -0.6659  0.9815
    4CHL1  H27C  296   3.629   5.765   9.359  0.3844 -0.5263 -3.0993
    5CHL1    C3  297   4.004   3.295  10.189 -0.0646 -0.1887  0.8000
    5CHL1    H3  298   4.101   3.345  10.168 -0.6869  0.3247 -0.9963
    5CHL1    O3  299   3.984   3.310  10.334 -0.3240 -0.0695  0.2248
    5CHL1   H3'  300   4.027   3.228  10.358  0.2854  0.1275 -0.1851
    5CHL1    C4  301   3.899   3.385  10.122 -0.2248 -0.7113  0.1724
    5CHL1   H4A  302   3.798   3.357  10.158 -0.6280  0.4855  0.0045
    5CHL1   H4B  303   3.921   3.485  10.167  1.5893 -0.8029 -0.4636
    5CHL1    C5  304   3.905   3.364   9.972  0.1135  0.0325  0.4172
    5CHL1    C6  305   3.924   3.477   9.901  0.0686  0.7815 -0.4002
    5CHL1    H6  306   3.955   3.565   9.960  2.7624 -0.2084 -0.2673
    5CHL1    C7  307   3.909   3.484   9.755  0.7648  1.1918  0.1619
    5CHL1   H7A  308   3.850   3.571   9.719 -0.6303 -0.0781 -0.6578
    5CHL1   H7B  309   4.009   3.514   9.716  0.6874  1.5806  0.2619
    5CHL1    C8  310   3.864   3.348   9.686 -0.3049  0.5268 -0.2235
    5CHL1    H8  311   3.754   3.332   9.697  0.1063 -1.9085  0.6912
    5CHL1   C14  312   3.891   3.339   9.538 -0.6491  0.8679 -0.2301
    5CHL1   H14  313   4.000   3.322   9.526 -0.3289  2.5716  0.2438
    5CHL1   C15  314   3.850   3.456   9.458  0.7756  0.1135 -0.3557
    5CHL1  H15A  315   3.754   3.494   9.500  1.5679  0.9687  0.7433
    5CHL1  H15B  316   3.920   3.543   9.457 -0.6213  1.2598 -0.8091
    5CHL1   C16  317   3.835   3.400   9.317 -0.1301  0.2603 -0.7131
    5CHL1  H16A  318   3.729   3.420   9.289 -0.7042  0.6425  1.6370
    5CHL1  H16B  319   3.900   3.446   9.239 -1.1182 -1.5120 -2.6367
    5CHL1   C17  320   3.856   3.254   9.327 -0.2036  0.0267  0.2617
    5CHL1   H17  321   3.963   3.232   9.310 -0.4687 -0.8667 -0.2935
    5CHL1   C13  322   3.830   3.212   9.474 -0.4251 -0.2882  0.8128
    5CHL1   C18  323   3.679   3.209   9.493 -0.5410 -0.1663 -0.3374
    5CHL1  H18A  324   3.634   3.129   9.432  0.7700 -3.1891  2.5071
    5CHL1  H18B  325   3.644   3.190   9.597 -1.2739 -2.0533 -0.9205
    5CHL1  H18C  326   3.634   3.307   9.466 -1.2202 -0.3349  0.1683
    5CHL1   C12  327   3.906   3.092   9.542 -0.0715  0.2860  0.3918
    5CHL1  H12A  328   3.862   2.997   9.505  1.7417 -0.1822 -0.6629
    5CHL1  H12B  329   4.012   3.110   9.511 -0.6414 -0.0186 -1.8106
    5CHL1   C11  330   3.886   3.089   9.694  0.6294  0.3412  0.6154
    5CHL1  H11A  331   3.782   3.052   9.711  0.8711 -0.4934  0.3187
    5CHL1  H11B  332   3.958   3.013   9.732  0.3791 -0.1371  0.1396
    5CHL1    C9  333   3.918   3.222   9.759  0.3046  0.0762 -0.4131
    5CHL1    H9  334   4.029   3.225   9.754  0.4416  0.0476  2.1684
    5CHL1   C10  335   3.891   3.223   9.916  0.3496  0.2009  0.3132
    5CHL1   C19  336   3.742   3.176   9.946  0.5199  0.1332  0.2963
    5CHL1  H19A  337   3.741   3.065   9.935  0.0117  0.1870 -0.2236
    5CHL1  H19B  338   3.717   3.204  10.050  1.1530  0.3103  0.4038
    5CHL1  H19C  339   3.665   3.225   9.883 -1.2565 -2.0627  0.6845
    5CHL1    C1  340   3.994   3.131   9.992 -0.1334 -0.3183 -0.1389
    5CHL1   H1A  341   3.971   3.027   9.959 -1.6973  0.7756 -2.6239
    5CHL1   H1B  342   4.094   3.161   9.953 -0.7560 -0.6371 -2.0275
    5CHL1    C2  343   3.996   3.142  10.150  0.5811 -0.0418  0.4944
    5CHL1   H2A  344   4.092   3.099  10.186  1.4190  1.8565  0.5973
    5CHL1   H2B  345   3.918   3.084  10.204  1.2279 -0.7542  0.6618
    5CHL1   C20  346   3.790   3.182   9.210 -0.6172  0.7738  0.4750
    5CHL1   H20  347   3.679   3.191   9.211 -0.6461  1.0636 -2.1041
    5CHL1   C21  348   3.803   3.028   9.212  0.5197 -0.0847 -0.3735
    5CHL1  H21A  349   3.751   2.969   9.133 -1.4693  0.4629  0.4948
    5CHL1  H21B  350   3.758   2.994   9.308 -0.2893  0.4824 -0.5514
    5CHL1  H21C  351   3.909   2.996   9.207  0.1199 -1.6898  0.8722
    5CHL1   C22  352   3.834   3.240   9.075 -0.4551 -0.4559 -0.3038
    5CHL1  H22A  353   3.814   3.348   9.054 -0.4972 -0.2092  1.0028
    5CHL1  H22B  354   3.945   3.232   9.075 -0.5223 -1.4410 -0.5815
    5CHL1   C23  355   3.772   3.171   8.950 -0.6694  0.5003  0.3946
    5CHL1  H23A  356   3.838   3.087   8.920  0.2200  1.9809 -1.8799
    5CHL1  H23B  357   3.666   3.141   8.967 -0.9647  0.7732 -0.9280
    5CHL1   C24  358   3.764   3.271   8.831 -0.1815  0.3176 -0.0797
    5CHL1  H24A  359   3.700   3.360   8.850 -0.7507  0.4136 -2.3251
    5CHL1  H24B  360   3.862   3.323   8.817 -1.3300  1.9825 -2.1648
    5CHL1   C25  361   3.722   3.209   8.693 -0.0559  0.3056  0.4687
    5CHL1   H25  362   3.641   3.135   8.711 -0.6399  0.7881 -0.1577
    5CHL1   C26  363   3.657   3.311   8.589  0.4169  0.0460 -0.6509
    5CHL1  H26A  364   3.736   3.374   8.543  2.6569 -0.4277  2.3712
    5CHL1  H26B  365   3.599   3.253   8.514 -0.6230 -0.2561  0.3750
    5CHL1  H26C  366   3.586   3.378   8.642 -1.4896 -2.0605 -0.4457
    5CHL1   C27  367   3.849   3.142   8.632  0.4712 -0.5249  0.2074
    5CHL1  H27A  368   3.819   3.076   8.548  0.7598 -0.4895  0.0741
    5CHL1  H27B  369   3.912   3.226   8.594 -0.7784  0.1597 -0.4008
    5CHL1  H27C  370   3.910   3.099   8.714 -0.1922  0.2457  1.1157
    6CHL1    C3  371   1.955   0.871  10.393 -0.1838  0.0284 -0.1994
    6CHL1    H3  372   1.889   0.960  10.407 -0.9772 -0.5222 -0.4227
    6CHL1    O3  373   2.000   0.837  10.523  0.3221  0.3371  0.0599
    6CHL1   H3'  374   1.923   0.799  10.567  0.9233 -2.6803 -1.3332
    6CHL1    C4  375   1.894   0.744  10.329 -0.1395 -0.5344 -0.7746
    6CHL1   H4A  376   1.956   0.656  10.355 -0.4864 -1.0526 -1.6497
    6CHL1   H4B  377   1.793   0.727  10.373 -0.5964  1.2102 -1.1305
    6CHL1    C5  378   1.861   0.767  10.180 -0.6956  0.0248 -0.9304
    6CHL1    C6  379   1.736   0.730  10.132  0.5684  0.2315 -0.4682
    6CHL1    H6  380   1.655   0.694  10.197  1.4392  0.9638  1.0541
    6CHL1    C7  381   1.705   0.748   9.987 -0.8682  0.0803 -0.6036
    6CHL1   H7A  382   1.638   0.665   9.957  1.6046 -1.5194 -1.8682
    6CHL1   H7B  383   1.658   0.846   9.962 -0.0270  0.1230 -2.0324
    6CHL1    C8  384   1.828   0.747   9.895 -0.4253 -0.7531 -0.1709
    6CHL1    H8  385   1.882   0.651   9.888  1.1722  0.2724 -2.4675
    6CHL1   C14  386   1.785   0.794   9.750 -0.1016 -0.2568  0.1966
    6CHL1   H14  387   1.737   0.893   9.761  0.4953  0.0200  0.3383
    6CHL1   C15  388   1.681   0.703   9.692  0.5369 -0.0680  0.2063
    6CHL1  H15A  389   1.726   0.602   9.704  0.0995 -0.2276  0.5421
    6CHL1  H15B  390   1.584   0.699   9.746  0.5224  0.2832  0.2060
    6CHL1   C16  391   1.678   0.760   9.552 -0.2584 -0.7876 -0.1164
    6CHL1  H16A  392   1.669   0.671   9.486  0.7580 -1.2435  0.3443
    6CHL1  H16B  393   1.586   0.819   9.530  0.0569 -0.1027  0.3718
    6CHL1   C17  394   1.802   0.847   9.523 -0.1954 -0.4715  0.2141
    6CHL1   H17  395   1.776   0.952   9.548 -0.4394  0.0607 -2.2221
    6CHL1   C13  396   1.893   0.809   9.642 -0.1810 -0.1870 -0.0645
    6CHL1   C18  397   1.973   0.680   9.604  0.5794 -0.8117  0.1810
    6CHL1  H18A  398   1.912   0.592   9.573 -1.6668  1.4677 -2.0840
    6CHL1  H18B  399   2.045   0.694   9.520  0.2027  1.6024  0.2202
    6CHL1  H18C  400   2.039   0.666   9.692 -0.9390  0.4213  1.5537
    6CHL1   C12  401   1.986   0.923   9.690  0.4655 -0.1951  0.1443
    6CHL1  H12A  402   2.077   0.915   9.626  0.0706 -1.1645 -0.3015
    6CHL1  H12B  403   1.944   1.025   9.686  0.9128  0.0143  0.7138
    6CHL1   C11  404   2.026   0.897   9.843  0.4509  0.3236  0.0196
    6CHL1  H11A  405   2.097   0.812   9.832  3.3093  2.4783  1.3427
    6CHL1  H11B  406   2.086   0.986   9.871  2.6347 -0.6928 -1.3630
    6CHL1    C9  407   1.915   0.858   9.954 -0.0048  0.1513  0.8904
    6CHL1    H9  408   1.850   0.947   9.968  1.3456  1.5516 -1.3194
    6CHL1   C10  409   1.970   0.824  10.094 -0.0280 -0.2465 -0.0056
    6CHL1   C19  410   2.087   0.732  10.074 -0.2635  0.6077  0.3566
    6CHL1  H19A  411   2.161   0.799  10.027 -0.0021 -0.2085 -0.4082
    6CHL1  H19B  412   2.118   0.686  10.170  0.2038  1.0826  0.4320
    6CHL1  H19C  413   2.069   0.654   9.997 -0.5207  0.8811  0.1393
    6CHL1    C1  414   2.025   0.947  10.168 -0.6598 -1.1528  0.0523
    6CHL1   H1A  415   2.100   0.993  10.100 -1.6319  4.0911  2.2500
    6CHL1   H1B  416   1.945   1.024  10.173 -0.1281 -0.3634 -2.7783
    6CHL1    C2  417   2.077   0.919  10.309 -0.0660  0.0445 -0.0166
    6CHL1   H2A  418   2.111   1.011  10.360  0.3817 -0.6617  0.9637
    6CHL1   H2B  419   2.167   0.854  10.302  1.4345  1.9920  0.6770
    6CHL1   C20  420   1.861   0.846   9.383 -0.4171 -0.3976  0.3299
    6CHL1   H20  421   1.884   0.742   9.352 -1.0029 -0.1760 -0.8658
    6CHL1   C21  422   1.991   0.925   9.374 -0.1088 -0.0330  0.0739
    6CHL1  H21A  423   2.068   0.878   9.438 -0.4904  0.7234  1.1123
    6CHL1  H21B  424   1.971   1.031   9.402 -1.2193 -0.6620  1.7417
    6CHL1  H21C  425   2.040   0.932   9.275 -0.8917  0.0245 -0.3152
    6CHL1   C22  426   1.757   0.904   9.282  0.0455 -0.4983  0.6062
    6CHL1  H22A  427   1.659   0.851   9.284 -1.4012  2.0990  2.5156
    6CHL1  H22B  428   1.736   1.009   9.311  0.8558 -0.3188  0.5501
    6CHL1   C23  429   1.815   0.899   9.143 -0.2506  0.3658  0.5472
    6CHL1  H23A  430   1.867   0.995   9.123 -0.7871  0.9909  2.1290
    6CHL1  H23B  431   1.899   0.826   9.139  1.1202  1.9656 -0.5479
    6CHL1   C24  432   1.710   0.887   9.038  0.5038 -0.8953  0.0276
    6CHL1  H24A  433   1.641   0.974   9.045 -0.2609 -1.5512  0.7272
    6CHL1  H24B  434   1.754   0.894   8.937 -0.0028 -0.5973 -0.1738
    6CHL1   C25  435   1.624   0.764   9.035 -0.3982 -0.0531  0.0694
    6CHL1   H25  436   1.568   0.748   9.130 -2.8276  0.6053 -1.2109
    6CHL1   C26  437   1.511   0.766   8.928 -0.2539  0.0775  0.0072
    6CHL1  H26A  438   1.419   0.809   8.974 -0.2111 -0.2734  0.4192
    6CHL1  H26B  439   1.542   0.833   8.844  1.3451  0.1000  0.5941
    6CHL1  H26C  440   1.504   0.667   8.879  0.3194 -0.6595  1.3912
    6CHL1   C27  441   1.711   0.642   9.014 -0.4232 -0.0212  0.0246
    6CHL1  H27A  442   1.647   0.553   8.997 -0.6096  0.3326 -1.1618
    6CHL1  H27B  443   1.781   0.663   8.931 -0.9076  0.6108 -0.2348
    6CHL1  H27C  444   1.781   0.621   9.098  0.5792 -0.2541 -0.8633
    7CHL1    C3  445   4.361   3.825  10.505 -0.2284  0.0815  1.2773
    7CHL1    H3  446   4.431   3.911  10.498 -0.6465  0.3661  0.4744
    7CHL1    O3  447   4.350   3.776  10.637  0.3238  0.3129 -0.9183
    7CHL1   H3'  448   4.278   3.712  10.634  0.7414 -0.2912  1.0235
    7CHL1    C4  449   4.225   3.871  10.447 -0.3457  0.7403  0.3288
    7CHL1   H4A  450   4.154   3.790  10.475 -1.2735  1.6883  0.7136
    7CHL1   H4B  451   4.198   3.956  10.514  0.0008  2.9951 -2.3280
    7CHL1    C5  452   4.216   3.907  10.303  0.5001 -0.1566 -0.3415
    7CHL1    C6  453   4.171   4.023  10.260  0.2680 -0.4398 -0.0707
    7CHL1    H6  454   4.135   4.099  10.331 -0.8329  0.7483 -1.8472
    7CHL1    C7  455   4.163   4.052  10.109 -0.8746  0.7522  0.3714
    7CHL1   H7A  456   4.060   4.087  10.086 -0.4449  0.8101 -1.6470
    7CHL1   H7B  457   4.238   4.128  10.077 -1.1710  1.4679  1.3479
    7CHL1    C8  458   4.178   3.926  10.021  0.7485  0.1439  0.1851
    7CHL1    H8  459   4.084   3.867  10.029  0.4035  0.3250 -2.2361
    7CHL1   C14  460   4.204   3.979   9.880  0.5227 -0.3853  0.5606
    7CHL1   H14  461   4.299   4.036   9.894 -0.1423  0.9990 -0.5584
    7CHL1   C15  462   4.105   4.081   9.818  0.0175 -0.3880 -0.1721
    7CHL1  H15A  463   3.997   4.056   9.826 -0.0437  0.4507  2.2337
    7CHL1  H15B  464   4.129   4.179   9.865  1.2207 -1.2805  1.1027
    7CHL1   C16  465   4.146   4.076   9.670 -0.8877  0.6093 -0.3713
    7CHL1  H16A  466   4.053   4.054   9.613  0.8869  0.5074 -3.3555
    7CHL1  H16B  467   4.185   4.173   9.633 -1.1038  0.8136 -0.0621
    7CHL1   C17  468   4.243   3.958   9.651  0.4048  0.3463  0.0029
    7CHL1   H17  469   4.343   4.006   9.647  0.3863  0.4111  0.2683
    7CHL1   C13  470   4.231   3.875   9.776  0.2351  0.1010 -0.2926
    7CHL1   C18  471   4.109   3.775   9.765 -0.8866 -0.7416  0.1149
    7CHL1  H18A  472   4.146   3.684   9.712  0.5291 -0.0166 -0.1669
    7CHL1  H18B  473   4.079   3.734   9.864  0.1702  0.5240  0.9732
    7CHL1  H18C  474   4.015   3.812   9.721 -0.8666  1.4578  1.8752
    7CHL1   C12  475   4.364   3.803   9.822  0.4551  0.0261  0.6344
    7CHL1  H12A  476   4.394   3.720   9.755  1.2950 -0.8933  2.1363
    7CHL1  H12B  477   4.444   3.880   9.812 -0.1519  0.3165 -2.5558
    7CHL1   C11  478   4.349   3.739   9.963  0.0127  0.2229 -0.2247
    7CHL1  H11A  479   4.268   3.665   9.949  0.7422 -0.3723 -1.4000
    7CHL1  H11B  480   4.443   3.689   9.996 -0.7852 -0.9309  0.3339
    7CHL1    C9  481   4.299   3.848  10.068 -0.3667 -0.2987  0.6054
    7CHL1    H9  482   4.381   3.922  10.075 -1.3513  1.0371 -1.4182
    7CHL1   C10  483   4.273   3.795  10.210 -0.6175  0.2595  0.4697
    7CHL1   C19  484   4.182   3.673  10.221  0.0557 -0.0906 -0.4017
    7CHL1  H19A  485   4.080   3.703  10.188 -0.6913 -0.7430  1.2056
    7CHL1  H19B  486   4.214   3.592  10.152  2.3256  0.2070  0.2681
    7CHL1  H19C  487   4.177   3.633  10.325 -0.4623  0.1869 -0.3172
    7CHL1    C1  488   4.413   3.749  10.264 -0.2537  0.8548  0.0427
    7CHL1   H1A  489   4.453   3.664  10.205  1.7241  1.1173  0.9418
    7CHL1   H1B  490   4.481   3.835  10.244  3.2008 -1.0830  2.8159
    7CHL1    C2  491   4.413   3.710  10.414 -0.0484  0.3995  0.4952
    7CHL1   H2A  492   4.520   3.695  10.441 -0.0892 -1.7106 -0.3662
    7CHL1   H2B  493   4.353   3.617  10.425 -0.4597  0.4589 -1.1013
    7CHL1   C20  494   4.240   3.889   9.510 -0.0859 -0.1331 -0.7969
    7CHL1   H20  495   4.153   3.820   9.512  1.0185 -1.5697 -0.9697
    7CHL1   C21  496   4.377   3.809   9.507  0.2131 -0.2295  0.3130
    7CHL1  H21A  497   4.376   3.714   9.565  0.8547  1.2122  2.7573
    7CHL1  H21B  498   4.462   3.870   9.545  1.5059 -1.8839  0.1733
    7CHL1  H21C  499   4.410   3.769   9.409  1.2347 -1.4361  1.1287
    7CHL1   C22  500   4.229   4.002   9.402  0.1080 -0.0729  0.4187
    7CHL1  H22A  501   4.130   4.051   9.413  0.4531  0.0632  3.5056
    7CHL1  H22B  502   4.303   4.082   9.425  0.7760 -0.2042 -1.2546
    7CHL1   C23  503   4.250   3.959   9.255 -0.2090 -0.0364 -0.1725
    7CHL1  H23A  504   4.353   3.921   9.238 -0.2624 -0.7766  1.0628
    7CHL1  H23B  505   4.189   3.866   9.246 -1.5509  0.9285 -1.2431
    7CHL1   C24  506   4.197   4.064   9.152  0.3209 -0.0953  0.6366
    7CHL1  H24A  507   4.090   4.090   9.162  0.5925  0.9131  0.9334
    7CHL1  H24B  508   4.255   4.157   9.171  0.1409 -0.1540  1.4820
    7CHL1   C25  509   4.218   4.028   8.998 -0.0916 -0.3646  0.1112
    7CHL1   H25  510   4.320   3.990   8.977 -0.2445 -0.0623 -1.1992
    7CHL1   C26  511   4.127   3.908   8.972  0.1027 -0.8366  0.6301
    7CHL1  H26A  512   4.160   3.827   9.040 -0.1051 -1.6994 -0.2838
    7CHL1  H26B  513   4.020   3.932   8.990  0.1734  0.2039 -0.2158
    7CHL1  H26C  514   4.138   3.857   8.873  0.8436 -2.6220  1.6171
    7CHL1   C27  515   4.190   4.144   8.902 -0.3781 -0.1477  0.1391
    7CHL1  H27A  516   4.192   4.114   8.795  1.0763 -0.7586  0.3387
    7CHL1  H27B  517   4.090   4.188   8.925 -0.2892  1.5256 -2.4039
    7CHL1  H27C  518   4.270   4.219   8.920 -3.1237  2.5127  1.8807
    8CHL1    C3  519   5.180   5.047  10.208  0.5537  0.6192  0.0381
    8CHL1    H3  520   5.086   4.989  10.202  1.5017 -1.1112  1.4339
    8CHL1    O3  521   5.225   5.068  10.340 -0.4604 -0.2973 -0.2848
    8CHL1   H3'  522   5.156   5.122  10.381 -0.3409 -0.0089 -0.4576
    8CHL1    C4  523   5.297   4.969  10.142 -0.5031 -0.0156 -0.1386
    8CHL1   H4A  524   5.398   5.013  10.160 -0.7927 -0.0181  1.5516
    8CHL1   H4B  525   5.300   4.874  10.200 -0.7471 -2.6418 -4.2295
    8CHL1    C5  526   5.277   4.942   9.995 -0.7799 -0.0514  0.7750
    8CHL1    C6  527   5.277   4.821   9.934 -0.2346 -0.8951 -0.5372
    8CHL1    H6  528   5.288   4.725   9.987 -1.0628  0.2204  1.7290
    8CHL1    C7  529   5.253   4.810   9.791 -0.3954 -0.5514  0.6381
    8CHL1   H7A  530   5.334   4.750   9.745  0.1692  1.5591 -1.2223
    8CHL1   H7B  531   5.158   4.754   9.776 -1.6705  1.7414 -0.2219
    8CHL1    C8  532   5.257   4.943   9.705  0.0201  0.4441 -0.4177
    8CHL1    H8  533   5.362   4.979   9.697 -0.1097  0.5753 -1.5459
    8CHL1   C14  534   5.189   4.927   9.572  0.0857  0.5392  0.4605
    8CHL1   H14  535   5.082   4.911   9.595  0.2875  0.0501  1.0778
    8CHL1   C15  536   5.226   4.803   9.481 -0.1939 -0.1555 -0.2664
    8CHL1  H15A  537   5.337   4.798   9.477 -0.2338 -0.8393 -0.5115
    8CHL1  H15B  538   5.179   4.713   9.525  1.3549 -0.1631  1.4305
    8CHL1   C16  539   5.156   4.836   9.346 -1.0666 -0.4982  0.3866
    8CHL1  H16A  540   5.218   4.818   9.255  0.0235 -0.7818  1.1741
    8CHL1  H16B  541   5.066   4.772   9.334 -0.0670 -1.5686 -1.7369
    8CHL1   C17  542   5.104   4.984   9.357 -0.3172 -0.5711 -0.4965
    8CHL1   H17  543   4.999   4.964   9.388 -0.0004 -0.4158  0.7091
    8CHL1   C13  544   5.178   5.046   9.479 -0.2551  0.2168  0.6890
    8CHL1   C18  545   5.322   5.089   9.431  0.5466 -0.3463  0.9158
    8CHL1  H18A  546   5.374   5.010   9.373 -0.1269 -0.6387  0.6975
    8CHL1  H18B  547   5.313   5.183   9.372 -1.7670 -0.6593  0.7313
    8CHL1  H18C  548   5.386   5.099   9.521  0.6979 -1.3816  0.9317
    8CHL1   C12  549   5.102   5.160   9.553 -0.3617  0.5998 -0.5854
    8CHL1  H12A  550   5.123   5.250   9.491  2.6535 -0.8836 -1.8197
    8CHL1  H12B  551   4.992   5.143   9.551  0.1354 -3.0076 -0.6502
    8CHL1   C11  552   5.164   5.183   9.695 -0.1173 -0.8657 -0.9197
    8CHL1  H11A  553   5.265   5.223   9.672 -0.3260  1.2907  1.7477
    8CHL1  H11B  554   5.110   5.267   9.743 -1.3714 -2.6531  0.8755
    8CHL1    C9  555   5.183   5.053   9.782  0.1537 -0.2810 -0.1880
    8CHL1    H9  556   5.078   5.019   9.790  0.7571 -1.6428  2.8188
    8CHL1   C10  557   5.241   5.073   9.920  0.1676  0.0171 -0.1616
    8CHL1   C19  558   5.379   5.151   9.921 -0.0374 -0.2015  0.3231
    8CHL1  H19A  559   5.370   5.239   9.854  0.4905  0.0682  0.6014
    8CHL1  H19B  560   5.408   5.180  10.024 -0.3732  0.7032  0.1688
    8CHL1  H19C  561   5.464   5.096   9.875 -0.0950  0.2724 -0.3570
    8CHL1    C1  562   5.126   5.151   9.988  1.2473  0.4141 -0.4990
    8CHL1   H1A  563   5.104   5.252   9.947  1.5562  1.4818  1.8876
    8CHL1   H1B  564   5.030   5.095   9.976  0.3226  2.0914 -1.0648
    8CHL1    C2  565   5.159   5.173  10.137 -0.0076 -0.1974 -0.0419
    8CHL1   H2A  566   5.078   5.231  10.186  1.1681  2.0404 -0.6630
    8CHL1   H2B  567   5.248   5.239  10.140 -0.0770 -0.2034  4.7835
    8CHL1   C20  568   5.098   5.053   9.220  0.1707  0.6194  0.3748
    8CHL1   H20  569   5.200   5.061   9.177 -1.0051  0.0931 -2.6668
    8CHL1   C21  570   5.037   5.193   9.220 -0.5240  0.4361 -0.0123
    8CHL1  H21A  571   5.111   5.257   9.273  0.2938  1.3461 -2.2081
    8CHL1  H21B  572   4.940   5.193   9.273 -0.9633  3.7408 -0.7520
    8CHL1  H21C  573   5.033   5.247   9.123  2.3313 -0.0227 -0.4527
    8CHL1   C22  574   5.003   4.979   9.116 -0.9351 -0.1284  0.3378
    8CHL1  H22A  575   5.015   5.040   9.024 -1.4355 -1.2900 -0.5161
    8CHL1  H22B  576   5.059   4.885   9.097 -1.8306 -0.3359 -1.4143
    8CHL1   C23  577   4.856   4.949   9.142  0.3154  0.0712  0.2277
    8CHL1  H23A  578   4.839   4.914   9.246  0.6016  0.2687  0.3408
    8CHL1  H23B  579   4.802   5.047   9.143  0.0537 -0.0678 -0.1752
    8CHL1   C24  580   4.779   4.860   9.041  0.6091 -0.1462  0.0112
    8CHL1  H24A  581   4.793   4.912   8.944 -0.4052  0.2386  0.0618
    8CHL1  H24B  582   4.842   4.768   9.042 -2.0003 -2.0036  0.8341
    8CHL1   C25  583   4.626   4.844   9.072  0.1689 -0.2954  0.1375
    8CHL1   H25  584   4.581   4.942   9.099  0.3825  0.1174 -0.9574
    8CHL1   C26  585   4.546   4.787   8.950 -0.3376 -0.2956 -0.1189
    8CHL1  H26A  586   4.562   4.678   8.934 -0.9293 -0.7421  2.0791
    8CHL1  H26B  587   4.439   4.796   8.979 -0.1928  2.8335 -0.4786
    8CHL1  H26C  588   4.564   4.842   8.856  2.9692 -1.6412 -0.3393
    8CHL1   C27  589   4.596   4.760   9.196  0.4120 -0.0181 -0.5215
    8CHL1  H27A  590   4.605   4.653   9.170  1.0164 -0.2599  0.6471
    8CHL1  H27B  591   4.660   4.780   9.285  0.0165 -0.0275 -0.2307
    8CHL1  H27C  592   4.495   4.790   9.233  1.6321  2.6416  0.7771
    9CHL1    C3  593   1.160   1.857  10.019  0.1793  0.4523 -0.0548
    9CHL1    H3  594   1.081   1.915   9.967 -0.0994  0.1687  0.0527
    9CHL1    O3  595   1.141   1.860  10.155  0.1157 -0.0114  0.0962
    9CHL1   H3'  596   1.200   1.789  10.182  1.9381  1.8151  1.0903
    9CHL1    C4  597   1.142   1.708   9.972 -0.3423  0.4719  0.2395
    9CHL1   H4A  598   1.212   1.645  10.030  0.0350  0.8410  0.1904
    9CHL1   H4B  599   1.044   1.667  10.003 -0.4547  0.2148 -0.4468
    9CHL1    C5  600   1.163   1.686   9.820 -0.3419 -0.5900 -0.5106
    9CHL1    C6  601   1.064   1.629   9.754  0.1874  0.2160  0.1487
    9CHL1    H6  602   0.976   1.584   9.804 -1.1074 -0.1202 -2.3242
    9CHL1    C7  603   1.051   1.622   9.608  0.7407 -0.0051  0.4911
    9CHL1   H7A  604   1.019   1.522   9.571 -1.0183  0.7520 -0.1317
    9CHL1   H7B  605   0.980   1.700   9.573  1.8348 -0.0256 -1.8874
    9CHL1    C8  606   1.193   1.646   9.545  0.2495 -0.8721  0.2446
    9CHL1    H8  607   1.254   1.556   9.566 -2.0235 -2.6690 -0.7285
    9CHL1   C14  608   1.170   1.660   9.397  0.1229  0.5454  0.0330
    9CHL1   H14  609   1.098   1.742   9.377  0.9719  1.9778  2.7143
    9CHL1   C15  610   1.103   1.537   9.328  0.1683  0.8802 -0.2460
    9CHL1  H15A  611   1.136   1.440   9.373  2.6502  1.1203 -1.4171
    9CHL1  H15B  612   0.996   1.550   9.352 -0.2021 -1.9450 -0.1933
    9CHL1   C16  613   1.141   1.551   9.178  0.0790 -0.4585 -0.1988
    9CHL1  H16A  614   1.203   1.471   9.133  0.0940 -1.0290  0.8270
    9CHL1  H16B  615   1.049   1.567   9.117  0.2164 -2.5721 -1.0034
    9CHL1   C17  616   1.236   1.677   9.163  1.1128  0.4183  0.4775
    9CHL1   H17  617   1.172   1.767   9.155 -0.9377 -1.2847 -3.2914
    9CHL1   C13  618   1.288   1.697   9.304 -0.0558  0.0878  0.3900
    9CHL1   C18  619   1.406   1.596   9.321 -0.4764  0.0812 -0.1736
    9CHL1  H18A  620   1.439   1.577   9.425 -1.5695 -1.7635 -0.1495
    9CHL1  H18B  621   1.388   1.496   9.277  2.0085 -0.3340 -0.3409
    9CHL1  H18C  622   1.493   1.646   9.273 -0.8345  1.3805  0.5110
    9CHL1   C12  623   1.336   1.834   9.365  0.1983 -0.7118  0.9515
    9CHL1  H12A  624   1.428   1.870   9.315 -0.0879  1.1291  1.6834
    9CHL1  H12B  625   1.255   1.908   9.346 -0.8473 -2.3284 -1.1208
    9CHL1   C11  626   1.374   1.821   9.516 -0.1790  0.0671  0.4397
    9CHL1  H11A  627   1.465   1.757   9.514  0.2277  0.6289  0.9357
    9CHL1  H11B  628   1.404   1.922   9.550 -1.3806 -0.3600  2.8230
    9CHL1    C9  629   1.260   1.776   9.603  0.0390  0.5411 -0.6577
    9CHL1    H9  630   1.175   1.848   9.595 -0.2251  0.3396  0.2246
    9CHL1   C10  631   1.285   1.755   9.751  0.3756  0.3263 -0.0269
    9CHL1   C19  632   1.409   1.665   9.769  0.4611 -0.2275 -0.1445
    9CHL1  H19A  633   1.383   1.563   9.731  0.4037 -0.0687 -0.5363
    9CHL1  H19B  634   1.500   1.706   9.721 -0.7037  0.7189 -1.6095
    9CHL1  H19C  635   1.436   1.658   9.876  0.7366  2.5973  0.0011
    9CHL1    C1  636   1.312   1.892   9.821 -0.8618 -0.2984 -0.3928
    9CHL1   H1A  637   1.417   1.925   9.803 -0.8242 -1.5626 -2.5419
    9CHL1   H1B  638   1.252   1.969   9.768 -1.2897  0.4610  1.1368
    9CHL1    C2  639   1.293   1.912   9.973 -0.5340  0.1266  0.7109
    9CHL1   H2A  640   1.295   2.020  10.000  0.5892  0.4185 -0.5065
    9CHL1   H2B  641   1.383   1.886  10.033  1.4514  2.0127 -1.3498
    9CHL1   C20  642   1.333   1.670   9.038  0.1932 -0.4030  0.2107
    9CHL1   H20  643   1.401   1.584   9.056 -0.7844 -1.4239 -0.9184
    9CHL1   C21  644   1.424   1.800   9.037 -0.8280 -0.2051 -1.1453
    9CHL1  H21A  645   1.344   1.877   9.043 -0.5296  0.0884 -0.9481
    9CHL1  H21B  646   1.487   1.815   8.947 -0.7923 -1.1957 -1.2957
    9CHL1  H21C  647   1.491   1.796   9.125 -1.1656 -1.9738 -0.9434
    9CHL1   C22  648   1.247   1.662   8.909  0.0988 -0.0004  0.4256
    9CHL1  H22A  649   1.176   1.578   8.910 -1.8372  1.5258 -2.0680
    9CHL1  H22B  650   1.184   1.753   8.904 -0.0877 -0.1486  0.0182
    9CHL1   C23  651   1.333   1.648   8.779  0.6943  0.1171  0.2913
    9CHL1  H23A  652   1.266   1.659   8.692 -1.4331  2.1866  2.1128
    9CHL1  H23B  653   1.410   1.728   8.769  1.3002 -0.6968 -1.6731
    9CHL1   C24  654   1.400   1.506   8.770  0.1468  0.0965 -0.1590
    9CHL1  H24A  655   1.463   1.504   8.861 -0.6170  0.2082  0.3821
    9CHL1  H24B  656   1.322   1.426   8.773 -0.1860  0.4380  0.3403
    9CHL1   C25  657   1.498   1.485   8.651  0.5130 -0.1757  0.3622
    9CHL1   H25  658   1.556   1.394   8.677 -1.2050 -1.2364  0.5715
    9CHL1   C26  659   1.422   1.468   8.522 -0.1831 -0.6812  0.3546
    9CHL1  H26A  660   1.497   1.447   8.442  0.1714 -0.6990  0.6889
    9CHL1  H26B  661   1.349   1.385   8.520  0.8559 -1.6099  0.2944
    9CHL1  H26C  662   1.350   1.548   8.494 -0.1356 -0.3654  1.1363
    9CHL1   C27  663   1.586   1.606   8.630 -0.1704 -0.5835 -0.6499
    9CHL1  H27A  664   1.661   1.601   8.548 -0.4215  2.4847 -1.1264
    9CHL1  H27B  665   1.529   1.700   8.615 -0.3533 -0.8354 -1.6152
    9CHL1  H27C  666   1.631   1.626   8.729  0.1083 -1.4192 -0.6033
   10CHL1    C3  667   0.363   5.616  10.098  0.3794 -0.4033 -0.0055
   10CHL1    H3  668   0.298   5.533  10.064 -0.3895  0.6311 -1.0858
   10CHL1    O3  669   0.373   5.620  10.236 -0.0152  0.3734 -0.9563
   10CHL1   H3'  670   0.466   5.634  10.259  0.5221 -2.2920 -1.4145
   10CHL1    C4  671   0.498   5.609  10.032 -0.8949 -0.2031  0.4333
   10CHL1   H4A  672   0.561   5.691  10.074 -1.3104  0.8343 -0.9186
   10CHL1   H4B  673   0.552   5.515  10.055 -0.9822 -1.2145 -3.1587
   10CHL1    C5  674   0.495   5.621   9.884  0.0396 -0.1577 -0.3117
   10CHL1    C6  675   0.555   5.533   9.802 -0.2539 -0.7514 -0.3938
   10CHL1    H6  676   0.612   5.447   9.840  1.8971  0.3645 -0.9963
   10CHL1    C7  677   0.556   5.545   9.650 -0.2891  0.4232 -0.2645
   10CHL1   H7A  678   0.650   5.506   9.605 -0.4185  0.1399 -0.2936
   10CHL1   H7B  679   0.480   5.473   9.613  1.0943 -1.6371  0.7624
   10CHL1    C8  680   0.514   5.684   9.596 -0.1047 -0.0444 -0.8154
   10CHL1    H8  681   0.593   5.761   9.602  0.3081 -0.5452  0.2477
   10CHL1   C14  682   0.488   5.669   9.438 -0.6905  0.4243 -0.6351
   10CHL1   H14  683   0.408   5.592   9.441  1.2471 -1.5985  0.4456
   10CHL1   C15  684   0.591   5.600   9.344  0.0913 -0.4523  0.2364
   10CHL1  H15A  685   0.687   5.648   9.370 -0.1723  0.2576 -0.1043
   10CHL1  H15B  686   0.600   5.489   9.348 -0.1698 -0.4977 -0.3903
   10CHL1   C16  687   0.536   5.646   9.203 -0.4802  0.2182  0.1469
   10CHL1  H16A  688   0.610   5.710   9.150  0.3238  1.4580  2.7016
   10CHL1  H16B  689   0.510   5.554   9.146  0.1723 -0.1021  0.3630
   10CHL1   C17  690   0.417   5.737   9.229 -0.6745 -0.2656  0.2248
   10CHL1   H17  691   0.318   5.687   9.231 -2.0552  2.3462 -0.2075
   10CHL1   C13  692   0.432   5.793   9.375  0.1762 -0.4426 -0.5353
   10CHL1   C18  693   0.541   5.908   9.380 -0.1408  0.4457 -0.2234
   10CHL1  H18A  694   0.576   5.932   9.483  2.7436  2.7666 -1.6764
   10CHL1  H18B  695   0.643   5.877   9.350 -0.6980 -1.1090 -0.5489
   10CHL1  H18C  696   0.515   6.000   9.324  0.7875  1.0864  0.3948
   10CHL1   C12  697   0.302   5.827   9.451 -0.0263 -0.2830 -0.3532
   10CHL1  H12A  698   0.247   5.910   9.403  0.5861 -0.9757 -2.3112
   10CHL1  H12B  699   0.232   5.743   9.430 -0.8655  0.8415 -2.2767
   10CHL1   C11  700   0.322   5.851   9.607  0.4314  0.6454  0.0600
   10CHL1  H11A  701   0.388   5.937   9.632  1.4213 -0.2190  0.4582
   10CHL1  H11B  702   0.221   5.869   9.649  0.2018  1.0073 -0.6419
   10CHL1    C9  703   0.389   5.721   9.672 -0.8181 -0.0187 -0.1746
   10CHL1    H9  704   0.316   5.637   9.668  0.8656 -1.5932  1.0667
   10CHL1   C10  705   0.411   5.738   9.832 -0.0587  0.7302 -0.4044
   10CHL1   C19  706   0.487   5.875   9.858  0.3699  0.0344  0.2352
   10CHL1  H19A  707   0.558   5.882   9.773  0.5080 -1.4097  0.2253
   10CHL1  H19B  708   0.419   5.963   9.860 -0.6597 -0.7780  1.8716
   10CHL1  H19C  709   0.534   5.877   9.959  1.3667  1.3787 -0.2408
   10CHL1    C1  710   0.276   5.744   9.900  0.1167  0.4081 -0.1119
   10CHL1   H1A  711   0.219   5.827   9.854  0.2086  2.6887  3.7445
   10CHL1   H1B  712   0.221   5.654   9.864 -0.0289  1.1314 -1.7279
   10CHL1    C2  713   0.283   5.746  10.056  0.9111 -0.4896  0.5568
   10CHL1   H2A  714   0.180   5.748  10.099  0.6388  1.4075 -0.1559
   10CHL1   H2B  715   0.340   5.834  10.091  0.6357  0.4471 -1.2978
   10CHL1   C20  716   0.406   5.846   9.104  0.1599 -0.1834 -0.5476
   10CHL1   H20  717   0.506   5.894   9.100 -0.3004  0.6935 -1.7656
   10CHL1   C21  718   0.288   5.941   9.132 -0.2810 -0.7105  0.2264
   10CHL1  H21A  719   0.302   6.007   9.220  0.7335 -0.6198 -0.0048
   10CHL1  H21B  720   0.195   5.885   9.158 -0.6408  0.0969  0.7183
   10CHL1  H21C  721   0.273   6.006   9.043  1.5208  0.1637  0.5549
   10CHL1   C22  722   0.395   5.779   8.961  0.1306 -0.5592 -0.0338
   10CHL1  H22A  723   0.412   5.857   8.883 -0.1368  0.2682  0.7262
   10CHL1  H22B  724   0.468   5.697   8.946  1.3980  0.5608 -0.0555
   10CHL1   C23  725   0.251   5.712   8.953  0.2212  0.4211 -0.3013
   10CHL1  H23A  726   0.227   5.653   9.044 -4.0445  1.5807 -0.5672
   10CHL1  H23B  727   0.176   5.794   8.946 -3.3453 -2.4538  2.8428
   10CHL1   C24  728   0.241   5.622   8.825 -0.9395 -0.2013 -0.2190
   10CHL1  H24A  729   0.310   5.537   8.845  0.3074  0.9631  0.4943
   10CHL1  H24B  730   0.140   5.580   8.804 -1.3161 -1.3234  3.4731
   10CHL1   C25  731   0.288   5.709   8.697  0.8392 -0.4399  0.3698
   10CHL1   H25  732   0.384   5.765   8.707 -0.1617  1.3561  0.1284
   10CHL1   C26  733   0.300   5.616   8.576  0.4335  0.2405 -0.4233
   10CHL1  H26A  734   0.198   5.581   8.549 -0.1146 -0.2119  2.0998
   10CHL1  H26B  735   0.335   5.681   8.493 -0.7316  1.4122 -0.0228
   10CHL1  H26C  736   0.371   5.535   8.604 -1.1715 -1.3206 -0.7877
   10CHL1   C27  737   0.190   5.826   8.667 -0.0932  0.5165 -0.3897
   10CHL1  H27A  738   0.175   5.886   8.759 -0.8012 -2.2159  1.3714
   10CHL1  H27B  739   0.225   5.887   8.582 -0.1848 -1.1809 -1.6765
   10CHL1  H27C  740   0.088   5.793   8.637  0.5015  0.4999 -2.4786
   11CHL1    C3  741   2.895   1.972   9.996  0.2735 -0.0171 -0.9136
   11CHL1    H3  742   2.800   1.988   9.942 -2.2452 -1.4657  2.9057
   11CHL1    O3  743   2.870   1.986  10.135  0.3158 -0.3144 -0.0410
   11CHL1   H3'  744   2.945   1.950  10.184 -0.4459 -0.9682  0.6494
   11CHL1    C4  745   2.968   1.841   9.965  0.2241  0.2273 -0.3090
   11CHL1   H4A  746   3.060   1.844  10.028  1.5571 -1.1930 -2.1256
   11CHL1   H4B  747   2.902   1.763  10.008 -1.2118  1.1753 -0.7815
   11CHL1    C5  748   3.000   1.823   9.820 -0.7334 -0.5995  0.0129
   11CHL1    C6  749   2.940   1.722   9.748 -0.4665  0.2164 -0.3921
   11CHL1    H6  750   2.873   1.651   9.799 -0.9206  0.1339 -1.1002
   11CHL1    C7  751   2.962   1.707   9.598 -0.3080 -0.1279 -0.3568
   11CHL1   H7A  752   2.988   1.602   9.575 -0.5589  0.0962 -1.7164
   11CHL1   H7B  753   2.868   1.737   9.546 -1.3186 -4.7498 -1.3939
   11CHL1    C8  754   3.084   1.785   9.546 -0.3334 -0.7181 -0.2483
   11CHL1    H8  755   3.174   1.733   9.584 -0.7867 -0.7502  0.7912
   11CHL1   C14  756   3.075   1.801   9.396 -0.1987 -0.4051 -0.0674
   11CHL1   H14  757   2.999   1.876   9.368 -0.7315 -0.2210  1.8152
   11CHL1   C15  758   3.051   1.670   9.313  0.0569  0.1459 -0.4760
   11CHL1  H15A  759   3.097   1.588   9.372  2.8775  2.4051  0.5947
   11CHL1  H15B  760   2.943   1.643   9.315  0.3596 -1.1507 -1.1070
   11CHL1   C16  761   3.116   1.702   9.179  0.4870  0.4389 -0.0098
   11CHL1  H16A  762   3.202   1.635   9.161 -2.1150 -2.7164 -1.2095
   11CHL1  H16B  763   3.037   1.678   9.104 -0.0433  1.0955  0.3292
   11CHL1   C17  764   3.180   1.843   9.186  0.1894 -0.2625  0.0363
   11CHL1   H17  765   3.101   1.916   9.157  0.5211 -0.1932 -0.7003
   11CHL1   C13  766   3.206   1.866   9.335  0.3709  0.3123  0.1913
   11CHL1   C18  767   3.340   1.789   9.380  0.8738  0.1954  0.9303
   11CHL1  H18A  768   3.343   1.692   9.326  2.7515  0.3809  0.6592
   11CHL1  H18B  769   3.431   1.845   9.351  1.6536 -0.1140  2.7253
   11CHL1  H18C  770   3.345   1.772   9.490 -0.7907 -0.0399  0.9954
   11CHL1   C12  771   3.206   2.015   9.380 -0.3818 -0.0501  0.5796
   11CHL1  H12A  772   3.287   2.079   9.340  0.6198 -1.8289 -0.2868
   11CHL1  H12B  773   3.115   2.065   9.342 -0.0398  0.7667  0.8313
   11CHL1   C11  774   3.205   2.017   9.538 -0.8914 -0.2858  0.6894
   11CHL1  H11A  775   3.306   1.980   9.565 -0.8528 -0.4124  0.3723
   11CHL1  H11B  776   3.198   2.126   9.559  4.0712  0.3765 -0.5720
   11CHL1    C9  777   3.096   1.928   9.607 -0.1898 -0.1630  0.3084
   11CHL1    H9  778   2.999   1.975   9.579 -0.1010 -0.3316 -0.2713
   11CHL1   C10  779   3.092   1.925   9.760  0.2703 -0.6500  0.5117
   11CHL1   C19  780   3.236   1.886   9.810  0.1779 -0.0860  0.6338
   11CHL1  H19A  781   3.265   1.781   9.788 -0.5622 -0.3520  0.9322
   11CHL1  H19B  782   3.309   1.964   9.779 -0.5662  0.3295 -0.1323
   11CHL1  H19C  783   3.234   1.890   9.921  0.5943 -1.7926  0.7091
   11CHL1    C1  784   3.056   2.069   9.808 -0.3642 -0.4425 -0.3112
   11CHL1   H1A  785   3.143   2.137   9.793 -1.1140  0.5926  0.0258
   11CHL1   H1B  786   2.983   2.116   9.739 -1.1528 -0.5116  0.4769
   11CHL1    C2  787   2.992   2.082   9.951  0.3671 -0.3886  0.3327
   11CHL1   H2A  788   2.963   2.188   9.967 -0.2762 -0.4907 -0.1142
   11CHL1   H2B  789   3.080   2.072  10.018  1.6616 -1.2787 -1.4307
   11CHL1   C20  790   3.295   1.873   9.087  0.9926  0.1440 -0.0739
   11CHL1   H20  791   3.381   1.810   9.117 -0.8738 -2.0463  0.8319
   11CHL1   C21  792   3.328   2.021   9.078  0.1430  0.0133 -0.0364
   11CHL1  H21A  793   3.375   2.053   9.174 -0.7019 -0.4600  0.5426
   11CHL1  H21B  794   3.235   2.080   9.061 -0.0713 -0.5663 -0.8936
   11CHL1  H21C  795   3.393   2.042   8.991 -0.6545 -2.4437 -1.2574
   11CHL1   C22  796   3.263   1.840   8.941 -0.1761  0.3061  0.2329
   11CHL1  H22A  797   3.190   1.756   8.943 -2.3526  2.0307 -2.9282
   11CHL1  H22B  798   3.204   1.916   8.886  1.7044 -0.0546 -2.3766
   11CHL1   C23  799   3.386   1.792   8.861  0.2958  0.2674 -0.3349
   11CHL1  H23A  800   3.473   1.807   8.929 -0.8482 -0.5230  1.3663
   11CHL1  H23B  801   3.386   1.682   8.843  1.2656 -0.0124  1.1939
   11CHL1   C24  802   3.397   1.862   8.726  0.5626 -0.1983 -0.1931
   11CHL1  H24A  803   3.308   1.855   8.660  1.7456 -0.1089 -1.8362
   11CHL1  H24B  804   3.403   1.970   8.750  1.3510 -0.6044  1.5267
   11CHL1   C25  805   3.529   1.823   8.653 -0.7804 -0.5947  0.3233
   11CHL1   H25  806   3.558   1.718   8.674  1.0287 -0.3153 -0.7159
   11CHL1   C26  807   3.499   1.819   8.503 -0.4396 -0.1069 -0.3949
   11CHL1  H26A  808   3.589   1.780   8.450 -0.3357  0.3514 -0.5594
   11CHL1  H26B  809   3.427   1.743   8.465  0.6334 -1.8550  1.0252
   11CHL1  H26C  810   3.467   1.919   8.467 -2.0473 -0.0645  1.1038
   11CHL1   C27  811   3.647   1.921   8.686  0.1863 -0.1168  0.2142
   11CHL1  H27A  812   3.731   1.896   8.619 -1.1989 -0.1067 -1.5655
   11CHL1  H27B  813   3.618   2.021   8.649  0.7685 -0.6049 -1.6036
   11CHL1  H27C  814   3.669   1.922   8.795  1.3013  0.8491 -0.0202
   12CHL1    C3  815   5.956   4.868  10.306  1.2016  0.3105 -0.3046
   12CHL1    H3  816   6.056   4.883  10.259  2.2347 -0.4039  1.6151
   12CHL1    O3  817   5.966   4.875  10.445  0.2704 -0.2314  0.5210
   12CHL1   H3'  818   5.973   4.970  10.458  1.5563 -0.3304  0.6630
   12CHL1    C4  819   5.861   4.984  10.251 -0.2216  0.2177  0.0811
   12CHL1   H4A  820   5.763   4.972  10.301 -1.2151  0.1383 -1.8540
   12CHL1   H4B  821   5.903   5.080  10.289  0.6429  0.6609 -1.9453
   12CHL1    C5  822   5.845   4.987  10.100  0.3301  1.0455  0.4227
   12CHL1    C6  823   5.851   5.105  10.033  0.2417  0.2449 -0.8123
   12CHL1    H6  824   5.866   5.197  10.091 -0.2376 -0.2077  0.0411
   12CHL1    C7  825   5.831   5.102   9.886  0.2194  0.4402 -0.4491
   12CHL1   H7A  826   5.756   5.179   9.857 -1.5387 -1.9394 -2.5073
   12CHL1   H7B  827   5.927   5.125   9.835  1.0743 -0.5691  0.6813
   12CHL1    C8  828   5.775   4.971   9.820 -0.1396  0.3704  0.3188
   12CHL1    H8  829   5.666   4.964   9.843 -0.1325 -1.9256 -0.2181
   12CHL1   C14  830   5.796   4.971   9.667 -0.2574 -0.1091  0.1546
   12CHL1   H14  831   5.906   4.955   9.661 -0.6378 -2.5472 -1.2794
   12CHL1   C15  832   5.768   5.100   9.578 -0.0920  0.3305 -0.0907
   12CHL1  H15A  833   5.674   5.142   9.620 -1.3164 -1.8500 -0.5355
   12CHL1  H15B  834   5.856   5.163   9.600 -0.3491  0.5733  0.2387
   12CHL1   C16  835   5.745   5.039   9.443 -0.3405  0.1253 -0.2211
   12CHL1  H16A  836   5.637   5.058   9.428 -0.2091  2.1687  1.2097
   12CHL1  H16B  837   5.805   5.093   9.366 -0.8886  0.1612 -0.6242
   12CHL1   C17  838   5.767   4.882   9.445  0.0320 -0.0426  0.0150
   12CHL1   H17  839   5.870   4.870   9.405 -1.1292 -1.7843 -2.5742
   12CHL1   C13  840   5.746   4.848   9.587  1.0537  0.1863 -0.5585
   12CHL1   C18  841   5.586   4.830   9.616  0.1161 -0.2613  0.5367
   12CHL1  H18A  842   5.534   4.919   9.576  1.9158  0.3598 -0.5047
   12CHL1  H18B  843   5.546   4.740   9.565  0.9415 -1.7496  2.4172
   12CHL1  H18C  844   5.567   4.832   9.726 -0.1155  0.8510  0.4789
   12CHL1   C12  845   5.817   4.717   9.643  1.0470 -0.3226  0.5333
   12CHL1  H12A  846   5.769   4.631   9.591 -2.0315  1.6006  0.0864
   12CHL1  H12B  847   5.922   4.722   9.607  1.5392  0.3730  2.0460
   12CHL1   C11  848   5.803   4.715   9.794 -0.2874 -1.0631  0.2985
   12CHL1  H11A  849   5.697   4.697   9.821 -0.5804 -3.0957 -2.0458
   12CHL1  H11B  850   5.871   4.634   9.825 -0.1213 -0.5361  1.3296
   12CHL1    C9  851   5.841   4.848   9.876 -0.2444  0.4377 -0.9134
   12CHL1    H9  852   5.949   4.869   9.862 -0.6663  1.1558 -3.3910
   12CHL1   C10  853   5.820   4.846  10.034 -0.4514 -0.2400  0.5148
   12CHL1   C19  854   5.679   4.790  10.061 -0.1947 -0.6325 -0.3365
   12CHL1  H19A  855   5.660   4.686  10.027  0.0786  0.0075 -2.5504
   12CHL1  H19B  856   5.655   4.788  10.170 -0.7215  0.2961 -0.4288
   12CHL1  H19C  857   5.605   4.855  10.010 -2.2092 -1.8947  0.9196
   12CHL1    C1  858   5.911   4.733  10.097  0.5584  0.3076  0.1848
   12CHL1   H1A  859   5.871   4.638  10.056  0.8282 -1.6507  4.1848
   12CHL1   H1B  860   6.015   4.756  10.066  0.0707  2.4981  0.0590
   12CHL1    C2  861   5.903   4.733  10.252 -0.2820  0.9912  1.1152
   12CHL1   H2A  862   5.961   4.648  10.295 -0.0789  1.1766  1.2077
   12CHL1   H2B  863   5.801   4.706  10.284 -0.6327 -0.5123 -1.1349
   12CHL1   C20  864   5.680   4.810   9.326 -0.2754  1.6024  0.1134
   12CHL1   H20  865   5.571   4.813   9.349 -0.2595 -0.2958  0.5628
   12CHL1   C21  866   5.721   4.667   9.304  0.1564 -0.3528  0.1249
   12CHL1  H21A  867   5.728   4.611   9.400  3.6255  0.9743  0.7060
   12CHL1  H21B  868   5.820   4.667   9.253 -0.6915  0.5574 -1.5641
   12CHL1  H21C  869   5.648   4.615   9.238  0.0574 -0.6833  0.4941
   12CHL1   C22  870   5.694   4.890   9.197  0.2198 -0.8608 -0.5361
   12CHL1  H22A  871   5.640   4.985   9.215  2.1225  0.4980 -1.6831
   12CHL1  H22B  872   5.803   4.899   9.175  0.4102  2.6026  1.4794
   12CHL1   C23  873   5.619   4.832   9.070 -0.7964  1.0493  0.3355
   12CHL1  H23A  874   5.643   4.898   8.984 -1.3412 -0.9337 -1.3617
   12CHL1  H23B  875   5.668   4.735   9.046 -1.1268  1.2384 -1.1707
   12CHL1   C24  876   5.466   4.824   9.084 -0.3876 -0.6396  0.2446
   12CHL1  H24A  877   5.425   4.748   9.154  1.2177  0.3714  2.3390
   12CHL1  H24B  878   5.417   4.916   9.122  1.3637 -0.5186  2.3601
   12CHL1   C25  879   5.407   4.801   8.941 -0.9346 -0.0795 -0.5236
   12CHL1   H25  880   5.451   4.874   8.869 -2.8063 -0.8288 -2.4842
   12CHL1   C26  881   5.422   4.656   8.896  0.3458 -0.0878  0.5017
   12CHL1  H26A  882   5.526   4.616   8.898  1.1861  1.9738  0.0343
   12CHL1  H26B  883   5.354   4.594   8.959  0.5219  0.0179  0.8010
   12CHL1  H26C  884   5.383   4.641   8.794  0.0412  1.6229  0.3594
   12CHL1   C27  885   5.259   4.833   8.935  0.6227 -0.0215  0.4918
   12CHL1  H27A  886   5.226   4.854   8.831  2.5167  2.4426  0.3382
   12CHL1  H27B  887   5.201   4.747   8.975  0.3963 -0.1055 -0.0191
   12CHL1  H27C  888   5.238   4.927   8.990 -0.4907 -1.3720  2.4164
   13CHL1    C3  889   5.131   0.376   9.944 -0.2901 -0.3802  0.5658
   13CHL1    H3  890   5.025   0.362   9.913 -0.7084  0.2948  1.6705
   13CHL1    O3  891   5.145   0.401  10.083 -0.2563 -0.0913 -0.1900
   13CHL1   H3'  892   5.077   0.457  10.120 -0.4761 -0.1498 -0.5028
   13CHL1    C4  893   5.210   0.248   9.901 -0.1269  0.0280 -0.5402
   13CHL1   H4A  894   5.313   0.246   9.942  0.0333  1.6397 -0.8229
   13CHL1   H4B  895   5.156   0.166   9.951  0.2559 -0.3385 -0.7259
   13CHL1    C5  896   5.211   0.226   9.752 -0.4423  0.0205  0.2203
   13CHL1    C6  897   5.179   0.113   9.689  0.0239 -0.0220 -0.0916
   13CHL1    H6  898   5.142   0.027   9.746 -1.1413  0.8497  0.5041
   13CHL1    C7  899   5.181   0.098   9.535 -0.2801  0.3318 -0.3453
   13CHL1   H7A  900   5.238   0.005   9.513 -1.6237 -0.5149 -0.2967
   13CHL1   H7B  901   5.081   0.083   9.490  0.2346 -0.9788 -1.0726
   13CHL1    C8  902   5.270   0.202   9.465  0.1135 -0.0738  0.4800
   13CHL1    H8  903   5.375   0.170   9.483  0.3939 -0.3141 -1.5275
   13CHL1   C14  904   5.246   0.199   9.313  0.3540  1.1102  0.9986
   13CHL1   H14  905   5.139   0.225   9.297 -0.3212 -1.7413  0.5524
   13CHL1   C15  906   5.265   0.072   9.232  0.1776 -0.0197  0.1534
   13CHL1  H15A  907   5.356   0.024   9.275  1.5314  1.9542 -0.4709
   13CHL1  H15B  908   5.174   0.009   9.244 -0.2246  0.3453 -0.9259
   13CHL1   C16  909   5.281   0.109   9.080  0.0666 -0.1878  0.2053
   13CHL1  H16A  910   5.374   0.056   9.047  0.3643 -0.7308  1.8643
   13CHL1  H16B  911   5.199   0.073   9.015  0.3827 -0.2121 -0.1832
   13CHL1   C17  912   5.300   0.261   9.086  0.0101  0.8049  0.6898
   13CHL1   H17  913   5.196   0.300   9.084 -0.4349 -0.2023  2.8479
   13CHL1   C13  914   5.330   0.303   9.237  0.1185 -0.2713 -0.5933
   13CHL1   C18  915   5.481   0.273   9.259 -0.2161  0.8162  0.5278
   13CHL1  H18A  916   5.505   0.175   9.212  0.7560  0.9027  0.8206
   13CHL1  H18B  917   5.531   0.349   9.194 -2.5198  0.0791 -2.1986
   13CHL1  H18C  918   5.518   0.281   9.363  0.3158 -1.7548  0.5623
   13CHL1   C12  919   5.292   0.445   9.284 -0.1460  0.0148  0.2960
   13CHL1  H12A  920   5.369   0.512   9.242  1.5734 -1.1231  1.5297
   13CHL1  H12B  921   5.193   0.480   9.249  0.5607  0.9621 -0.7647
   13CHL1   C11  922   5.311   0.450   9.438 -0.4679  0.3034  0.2068
   13CHL1  H11A  923   5.419   0.441   9.462 -0.2220 -0.9231 -1.3153
   13CHL1  H11B  924   5.276   0.550   9.472 -0.5634  0.3551 -0.0432
   13CHL1    C9  925   5.244   0.340   9.519 -0.6102  0.5920 -0.1592
   13CHL1    H9  926   5.135   0.359   9.509 -0.6478  1.4916  1.7131
   13CHL1   C10  927   5.264   0.358   9.677  0.1948  0.3036 -0.4041
   13CHL1   C19  928   5.416   0.372   9.707  0.5157 -0.7276  0.6810
   13CHL1  H19A  929   5.460   0.284   9.656 -2.3386 -2.3976  0.9571
   13CHL1  H19B  930   5.465   0.461   9.662 -1.5444  0.2486  0.3014
   13CHL1  H19C  931   5.448   0.358   9.812 -0.7795  0.6953  1.2946
   13CHL1    C1  932   5.185   0.486   9.724  0.0126  0.2547 -0.0704
   13CHL1   H1A  933   5.224   0.576   9.671 -0.5059  1.0758  0.9267
   13CHL1   H1B  934   5.081   0.477   9.686  0.0667 -1.1948  0.1323
   13CHL1    C2  935   5.192   0.493   9.880 -0.0110  0.7692 -0.5679
   13CHL1   H2A  936   5.135   0.584   9.911 -0.4574  0.5200 -0.6510
   13CHL1   H2B  937   5.297   0.514   9.910  0.2321 -0.0789 -0.8233
   13CHL1   C20  938   5.379   0.324   8.971  0.4216 -0.4259  0.0173
   13CHL1   H20  939   5.417   0.418   9.017  0.3527 -0.6857  0.6148
   13CHL1   C21  940   5.286   0.379   8.855  0.0187 -0.0783  0.5775
   13CHL1  H21A  941   5.258   0.301   8.782  0.6021  0.8127 -0.6234
   13CHL1  H21B  942   5.341   0.456   8.795  2.5336 -1.8871  0.4784
   13CHL1  H21C  943   5.201   0.432   8.903 -0.4046 -0.5931  0.3989
   13CHL1   C22  944   5.500   0.252   8.913 -0.8315 -0.1088 -0.9615
   13CHL1  H22A  945   5.552   0.199   8.995 -1.0256 -0.4193 -1.0402
   13CHL1  H22B  946   5.464   0.170   8.846  0.4515 -2.8616  1.6326
   13CHL1   C23  947   5.602   0.347   8.838 -0.5500 -0.3054  0.2395
   13CHL1  H23A  948   5.545   0.425   8.783 -0.0478  0.2358  0.4760
   13CHL1  H23B  949   5.662   0.416   8.902  0.8039  0.0897 -1.4196
   13CHL1   C24  950   5.706   0.269   8.745  0.1398 -0.1343 -0.1117
   13CHL1  H24A  951   5.802   0.324   8.732  0.6593 -1.2096 -0.9288
   13CHL1  H24B  952   5.728   0.176   8.802  2.6073  0.9344  0.7483
   13CHL1   C25  953   5.657   0.217   8.608  0.6557 -0.0059  0.0738
   13CHL1   H25  954   5.555   0.175   8.619 -1.2951  4.0057 -1.5657
   13CHL1   C26  955   5.639   0.325   8.504 -0.3274 -0.5973 -0.1221
   13CHL1  H26A  956   5.565   0.402   8.535 -0.3927 -0.7959  0.2240
   13CHL1  H26B  957   5.734   0.378   8.481 -0.0885 -0.6007  0.8060
   13CHL1  H26C  958   5.610   0.285   8.405  0.4491 -1.5074  0.0059
   13CHL1   C27  959   5.764   0.119   8.555  0.4338 -0.1842  0.0151
   13CHL1  H27A  960   5.793   0.030   8.616  0.4252 -0.7268 -0.7694
   13CHL1  H27B  961   5.723   0.076   8.462 -0.2663 -0.3091  0.3798
   13CHL1  H27C  962   5.847   0.189   8.529  0.6068 -0.9907 -1.6247
   14CHL1    C3  963   4.402   3.196  10.196  0.0928 -0.6718  0.4650
   14CHL1    H3  964   4.294   3.170  10.193  0.4215 -1.8592 -1.7301
   14CHL1    O3  965   4.446   3.182  10.330  0.0671 -0.3465 -0.2131
   14CHL1   H3'  966   4.542   3.188  10.325 -0.0150  2.3187  0.5947
   14CHL1    C4  967   4.474   3.097  10.100 -0.0261  0.5138 -0.8715
   14CHL1   H4A  968   4.583   3.108  10.119  0.0519 -0.3821 -0.7998
   14CHL1   H4B  969   4.452   2.994  10.134  2.4266  0.3210  0.2737
   14CHL1    C5  970   4.433   3.112   9.958 -0.2890 -0.6085  0.9959
   14CHL1    C6  971   4.376   3.010   9.891  0.0146  0.0688 -0.4532
   14CHL1    H6  972   4.362   2.923   9.955  1.0420 -0.0155 -0.3330
   14CHL1    C7  973   4.323   3.013   9.751  0.4703  0.3721  0.1769
   14CHL1   H7A  974   4.358   2.924   9.693  1.2882  0.9074 -0.1572
   14CHL1   H7B  975   4.212   3.003   9.753  0.4026  0.1500 -2.3371
   14CHL1    C8  976   4.361   3.146   9.678 -0.3145  0.3829 -0.1764
   14CHL1    H8  977   4.469   3.129   9.655 -0.6909  1.3327 -2.7527
   14CHL1   C14  978   4.295   3.178   9.540  0.0418 -0.0701 -0.4830
   14CHL1   H14  979   4.189   3.196   9.569  0.9178 -1.1131  3.6536
   14CHL1   C15  980   4.275   3.064   9.444 -0.1267 -0.1883 -0.4104
   14CHL1  H15A  981   4.368   3.003   9.443 -0.0897 -0.1741  1.0868
   14CHL1  H15B  982   4.186   3.000   9.465 -1.5778  2.1536  0.7576
   14CHL1   C16  983   4.252   3.127   9.308 -0.1588  0.7531  0.1994
   14CHL1  H16A  984   4.334   3.087   9.245  0.5259  1.0815  0.8724
   14CHL1  H16B  985   4.146   3.115   9.277 -0.2409  0.1300  0.7127
   14CHL1   C17  986   4.261   3.283   9.337 -0.1939  0.0996 -0.5834
   14CHL1   H17  987   4.164   3.325   9.372  0.0192  0.8041 -0.8305
   14CHL1   C13  988   4.349   3.302   9.468  0.6651  0.4545 -0.1193
   14CHL1   C18  989   4.503   3.293   9.444  0.2254  0.1357  1.0123
   14CHL1  H18A  990   4.548   3.392   9.419 -0.3366  0.2622  0.4806
   14CHL1  H18B  991   4.551   3.261   9.539 -0.9465 -2.0131  0.8988
   14CHL1  H18C  992   4.539   3.223   9.366  2.4151  2.1518  0.1568
   14CHL1   C12  993   4.309   3.414   9.565 -0.2031  0.3509  0.9497
   14CHL1  H12A  994   4.326   3.515   9.522 -0.6669  0.5017  1.1091
   14CHL1  H12B  995   4.198   3.411   9.575 -0.1249  1.2089  2.1735
   14CHL1   C11  996   4.384   3.396   9.689 -0.1086 -0.0955  0.1140
   14CHL1  H11A  997   4.494   3.410   9.685 -0.0727 -0.5723 -0.6961
   14CHL1  H11B  998   4.357   3.476   9.761 -0.3416  0.0495 -0.1364
   14CHL1    C9  999   4.357   3.262   9.769 -0.1589  0.7017  0.1657
   14CHL1    H9 1000   4.250   3.276   9.798 -1.1260 -2.2591 -1.7915
   14CHL1   C10 1001   4.439   3.250   9.900 -0.2130  0.3195 -0.2512
   14CHL1   C19 1002   4.596   3.267   9.875  0.3057  0.3614  0.3528
   14CHL1  H19A 1003   4.615   3.376   9.878 -1.7363  0.7049  1.4514
   14CHL1  H19B 1004   4.655   3.233   9.963  1.6977  1.8920  0.0446
   14CHL1  H19C 1005   4.622   3.211   9.782  2.2323 -0.2358  1.2243
   14CHL1    C1 1006   4.382   3.351  10.007 -0.0637  0.8277 -0.1232
   14CHL1   H1A 1007   4.400   3.452   9.965  1.5759  0.6912  0.2278
   14CHL1   H1B 1008   4.271   3.337  10.008  0.1948 -1.5888  2.9934
   14CHL1    C2 1009   4.437   3.337  10.154  0.3802 -0.8217 -0.2064
   14CHL1   H2A 1010   4.380   3.417  10.207  0.3063  0.5436 -2.2894
   14CHL1   H2B 1011   4.540   3.374  10.174 -0.6708  0.5554  3.0336
   14CHL1   C20 1012   4.307   3.358   9.213 -0.9162 -0.4918  0.1088
   14CHL1   H20 1013   4.402   3.306   9.188 -1.2252 -0.7470 -0.5449
   14CHL1   C21 1014   4.310   3.508   9.245 -0.0424 -0.1633  0.0708
   14CHL1  H21A 1015   4.214   3.543   9.290  0.2883 -0.6277  1.1417
   14CHL1  H21B 1016   4.314   3.561   9.147 -1.1909  2.5181  1.4105
   14CHL1  H21C 1017   4.393   3.519   9.317 -1.2081  1.1081  1.2552
   14CHL1   C22 1018   4.216   3.343   9.080  0.2021 -0.6133 -1.1462
   14CHL1  H22A 1019   4.193   3.234   9.073 -1.8377 -0.2943  0.1334
   14CHL1  H22B 1020   4.121   3.392   9.107 -1.0196 -3.3710 -0.2033
   14CHL1   C23 1021   4.270   3.400   8.951  0.0563 -0.5491 -0.3897
   14CHL1  H23A 1022   4.313   3.501   8.968  0.5145 -0.6877 -0.7116
   14CHL1  H23B 1023   4.355   3.336   8.920  0.4256 -0.5072  0.5350
   14CHL1   C24 1024   4.161   3.413   8.837  0.3122  0.5118 -0.3343
   14CHL1  H24A 1025   4.108   3.315   8.834  0.5254  0.3068  2.0828
   14CHL1  H24B 1026   4.088   3.494   8.856 -0.7918 -0.8344  1.2863
   14CHL1   C25 1027   4.231   3.438   8.700 -0.2651  0.0796  0.1359
   14CHL1   H25 1028   4.330   3.485   8.721 -0.4270  0.4245  0.1309
   14CHL1   C26 1029   4.260   3.307   8.630  0.2286 -0.2576  0.7052
   14CHL1  H26A 1030   4.354   3.324   8.574  1.8547 -0.3270  3.3154
   14CHL1  H26B 1031   4.286   3.224   8.700  2.5723  0.1973  0.4135
   14CHL1  H26C 1032   4.168   3.279   8.574  0.0603 -0.1791  0.9427
   14CHL1   C27 1033   4.139   3.525   8.616 -0.4118  0.6307  0.8210
   14CHL1  H27A 1034   4.182   3.569   8.524  0.5977 -3.0548 -0.5406
   14CHL1  H27B 1035   4.055   3.458   8.588 -2.1884  2.8443  0.6314
   14CHL1  H27C 1036   4.111   3.612   8.680  0.8059  1.1991  0.5977
   15CHL1    C3 1037   4.359   2.109  10.249  0.0126  0.4633 -0.2271
   15CHL1    H3 1038   4.441   2.034  10.255 -0.0281  0.5564  1.6883
   15CHL1    O3 1039   4.323   2.147  10.384  0.0079 -0.7573 -0.1101
   15CHL1   H3' 1040   4.252   2.210  10.369  2.0999  1.7532  0.1132
   15CHL1    C4 1041   4.426   2.233  10.176 -0.7644  0.3018  0.1000
   15CHL1   H4A 1042   4.353   2.316  10.190 -1.1088  0.0205 -0.0161
   15CHL1   H4B 1043   4.525   2.262  10.218 -0.3026 -1.1210  0.0267
   15CHL1    C5 1044   4.445   2.212  10.026  0.3485 -0.3775 -0.7146
   15CHL1    C6 1045   4.570   2.225   9.972 -0.1165  0.0235 -0.6627
   15CHL1    H6 1046   4.653   2.261  10.035  0.6163 -1.6312 -0.6472
   15CHL1    C7 1047   4.596   2.207   9.828 -0.3478  1.1373  0.3280
   15CHL1   H7A 1048   4.649   2.295   9.786 -1.6158  1.8024  0.0954
   15CHL1   H7B 1049   4.652   2.112   9.821  0.5085  1.4338  2.5577
   15CHL1    C8 1050   4.473   2.200   9.738 -0.4874  0.0393  0.8995
   15CHL1    H8 1051   4.440   2.306   9.731  0.5369  0.4224  1.6290
   15CHL1   C14 1052   4.509   2.150   9.602 -0.4300  0.6416  0.1491
   15CHL1   H14 1053   4.528   2.042   9.622  0.2458  0.8473  0.6388
   15CHL1   C15 1054   4.629   2.216   9.529  0.9226  0.2908 -0.1203
   15CHL1  H15A 1055   4.633   2.325   9.553  0.1545 -0.1565  2.1441
   15CHL1  H15B 1056   4.726   2.180   9.567  0.3771 -3.6222 -2.2005
   15CHL1   C16 1057   4.595   2.193   9.383 -0.1744 -0.4636 -0.3203
   15CHL1  H16A 1058   4.589   2.294   9.338  1.9811  0.5003  1.4611
   15CHL1  H16B 1059   4.677   2.158   9.316  0.4613 -0.7918  0.6186
   15CHL1   C17 1060   4.462   2.110   9.370  0.6792  0.0780 -0.5475
   15CHL1   H17 1061   4.490   2.003   9.384 -0.7944 -0.0602  1.6628
   15CHL1   C13 1062   4.389   2.148   9.502 -0.0339  0.5165 -0.0601
   15CHL1   C18 1063   4.321   2.283   9.480  0.0612 -0.0516  0.0032
   15CHL1  H18A 1064   4.390   2.346   9.420  0.2830 -1.0522 -0.8210
   15CHL1  H18B 1065   4.236   2.260   9.412 -0.3535 -2.1782  1.1707
   15CHL1  H18C 1066   4.283   2.333   9.571 -1.1463  0.5448 -0.8230
   15CHL1   C12 1067   4.294   2.039   9.566 -0.1352 -0.0852  0.2975
   15CHL1  H12A 1068   4.198   2.024   9.512  0.6127  0.4806 -1.2035
   15CHL1  H12B 1069   4.353   1.945   9.570 -1.9008 -1.2308 -0.0883
   15CHL1   C11 1070   4.243   2.086   9.705 -0.5285  0.7281  0.3564
   15CHL1  H11A 1071   4.189   2.183   9.695  1.8250  1.9919 -0.3267
   15CHL1  H11B 1072   4.180   2.006   9.750  0.6590 -0.4266 -0.0165
   15CHL1    C9 1073   4.360   2.119   9.799 -0.3055  0.6462  0.8777
   15CHL1    H9 1074   4.411   2.021   9.812 -1.7833 -0.0478  1.6487
   15CHL1   C10 1075   4.320   2.162   9.949  0.0122  1.2922  0.1261
   15CHL1   C19 1076   4.198   2.259   9.940 -0.0104 -0.6913  0.1380
   15CHL1  H19A 1077   4.117   2.194   9.901 -1.3061  0.4249  0.8865
   15CHL1  H19B 1078   4.184   2.307  10.039 -0.3193  0.3978 -0.4231
   15CHL1  H19C 1079   4.206   2.337   9.861 -0.0089 -0.5046  0.3225
   15CHL1    C1 1080   4.280   2.032  10.020 -0.3285  0.1157 -1.7651
   15CHL1   H1A 1081   4.191   1.983   9.975 -2.1454 -0.6939  2.4726
   15CHL1   H1B 1082   4.364   1.959  10.021  1.0509  1.6764 -0.5926
   15CHL1    C2 1083   4.241   2.049  10.168  0.4091  0.2031 -0.4448
   15CHL1   H2A 1084   4.201   1.955  10.211 -3.5688  2.7368  1.8587
   15CHL1   H2B 1085   4.151   2.115  10.170  1.2189  1.3296 -0.3716
   15CHL1   C20 1086   4.388   2.137   9.240  0.0267  0.5463 -0.5833
   15CHL1   H20 1087   4.346   2.239   9.235 -1.0637  0.2802  2.0511
   15CHL1   C21 1088   4.264   2.038   9.232 -0.3378 -0.2679  0.1907
   15CHL1  H21A 1089   4.194   2.076   9.310  0.5050  1.4717  0.1094
   15CHL1  H21B 1090   4.287   1.929   9.233 -1.9297 -0.6221 -0.4801
   15CHL1  H21C 1091   4.212   2.042   9.134  0.9781 -1.6466 -0.5821
   15CHL1   C22 1092   4.480   2.124   9.117 -0.8290 -0.2336  0.1452
   15CHL1  H22A 1093   4.427   2.147   9.022 -1.2634 -3.2740 -0.3907
   15CHL1  H22B 1094   4.557   2.203   9.127  0.4015 -1.4038 -0.0232
   15CHL1   C23 1095   4.537   1.981   9.093  0.1053  0.3200  0.6597
   15CHL1  H23A 1096   4.612   1.960   9.172 -0.4921  1.0867  1.4455
   15CHL1  H23B 1097   4.452   1.911   9.106 -0.3640  1.0919  1.8893
   15CHL1   C24 1098   4.597   1.967   8.947 -0.2892 -0.6396  0.0335
   15CHL1  H24A 1099   4.692   2.019   8.925 -0.4014 -1.5546 -2.7672
   15CHL1  H24B 1100   4.626   1.861   8.940  4.3762  0.7016 -2.7048
   15CHL1   C25 1101   4.501   1.988   8.827 -0.2589 -0.8811  0.3323
   15CHL1   H25 1102   4.472   2.094   8.812 -2.1535 -1.6102 -1.3325
   15CHL1   C26 1103   4.574   1.956   8.691 -0.7450  0.1740  0.2017
   15CHL1  H26A 1104   4.677   1.998   8.685 -0.5376 -0.4002 -0.2803
   15CHL1  H26B 1105   4.579   1.845   8.697  0.2308  0.3004  2.1865
   15CHL1  H26C 1106   4.509   1.981   8.604 -1.6690  0.1009  0.8660
   15CHL1   C27 1107   4.378   1.898   8.837 -0.8584  0.3351  0.2824
   15CHL1  H27A 1108   4.308   1.905   8.751 -0.0265 -0.6674 -0.4947
   15CHL1  H27B 1109   4.416   1.795   8.856  0.4496  0.5030 -1.3938
   15CHL1  H27C 1110   4.322   1.921   8.930 -1.7289  4.2306 -1.1321
   16CHL1    C3 1111   5.175   3.112  10.186 -0.8203 -0.8578  0.0099
   16CHL1    H3 1112   5.145   3.217  10.165 -0.1042 -0.6551 -0.0263
   16CHL1    O3 1113   5.198   3.093  10.327 -0.5375 -0.0955  0.2456
   16CHL1   H3' 1114   5.249   3.013  10.341  0.1693  0.4696  0.9580
   16CHL1    C4 1115   5.076   3.013  10.139 -0.2171 -0.1050  0.4625
   16CHL1   H4A 1116   5.110   2.910  10.165  2.6219  0.8094  0.5256
   16CHL1   H4B 1117   4.978   3.027  10.191 -0.6812 -0.7334 -0.2311
   16CHL1    C5 1118   5.061   3.026   9.989 -0.3349 -0.9370  0.1382
   16CHL1    C6 1119   4.936   3.055   9.940  0.2217 -0.9715  0.1005
   16CHL1    H6 1120   4.844   3.062   9.999  0.7192 -2.4906  1.0787
   16CHL1    C7 1121   4.915   3.062   9.795  0.2158  0.4779 -0.6801
   16CHL1   H7A 1122   4.820   3.005   9.782 -1.0451  2.4267 -0.1366
   16CHL1   H7B 1123   4.900   3.169   9.772  0.6974  0.9738  1.2031
   16CHL1    C8 1124   5.026   3.001   9.705  0.2466 -0.4715  0.3521
   16CHL1    H8 1125   5.013   2.891   9.717  0.6643 -0.7756 -1.7925
   16CHL1   C14 1126   5.011   3.034   9.558 -0.5410  0.4167 -0.6608
   16CHL1   H14 1127   5.013   3.144   9.549 -1.6611  0.6790  1.8194
   16CHL1   C15 1128   4.880   2.991   9.490 -0.3364  0.1817 -0.8236
   16CHL1  H15A 1129   4.869   2.880   9.497 -2.3860  0.2832 -2.0376
   16CHL1  H15B 1130   4.781   3.029   9.523 -1.0471  0.7134 -3.4581
   16CHL1   C16 1131   4.911   3.026   9.344 -0.0933 -0.3997  0.6339
   16CHL1  H16A 1132   4.870   2.957   9.267  1.7368 -0.2582 -0.4888
   16CHL1  H16B 1133   4.856   3.121   9.325 -0.2707 -0.3658  1.3347
   16CHL1   C17 1134   5.063   3.035   9.327  0.2802 -0.2435  0.1046
   16CHL1   H17 1135   5.090   3.143   9.317  0.9018 -0.2277  1.8093
   16CHL1   C13 1136   5.116   2.991   9.459  0.6939 -0.6498 -0.1435
   16CHL1   C18 1137   5.126   2.830   9.455  0.4860  0.2534  0.3248
   16CHL1  H18A 1138   5.034   2.793   9.406  0.3838 -0.3208  0.9406
   16CHL1  H18B 1139   5.214   2.793   9.398 -0.4839 -2.5005  0.5112
   16CHL1  H18C 1140   5.132   2.783   9.556  4.4914  0.9341  0.4776
   16CHL1   C12 1141   5.249   3.042   9.515 -0.4734  0.0285  0.4599
   16CHL1  H12A 1142   5.330   3.013   9.444 -2.0679 -0.6502 -1.1356
   16CHL1  H12B 1143   5.232   3.152   9.514 -0.0859  0.1202 -2.4536
   16CHL1   C11 1144   5.279   2.984   9.659  0.2433 -0.2727  0.6952
   16CHL1  H11A 1145   5.276   2.873   9.660 -1.7045 -0.2476 -0.5422
   16CHL1  H11B 1146   5.374   3.038   9.677 -0.5758  0.8280  1.7855
   16CHL1    C9 1147   5.168   3.031   9.759  0.0461  0.3403  0.3995
   16CHL1    H9 1148   5.165   3.141   9.748 -0.8145  0.2814 -0.0057
   16CHL1   C10 1149   5.183   3.003   9.905 -0.2839  1.1159  0.2825
   16CHL1   C19 1150   5.210   2.849   9.917 -0.3866 -0.4378 -0.6347
   16CHL1  H19A 1151   5.298   2.821   9.856  1.8281  2.3159  1.1910
   16CHL1  H19B 1152   5.255   2.816  10.013 -0.7680  2.6518  0.6530
   16CHL1  H19C 1153   5.120   2.786   9.899  2.1571 -3.0797 -4.6647
   16CHL1    C1 1154   5.296   3.089   9.963  0.5622  0.8122  1.0048
   16CHL1   H1A 1155   5.388   3.063   9.907  0.5401 -0.4350  1.5287
   16CHL1   H1B 1156   5.278   3.195   9.934  2.3457  0.4475 -1.6193
   16CHL1    C2 1157   5.314   3.091  10.110  0.0339 -0.0620  0.6532
   16CHL1   H2A 1158   5.387   3.171  10.136  0.1338  0.9955 -2.7114
   16CHL1   H2B 1159   5.359   2.995  10.144 -0.6825 -0.7983 -0.4517
   16CHL1   C20 1160   5.114   2.969   9.194 -0.0047  0.7083 -0.1313
   16CHL1   H20 1161   5.078   2.866   9.211 -2.2800  1.3604 -0.7845
   16CHL1   C21 1162   5.268   2.968   9.182  0.1934  0.2540  0.5667
   16CHL1  H21A 1163   5.294   2.913   9.089 -1.1361  0.7130 -0.0949
   16CHL1  H21B 1164   5.328   2.909   9.253  1.4652  0.6658 -0.1516
   16CHL1  H21C 1165   5.305   3.073   9.187 -3.3211  1.7977 -2.9713
   16CHL1   C22 1166   5.054   3.029   9.065 -0.6376  0.7461  0.6060
   16CHL1  H22A 1167   4.944   3.019   9.066 -0.4861 -1.0255  0.4751
   16CHL1  H22B 1168   5.085   3.136   9.070 -0.8258  0.9501 -1.7523
   16CHL1   C23 1169   5.095   2.969   8.929 -0.2642  0.1560  0.7486
   16CHL1  H23A 1170   5.031   3.021   8.854  1.3859  0.2098 -0.6515
   16CHL1  H23B 1171   5.201   2.986   8.901 -0.2551  0.2594  0.8451
   16CHL1   C24 1172   5.075   2.815   8.919  0.8177  0.7290  0.1901
   16CHL1  H24A 1173   5.148   2.774   8.992 -1.3556 -0.1299  1.9481
   16CHL1  H24B 1174   4.980   2.798   8.974  0.7056 -0.3124 -0.3026
   16CHL1   C25 1175   5.065   2.750   8.777  0.3838  0.4165  0.0992
   16CHL1   H25 1176   5.026   2.646   8.783  0.6232  0.2204 -1.5121
   16CHL1   C26 1177   4.980   2.823   8.666  0.7297  0.1862 -0.2345
   16CHL1  H26A 1178   5.021   2.923   8.640 -0.1753  0.7382  0.4317
   16CHL1  H26B 1179   4.979   2.765   8.571  0.7005 -0.0062 -0.1142
   16CHL1  H26C 1180   4.876   2.836   8.705  1.5881  1.5956  1.6769
   16CHL1   C27 1181   5.208   2.743   8.728  0.0328  0.4144 -0.3625
   16CHL1  H27A 1182   5.251   2.844   8.709  0.0308  0.1299 -1.9355
   16CHL1  H27B 1183   5.279   2.697   8.800  1.0317 -1.7856 -2.6583
   16CHL1  H27C 1184   5.236   2.693   8.632  2.2878  0.1247  0.4173
   17CHL1    C3 1185   0.997   6.647  10.356 -0.2794 -0.4280 -0.5200
   17CHL1    H3 1186   0.974   6.755  10.349 -0.0824 -0.2265  1.5553
   17CHL1    O3 1187   0.975   6.591  10.488  0.0557 -0.5750  0.6061
   17CHL1   H3' 1188   1.001   6.500  10.478  3.1156  0.3437 -0.4918
   17CHL1    C4 1189   0.900   6.568  10.260 -0.3755  0.3726  0.4052
   17CHL1   H4A 1190   0.928   6.461  10.268 -0.2014  0.3100 -0.9796
   17CHL1   H4B 1191   0.797   6.573  10.301  0.0544  2.0268  1.3502
   17CHL1    C5 1192   0.922   6.611  10.120 -0.7626  0.1536  0.0777
   17CHL1    C6 1193   0.820   6.665  10.055  0.4907  0.7871  0.7303
   17CHL1    H6 1194   0.723   6.676  10.105 -1.1080 -2.3201 -1.4981
   17CHL1    C7 1195   0.830   6.708   9.907  0.1986 -0.7516  0.2525
   17CHL1   H7A 1196   0.744   6.668   9.849  0.8563  0.6832 -1.7625
   17CHL1   H7B 1197   0.827   6.819   9.912  0.5192 -0.6343 -1.8074
   17CHL1    C8 1198   0.962   6.666   9.838  0.3485 -0.5274 -0.1069
   17CHL1    H8 1199   0.943   6.559   9.814  2.9200 -1.1232  0.3728
   17CHL1   C14 1200   0.983   6.751   9.715 -0.3509 -0.3575  0.1810
   17CHL1   H14 1201   0.992   6.860   9.737  1.6857  0.1993 -3.0077
   17CHL1   C15 1202   0.878   6.761   9.601 -0.5045 -0.3686 -0.2242
   17CHL1  H15A 1203   0.836   6.658   9.593  0.0251 -0.7315  1.3074
   17CHL1  H15B 1204   0.800   6.837   9.619  2.2245  2.4304  0.1739
   17CHL1   C16 1205   0.958   6.799   9.478  0.9454 -0.0646 -0.0699
   17CHL1  H16A 1206   0.955   6.714   9.407 -0.1122  1.3340 -1.7126
   17CHL1  H16B 1207   0.925   6.892   9.428 -1.1434 -0.4797  0.4972
   17CHL1   C17 1208   1.105   6.814   9.523  0.7984  0.4630  0.1293
   17CHL1   H17 1209   1.111   6.916   9.569  0.7224 -0.4239  2.1684
   17CHL1   C13 1210   1.114   6.723   9.643  0.1380 -1.0940 -0.2226
   17CHL1   C18 1211   1.122   6.575   9.601 -0.2709 -0.0881 -0.8536
   17CHL1  H18A 1212   1.223   6.545   9.565  0.1244 -0.1922  0.3116
   17CHL1  H18B 1213   1.095   6.507   9.685 -0.4568  1.2726  0.2045
   17CHL1  H18C 1214   1.044   6.552   9.526 -3.5967 -0.7268  2.6441
   17CHL1   C12 1215   1.230   6.757   9.737 -0.0301  0.7361  0.4305
   17CHL1  H12A 1216   1.321   6.731   9.680 -0.7334 -2.8477  0.7637
   17CHL1  H12B 1217   1.211   6.862   9.767  1.4559  1.8339 -2.3015
   17CHL1   C11 1218   1.225   6.670   9.869 -0.9578 -0.1507  0.3719
   17CHL1  H11A 1219   1.249   6.563   9.851 -1.1539  0.0485 -1.0828
   17CHL1  H11B 1220   1.305   6.715   9.932  0.4577  0.9604 -2.1585
   17CHL1    C9 1221   1.083   6.683   9.931 -0.1808 -0.2748 -0.1627
   17CHL1    H9 1222   1.080   6.789   9.963  1.0832 -0.3465  0.2127
   17CHL1   C10 1223   1.065   6.605  10.069 -0.5211 -0.1830  0.3859
   17CHL1   C19 1224   1.094   6.456  10.045  0.4409  0.0765 -0.3310
   17CHL1  H19A 1225   1.191   6.436   9.995  1.4532  0.2949  1.4962
   17CHL1  H19B 1226   1.111   6.399  10.139  0.1205  2.8179  1.4205
   17CHL1  H19C 1227   1.011   6.402   9.995  0.3923 -1.2473  1.1289
   17CHL1    C1 1228   1.169   6.670  10.171 -0.0089  0.4394  0.1655
   17CHL1   H1A 1229   1.276   6.652  10.149  0.3859  1.8652  0.8554
   17CHL1   H1B 1230   1.156   6.781  10.174 -1.7240  0.2354  2.8378
   17CHL1    C2 1231   1.145   6.625  10.316 -0.2378 -0.3041 -1.1766
   17CHL1   H2A 1232   1.215   6.675  10.386  1.0458  1.2507 -3.5080
   17CHL1   H2B 1233   1.180   6.521  10.330 -1.5858 -0.9287 -2.3834
   17CHL1   C20 1234   1.208   6.791   9.413 -0.0877 -0.2505  0.2179
   17CHL1   H20 1235   1.224   6.682   9.406  0.3635 -0.0923 -1.7613
   17CHL1   C21 1236   1.337   6.872   9.451  0.6066 -0.0660  0.0847
   17CHL1  H21A 1237   1.407   6.843   9.369  1.4096  0.6665  0.5060
   17CHL1  H21B 1238   1.393   6.852   9.544  1.1090  2.5217  0.3718
   17CHL1  H21C 1239   1.320   6.980   9.433  3.1936  0.2273 -0.7267
   17CHL1   C22 1240   1.150   6.826   9.274  0.0509 -0.0844 -0.3162
   17CHL1  H22A 1241   1.051   6.783   9.246 -0.8510 -0.3211  2.9512
   17CHL1  H22B 1242   1.152   6.936   9.265  2.2706  0.0622  1.3254
   17CHL1   C23 1243   1.244   6.788   9.158  0.3459  0.3569  0.2411
   17CHL1  H23A 1244   1.348   6.815   9.183  0.6291  1.3876 -1.9581
   17CHL1  H23B 1245   1.237   6.678   9.143 -0.3929  0.6434 -1.6994
   17CHL1   C24 1246   1.205   6.860   9.025 -0.0399 -0.3360  0.0509
   17CHL1  H24A 1247   1.097   6.839   9.005  0.7214 -2.6416 -1.9097
   17CHL1  H24B 1248   1.219   6.970   9.024 -0.2617 -0.2919  1.2460
   17CHL1   C25 1249   1.301   6.803   8.910  0.2557 -0.4705 -0.5861
   17CHL1   H25 1250   1.327   6.702   8.947  0.3791 -0.4597 -0.6454
   17CHL1   C26 1251   1.254   6.803   8.762  0.7121 -0.0159 -0.0523
   17CHL1  H26A 1252   1.167   6.734   8.753  0.7974 -0.1265 -0.0204
   17CHL1  H26B 1253   1.213   6.905   8.743 -0.3355 -0.2860  0.6924
   17CHL1  H26C 1254   1.336   6.776   8.693 -0.3361 -3.3093 -0.1044
   17CHL1   C27 1255   1.421   6.902   8.900  0.3622 -0.0827 -0.0813
   17CHL1  H27A 1256   1.381   7.005   8.902 -1.6592 -0.7961 -2.2152
   17CHL1  H27B 1257   1.492   6.885   8.984 -1.0468  0.3212  1.2040
   17CHL1  H27C 1258   1.478   6.889   8.806 -2.7509 -0.5797 -1.9785
   18CHL1    C3 1259   0.372   4.926  10.158 -1.2961  0.0208  0.9293
   18CHL1    H3 1260   0.274   4.898  10.113 -0.7588  1.3055 -1.1241
   18CHL1    O3 1261   0.373   4.917  10.306 -0.1212 -0.6136  0.7084
   18CHL1   H3' 1262   0.455   4.961  10.329  0.9446 -1.0552 -2.0403
   18CHL1    C4 1263   0.486   4.850  10.096 -1.2082  0.2178 -0.0510
   18CHL1   H4A 1264   0.582   4.866  10.151 -0.8108  0.3203 -0.7754
   18CHL1   H4B 1265   0.457   4.746  10.122 -0.9704  0.1736  0.0438
   18CHL1    C5 1266   0.496   4.871   9.947  0.2022  0.2076 -0.4467
   18CHL1    C6 1267   0.500   4.762   9.858 -0.4042  0.4197  0.1944
   18CHL1    H6 1268   0.498   4.658   9.895 -2.0527  0.3003 -0.2031
   18CHL1    C7 1269   0.490   4.768   9.715 -0.2144 -0.9456  0.1192
   18CHL1   H7A 1270   0.579   4.714   9.676 -0.2200 -1.7799  1.2311
   18CHL1   H7B 1271   0.391   4.735   9.677  0.3179  0.5627 -2.7249
   18CHL1    C8 1272   0.517   4.913   9.663  0.2419 -1.1360  0.4650
   18CHL1    H8 1273   0.624   4.930   9.684 -0.3499  2.1265  0.9966
   18CHL1   C14 1274   0.477   4.921   9.521 -0.3072 -0.7179  0.2758
   18CHL1   H14 1275   0.366   4.916   9.523 -0.3347 -0.1298  0.5479
   18CHL1   C15 1276   0.531   4.811   9.423 -0.3382  0.0225 -0.6723
   18CHL1  H15A 1277   0.641   4.810   9.440 -0.5789  2.4832  1.3824
   18CHL1  H15B 1278   0.477   4.715   9.440 -0.2778  0.3065  1.2928
   18CHL1   C16 1279   0.498   4.881   9.288  0.3925 -0.1446  0.3827
   18CHL1  H16A 1280   0.596   4.883   9.234  1.5779 -0.9914  2.4350
   18CHL1  H16B 1281   0.416   4.827   9.237  2.7223 -3.1751 -0.3084
   18CHL1   C17 1282   0.474   5.038   9.311 -0.2049 -0.5923 -0.5141
   18CHL1   H17 1283   0.363   5.048   9.310 -0.0698  1.6005  1.4041
   18CHL1   C13 1284   0.513   5.059   9.460  0.1722 -0.7906 -0.3181
   18CHL1   C18 1285   0.664   5.082   9.470 -0.2602 -0.8652  0.0912
   18CHL1  H18A 1286   0.728   5.004   9.422  0.5510 -0.7170  0.9167
   18CHL1  H18B 1287   0.690   5.183   9.434  0.1962 -0.2821  2.0092
   18CHL1  H18C 1288   0.706   5.089   9.573 -0.3440  0.9298  0.0140
   18CHL1   C12 1289   0.433   5.169   9.537 -0.0203 -0.3717  0.1759
   18CHL1  H12A 1290   0.467   5.269   9.501 -0.2376 -0.6495 -0.8143
   18CHL1  H12B 1291   0.326   5.149   9.519 -0.0246 -1.3745  1.2473
   18CHL1   C11 1292   0.469   5.165   9.689 -0.3963 -0.1839  0.9152
   18CHL1  H11A 1293   0.574   5.200   9.698 -0.3013 -0.4011  0.6664
   18CHL1  H11B 1294   0.412   5.248   9.736 -0.2390  0.6219 -0.2974
   18CHL1    C9 1295   0.452   5.026   9.753 -0.7552  0.0323 -0.3459
   18CHL1    H9 1296   0.343   5.009   9.742 -0.5966 -0.0395 -2.0045
   18CHL1   C10 1297   0.482   5.018   9.895  0.6407 -0.0725  0.3765
   18CHL1   C19 1298   0.621   5.075   9.925 -0.9083  0.8668  0.2191
   18CHL1  H19A 1299   0.694   5.033   9.853  0.6175  2.7793  0.6306
   18CHL1  H19B 1300   0.622   5.186   9.921 -3.1682  0.8873 -0.2030
   18CHL1  H19C 1301   0.659   5.054  10.028  1.5736  3.0941 -0.2039
   18CHL1    C1 1302   0.381   5.103   9.981 -0.0860  0.2108 -0.4829
   18CHL1   H1A 1303   0.390   5.208   9.945  0.9747 -0.4072 -2.0371
   18CHL1   H1B 1304   0.285   5.057   9.948  0.4508 -0.3862 -1.2228
   18CHL1    C2 1305   0.391   5.080  10.133 -0.0194 -0.2688  0.5510
   18CHL1   H2A 1306   0.310   5.137  10.183 -0.4034  1.4907 -1.9861
   18CHL1   H2B 1307   0.489   5.116  10.170  0.3626 -2.4914  1.7753
   18CHL1   C20 1308   0.530   5.114   9.199 -0.4087 -0.7400 -0.4675
   18CHL1   H20 1309   0.640   5.122   9.212 -0.2478  1.7861 -2.9884
   18CHL1   C21 1310   0.468   5.254   9.204 -0.2137  0.1256  0.1570
   18CHL1  H21A 1311   0.479   5.287   9.310  3.0365  2.4594 -0.8412
   18CHL1  H21B 1312   0.360   5.246   9.179 -0.4259 -1.0672  1.4065
   18CHL1  H21C 1313   0.529   5.319   9.139 -1.4134  1.0593 -0.0473
   18CHL1   C22 1314   0.494   5.063   9.056 -0.8839 -0.5993 -0.5364
   18CHL1  H22A 1315   0.525   4.957   9.048  1.7370 -0.0883  1.9484
   18CHL1  H22B 1316   0.384   5.068   9.036 -0.6089 -0.3451 -2.0729
   18CHL1   C23 1317   0.574   5.130   8.939 -0.3029  0.3911  0.4677
   18CHL1  H23A 1318   0.549   5.238   8.931  0.6528  0.8328  3.1001
   18CHL1  H23B 1319   0.678   5.125   8.977 -0.0026 -0.1910 -0.4147
   18CHL1   C24 1320   0.571   5.046   8.806  0.4279  0.3722 -0.2259
   18CHL1  H24A 1321   0.658   5.076   8.743  0.6377 -0.6141 -0.4176
   18CHL1  H24B 1322   0.575   4.945   8.851 -1.0738  0.5619  0.3743
   18CHL1   C25 1323   0.435   5.035   8.737 -0.7610  0.0254 -0.6682
   18CHL1   H25 1324   0.367   4.983   8.808 -1.9557  2.4383  0.0393
   18CHL1   C26 1325   0.382   5.171   8.696 -0.0159 -0.0128  0.0223
   18CHL1  H26A 1326   0.287   5.159   8.639 -0.5846  0.9970  0.7403
   18CHL1  H26B 1327   0.349   5.229   8.785  1.3973  0.6252  0.1379
   18CHL1  H26C 1328   0.468   5.219   8.646  0.5303 -0.3130  0.6627
   18CHL1   C27 1329   0.435   4.943   8.617 -0.0632  0.6207  0.7822
   18CHL1  H27A 1330   0.345   4.979   8.564  1.4933  0.8345 -1.7967
   18CHL1  H27B 1331   0.526   4.959   8.555  0.2050  0.9179  1.2439
   18CHL1  H27C 1332   0.432   4.836   8.647  1.1273  0.4208  0.2503
   19CHL1    C3 1333   3.565   2.153  10.096  0.3968  0.0497 -0.1263
   19CHL1    H3 1334   3.589   2.048  10.070 -1.0682 -0.4370  0.4712
   19CHL1    O3 1335   3.539   2.167  10.232  0.2010  0.0902 -0.1777
   19CHL1   H3' 1336   3.518   2.260  10.239 -0.4944 -0.2307  2.5804
   19CHL1    C4 1337   3.689   2.240  10.053 -0.1410  0.3429  0.2543
   19CHL1   H4A 1338   3.676   2.346  10.084  1.4959  0.7947 -0.5671
   19CHL1   H4B 1339   3.766   2.189  10.115 -0.8863 -0.0506  0.8628
   19CHL1    C5 1340   3.718   2.226   9.907 -0.0279 -0.4619 -0.9539
   19CHL1    C6 1341   3.835   2.171   9.855  0.2082 -0.2348 -0.0306
   19CHL1    H6 1342   3.906   2.136   9.930  0.1150  0.5365  0.4250
   19CHL1    C7 1343   3.871   2.150   9.713 -0.1937 -0.6686  0.0521
   19CHL1   H7A 1344   3.977   2.175   9.691  0.0902 -1.9764 -0.1160
   19CHL1   H7B 1345   3.857   2.046   9.677  1.2579 -0.2074 -1.9591
   19CHL1    C8 1346   3.787   2.241   9.618 -0.7595  0.1114 -0.5805
   19CHL1    H8 1347   3.818   2.347   9.629 -0.0595  0.0761 -2.0884
   19CHL1   C14 1348   3.799   2.208   9.468 -0.6741  0.5387  0.1406
   19CHL1   H14 1349   3.781   2.098   9.458  0.4791  0.2816  0.7819
   19CHL1   C15 1350   3.939   2.223   9.411  0.6006 -0.7699  0.2524
   19CHL1  H15A 1351   3.981   2.324   9.434  0.9313 -0.5833 -1.1334
   19CHL1  H15B 1352   4.016   2.155   9.453  0.7841 -1.0530 -0.5347
   19CHL1   C16 1353   3.918   2.211   9.255  0.4699 -0.6318 -0.4460
   19CHL1  H16A 1354   3.988   2.281   9.204 -0.5383  0.1383 -0.7910
   19CHL1  H16B 1355   3.953   2.110   9.223  0.3257 -0.7571 -0.2109
   19CHL1   C17 1356   3.762   2.240   9.236  0.3834 -0.2710 -0.2657
   19CHL1   H17 1357   3.707   2.146   9.216  2.1968 -1.2319 -0.8399
   19CHL1   C13 1358   3.706   2.290   9.373  0.3435 -0.3752  0.2685
   19CHL1   C18 1359   3.730   2.442   9.385 -0.2237  0.7721  0.7344
   19CHL1  H18A 1360   3.660   2.492   9.315 -1.2160  0.1413  1.2737
   19CHL1  H18B 1361   3.733   2.478   9.490 -0.9524  2.5514  0.1634
   19CHL1  H18C 1362   3.834   2.450   9.346 -0.3783  0.3949  0.2481
   19CHL1   C12 1363   3.556   2.256   9.411  0.5999  0.0015 -0.1228
   19CHL1  H12A 1364   3.487   2.327   9.361  0.4895 -0.2427 -0.3147
   19CHL1  H12B 1365   3.529   2.152   9.387 -1.4439  0.8724 -1.6426
   19CHL1   C11 1366   3.537   2.281   9.560  0.1522 -0.1861  0.2036
   19CHL1  H11A 1367   3.525   2.391   9.570 -0.2975 -0.3489  1.5313
   19CHL1  H11B 1368   3.435   2.245   9.585 -0.5423  1.2674 -0.4849
   19CHL1    C9 1369   3.642   2.230   9.661  0.3410  0.0823 -0.0611
   19CHL1    H9 1370   3.626   2.120   9.659  0.5994  0.0185  0.9967
   19CHL1   C10 1371   3.613   2.273   9.812 -0.7223 -0.5781 -0.0558
   19CHL1   C19 1372   3.612   2.427   9.831  0.4583 -0.3519  0.2056
   19CHL1  H19A 1373   3.523   2.459   9.772  1.6536  1.1607 -0.7943
   19CHL1  H19B 1374   3.594   2.459   9.936 -0.9822 -3.9345  1.1512
   19CHL1  H19C 1375   3.705   2.473   9.792  0.5607 -0.1106  0.7430
   19CHL1    C1 1376   3.473   2.204   9.858  0.6646 -0.2690  0.4058
   19CHL1   H1A 1377   3.398   2.270   9.810 -1.1449 -3.0730 -0.7730
   19CHL1   H1B 1378   3.471   2.106   9.804  0.4405 -0.0596  0.0314
   19CHL1    C2 1379   3.447   2.205  10.007  0.0517 -0.3817  0.0223
   19CHL1   H2A 1380   3.361   2.136  10.027  0.3844 -0.2860  1.9149
   19CHL1   H2B 1381   3.437   2.311  10.038 -2.7902 -1.0444  1.6274
   19CHL1   C20 1382   3.731   2.325   9.103  0.4531 -0.3172  0.7159
   19CHL1   H20 1383   3.783   2.422   9.117 -0.5413  0.6430 -2.0286
   19CHL1   C21 1384   3.575   2.342   9.093  0.7467  0.5662 -0.4005
   19CHL1  H21A 1385   3.530   2.413   9.166 -0.7773 -0.0871 -0.6766
   19CHL1  H21B 1386   3.542   2.238   9.116  0.7000  0.3691 -1.3739
   19CHL1  H21C 1387   3.561   2.381   8.990  2.1495  0.7316 -0.5327
   19CHL1   C22 1388   3.794   2.248   8.981  0.3307 -0.4564  0.3041
   19CHL1  H22A 1389   3.890   2.199   9.007  0.2894 -0.4690  0.4329
   19CHL1  H22B 1390   3.731   2.160   8.956  1.7157 -1.3072 -0.2507
   19CHL1   C23 1391   3.828   2.342   8.861  0.3477  0.1752  0.4541
   19CHL1  H23A 1392   3.735   2.384   8.818  0.5996  0.6086  0.3313
   19CHL1  H23B 1393   3.903   2.419   8.891  0.5374 -0.0659  0.6035
   19CHL1   C24 1394   3.890   2.263   8.742 -0.4391 -1.1229 -0.7231
   19CHL1  H24A 1395   3.829   2.181   8.698 -1.5130 -0.3848 -0.6469
   19CHL1  H24B 1396   3.920   2.327   8.656  0.6626  0.7883  1.0413
   19CHL1   C25 1397   4.028   2.199   8.771 -0.4412 -0.3147 -0.6509
   19CHL1   H25 1398   4.011   2.118   8.845  0.0680  1.8724  1.9061
   19CHL1   C26 1399   4.076   2.124   8.647 -0.3749 -0.1862  0.3363
   19CHL1  H26A 1400   4.161   2.057   8.676  0.2340 -0.4226 -1.9279
   19CHL1  H26B 1401   3.990   2.071   8.601 -0.4531 -0.4538  0.7883
   19CHL1  H26C 1402   4.116   2.203   8.581  0.8097 -2.5302 -1.8606
   19CHL1   C27 1403   4.133   2.295   8.826  0.1045 -0.8860 -0.7957
   19CHL1  H27A 1404   4.093   2.348   8.915 -1.3558 -1.7332 -0.9267
   19CHL1  H27B 1405   4.229   2.246   8.851 -0.0512 -0.8918 -0.1939
   19CHL1  H27C 1406   4.147   2.371   8.746  0.3732  0.1451  0.2192
   20CHL1    C3 1407   6.451   2.346  10.466  0.3866 -0.1811  0.4175
   20CHL1    H3 1408   6.345   2.380  10.462  0.6555  0.5138 -1.0065
   20CHL1    O3 1409   6.497   2.299  10.589 -0.3836  0.1156 -0.4745
   20CHL1   H3' 1410   6.592   2.295  10.574 -0.1698 -0.7586  1.0183
   20CHL1    C4 1411   6.473   2.226  10.373 -0.8188 -0.3080 -0.4873
   20CHL1   H4A 1412   6.574   2.184  10.390 -0.6691  0.3628  0.3050
   20CHL1   H4B 1413   6.397   2.154  10.408 -0.4171 -1.0858 -1.2067
   20CHL1    C5 1414   6.439   2.266  10.230  0.5182 -0.2786 -0.4622
   20CHL1    C6 1415   6.345   2.199  10.157 -0.1050 -0.1442  0.6642
   20CHL1    H6 1416   6.298   2.110  10.200 -1.0165  0.0750  0.1375
   20CHL1    C7 1417   6.318   2.212  10.010 -0.1328 -0.1239  0.2667
   20CHL1   H7A 1418   6.329   2.113   9.960 -2.0967 -0.0760 -0.2858
   20CHL1   H7B 1419   6.219   2.255   9.984  0.8613  3.5692  2.2808
   20CHL1    C8 1420   6.429   2.297   9.943 -0.0544 -0.1439  0.4051
   20CHL1    H8 1421   6.515   2.231   9.917 -0.9216  0.4263 -4.3187
   20CHL1   C14 1422   6.379   2.356   9.813 -0.1737  0.1441 -0.1511
   20CHL1   H14 1423   6.292   2.417   9.843  1.7488  3.0532 -0.3069
   20CHL1   C15 1424   6.320   2.267   9.703  1.0946  0.3038  0.2063
   20CHL1  H15A 1425   6.383   2.178   9.682  0.2465 -0.3772  0.5491
   20CHL1  H15B 1426   6.218   2.229   9.722  1.0875  0.1623 -0.1125
   20CHL1   C16 1427   6.325   2.348   9.577 -0.2391  0.2483 -0.9816
   20CHL1  H16A 1428   6.379   2.297   9.495  0.7570  0.3582 -0.3980
   20CHL1  H16B 1429   6.226   2.370   9.530 -0.2529 -0.4197 -1.2594
   20CHL1   C17 1430   6.388   2.486   9.612  0.2503 -0.3657  0.3348
   20CHL1   H17 1431   6.315   2.563   9.646  1.2981  0.2018  1.3474
   20CHL1   C13 1432   6.475   2.449   9.740 -0.4441 -0.0656  0.7549
   20CHL1   C18 1433   6.602   2.369   9.699  0.2330 -0.2384 -0.2822
   20CHL1  H18A 1434   6.682   2.438   9.665  1.2055 -1.4967 -0.5693
   20CHL1  H18B 1435   6.647   2.314   9.784  2.4441  0.5750 -0.8886
   20CHL1  H18C 1436   6.591   2.292   9.620 -1.4435 -0.4512  0.1474
   20CHL1   C12 1437   6.511   2.568   9.830  0.1686  0.0193  0.7020
   20CHL1  H12A 1438   6.598   2.622   9.786  0.7030 -1.0051  0.4674
   20CHL1  H12B 1439   6.425   2.637   9.838  0.5061  0.7280 -1.4319
   20CHL1   C11 1440   6.554   2.525   9.964 -0.2156 -0.1883 -0.3140
   20CHL1  H11A 1441   6.652   2.474   9.949  0.0939 -0.2559  1.7248
   20CHL1  H11B 1442   6.574   2.613  10.029 -0.4836 -0.0979 -0.3567
   20CHL1    C9 1443   6.462   2.422  10.033 -0.3978 -0.5022  0.1726
   20CHL1    H9 1444   6.363   2.467  10.055  0.3121  1.7141 -0.9828
   20CHL1   C10 1445   6.520   2.375  10.171  0.3451 -0.5896  0.4045
   20CHL1   C19 1446   6.666   2.321  10.156 -0.0360  0.2345 -0.0498
   20CHL1  H19A 1447   6.693   2.270  10.251 -0.4836 -1.0080 -0.5831
   20CHL1  H19B 1448   6.672   2.242  10.078  0.3399 -0.2363  0.4580
   20CHL1  H19C 1449   6.741   2.400  10.138  0.0345 -0.0539 -1.0732
   20CHL1    C1 1450   6.509   2.496  10.273 -0.2270 -0.2194  0.4312
   20CHL1   H1A 1451   6.574   2.580  10.241 -0.9294  0.1677 -0.0036
   20CHL1   H1B 1452   6.410   2.546  10.261  0.9137  2.1063  0.5417
   20CHL1    C2 1453   6.535   2.464  10.419  0.3292 -0.6919 -0.0164
   20CHL1   H2A 1454   6.521   2.549  10.490  1.3805  1.0338 -1.8375
   20CHL1   H2B 1455   6.640   2.428  10.429  0.4655  0.1062  1.6856
   20CHL1   C20 1456   6.462   2.549   9.494 -0.0697  0.1480  0.3638
   20CHL1   H20 1457   6.565   2.508   9.492 -0.3093 -0.7543  3.9062
   20CHL1   C21 1458   6.481   2.698   9.520 -0.4561  1.0507  0.2555
   20CHL1  H21A 1459   6.545   2.714   9.609 -0.3521  0.5266  0.2722
   20CHL1  H21B 1460   6.384   2.750   9.532 -1.7618 -1.1538 -0.4847
   20CHL1  H21C 1461   6.539   2.746   9.438 -0.8867  1.2226  0.0467
   20CHL1   C22 1462   6.415   2.522   9.350 -0.0684 -0.3605  0.3981
   20CHL1  H22A 1463   6.437   2.419   9.313  2.3806  0.0006  0.7753
   20CHL1  H22B 1464   6.304   2.528   9.357  0.0545 -0.0265  2.0660
   20CHL1   C23 1465   6.465   2.610   9.233  0.1608 -0.3495 -0.1286
   20CHL1  H23A 1466   6.430   2.715   9.245 -1.3090 -1.1229  2.6902
   20CHL1  H23B 1467   6.576   2.601   9.240  0.2627  0.6381 -0.3924
   20CHL1   C24 1468   6.410   2.566   9.095  0.2124 -0.1536 -0.3667
   20CHL1  H24A 1469   6.436   2.461   9.071  1.2147  0.4577 -2.0589
   20CHL1  H24B 1470   6.300   2.575   9.107  0.0012 -0.7654 -1.7572
   20CHL1   C25 1471   6.461   2.668   8.991  0.0765  0.8832 -0.3650
   20CHL1   H25 1472   6.450   2.773   9.026 -0.6830  0.4149  0.8095
   20CHL1   C26 1473   6.607   2.640   8.961  0.6903 -0.0027 -0.3623
   20CHL1  H26A 1474   6.637   2.723   8.893  0.3794 -0.3272 -0.9004
   20CHL1  H26B 1475   6.673   2.644   9.050  0.4683  1.3831 -0.2347
   20CHL1  H26C 1476   6.618   2.545   8.905  0.2951  0.1338 -0.6808
   20CHL1   C27 1477   6.382   2.664   8.865 -0.5268 -0.1542  0.2447
   20CHL1  H27A 1478   6.284   2.705   8.899  0.6038  0.7341  2.5595
   20CHL1  H27B 1479   6.423   2.736   8.792 -3.0461  0.4860 -0.5809
   20CHL1  H27C 1480   6.363   2.563   8.823  0.9131  0.0598 -0.9313
   21CHL1    C3 1481   6.476   4.884  10.278 -0.6647  0.5615  1.2080
   21CHL1    H3 1482   6.571   4.938  10.293  1.4395 -2.6147  0.0092
   21CHL1    O3 1483   6.453   4.817  10.394  0.0078  0.3286 -0.2969
   21CHL1   H3' 1484   6.362   4.788  10.382 -0.2424  1.5606 -1.5141
   21CHL1    C4 1485   6.357   4.974  10.248  0.0434  0.4967 -0.0271
   21CHL1   H4A 1486   6.271   4.904  10.238 -0.5274  1.1364  0.3603
   21CHL1   H4B 1487   6.334   5.030  10.341 -1.0230 -0.5610  0.3487
   21CHL1    C5 1488   6.372   5.055  10.118  0.7503 -0.1744 -0.3291
   21CHL1    C6 1489   6.367   5.184  10.124 -0.0087 -0.2130 -0.1917
   21CHL1    H6 1490   6.355   5.249  10.212 -1.1972 -1.3677  0.5141
   21CHL1    C7 1491   6.371   5.260   9.999 -0.4120  0.1930 -0.0380
   21CHL1   H7A 1492   6.300   5.345  10.007 -0.7162  0.1052 -1.7651
   21CHL1   H7B 1493   6.475   5.297   9.985  0.3914 -2.4630 -1.4141
   21CHL1    C8 1494   6.337   5.173   9.867 -0.2461 -0.2244 -0.3572
   21CHL1    H8 1495   6.229   5.151   9.866 -0.3174  0.1699 -1.5147
   21CHL1   C14 1496   6.366   5.261   9.754  0.0916 -0.1666 -0.0559
   21CHL1   H14 1497   6.476   5.277   9.757  0.2525 -0.0316 -4.2247
   21CHL1   C15 1498   6.298   5.394   9.747  0.5531  0.3184 -0.0554
   21CHL1  H15A 1499   6.192   5.399   9.779  1.1503 -0.4324  2.0968
   21CHL1  H15B 1500   6.357   5.469   9.804  0.7576  1.7872 -2.1251
   21CHL1   C16 1501   6.308   5.426   9.598  0.0483 -0.4289 -0.0199
   21CHL1  H16A 1502   6.207   5.445   9.557  0.4754 -0.5143 -1.1303
   21CHL1  H16B 1503   6.366   5.520   9.597 -0.0329 -0.3683  0.6313
   21CHL1   C17 1504   6.377   5.303   9.522  0.1941  0.0435 -0.2698
   21CHL1   H17 1505   6.487   5.315   9.524  0.3042 -0.8890  2.4897
   21CHL1   C13 1506   6.348   5.187   9.622 -0.0416 -0.4494  0.1783
   21CHL1   C18 1507   6.204   5.149   9.592  0.4119 -1.5057  0.0267
   21CHL1  H18A 1508   6.160   5.079   9.666  0.4544 -0.9540  0.5707
   21CHL1  H18B 1509   6.146   5.243   9.593  2.3807 -0.2528 -0.5297
   21CHL1  H18C 1510   6.199   5.100   9.492 -0.9038  0.0529 -0.6976
   21CHL1   C12 1511   6.438   5.067   9.614  0.9590  0.1362 -0.1210
   21CHL1  H12A 1512   6.428   5.008   9.520  1.0434 -3.0378  1.7854
   21CHL1  H12B 1513   6.541   5.108   9.624  1.0425  0.1127 -0.8686
   21CHL1   C11 1514   6.424   4.974   9.734  0.5790  1.0399  0.1189
   21CHL1  H11A 1515   6.326   4.923   9.728  0.6094  0.7438  1.9577
   21CHL1  H11B 1516   6.508   4.903   9.747 -0.3370 -0.1486 -0.3446
   21CHL1    C9 1517   6.429   5.053   9.871  0.0777  0.3214 -0.0755
   21CHL1    H9 1518   6.530   5.098   9.868 -0.3343  1.2510 -0.2217
   21CHL1   C10 1519   6.406   4.964   9.992  0.2164 -0.0517  0.5312
   21CHL1   C19 1520   6.273   4.879   9.976 -0.1888  0.9408  0.6729
   21CHL1  H19A 1521   6.295   4.814   9.888 -2.7783  1.1185 -0.1553
   21CHL1  H19B 1522   6.251   4.815  10.063 -0.3469  1.5392  1.0727
   21CHL1  H19C 1523   6.188   4.950   9.966 -0.8468 -0.0877 -1.2740
   21CHL1    C1 1524   6.525   4.870  10.030  0.3267 -0.3407 -0.1404
   21CHL1   H1A 1525   6.546   4.805   9.943  1.4601  2.4666 -2.0627
   21CHL1   H1B 1526   6.613   4.938  10.037 -0.4346  0.5417  1.0734
   21CHL1    C2 1527   6.500   4.788  10.156 -0.2704 -0.1672 -0.4297
   21CHL1   H2A 1528   6.593   4.730  10.175 -0.4258 -0.9068 -1.8294
   21CHL1   H2B 1529   6.415   4.717  10.143 -0.6585  0.3244 -0.5825
   21CHL1   C20 1530   6.329   5.296   9.378 -0.8428 -0.6761  0.8065
   21CHL1   H20 1531   6.221   5.274   9.370 -1.1582  1.5220 -1.4947
   21CHL1   C21 1532   6.430   5.211   9.301 -0.3077  0.1830 -0.0217
   21CHL1  H21A 1533   6.431   5.113   9.354 -1.6150  1.0194  1.5799
   21CHL1  H21B 1534   6.537   5.238   9.317 -0.6130  0.0246  2.6442
   21CHL1  H21C 1535   6.393   5.181   9.201  1.0123 -0.1451 -0.4233
   21CHL1   C22 1536   6.320   5.438   9.310  0.1237  0.1229  0.0631
   21CHL1  H22A 1537   6.243   5.494   9.367  0.0442  0.2806 -0.1954
   21CHL1  H22B 1538   6.414   5.497   9.318  0.9226 -1.1753  0.3901
   21CHL1   C23 1539   6.262   5.432   9.167  0.0346 -0.5173 -0.5706
   21CHL1  H23A 1540   6.340   5.387   9.102  1.5166 -1.8927  2.1068
   21CHL1  H23B 1541   6.169   5.371   9.160  0.1758 -0.5799 -2.0781
   21CHL1   C24 1542   6.246   5.575   9.113 -0.2366 -0.1064 -0.4851
   21CHL1  H24A 1543   6.189   5.636   9.186  0.6569  0.0763  0.0697
   21CHL1  H24B 1544   6.345   5.626   9.114 -1.2345  1.8655 -0.6305
   21CHL1   C25 1545   6.183   5.586   8.970 -0.8488 -0.6309 -0.5090
   21CHL1   H25 1546   6.257   5.532   8.908  1.6244  0.8683  1.0446
   21CHL1   C26 1547   6.038   5.528   8.974 -0.3358 -0.2651 -0.2319
   21CHL1  H26A 1548   5.967   5.602   9.018 -2.0175 -1.1739 -1.3458
   21CHL1  H26B 1549   6.001   5.510   8.871  2.1225 -1.2426 -0.9768
   21CHL1  H26C 1550   6.022   5.435   9.032 -1.1242  0.7830  1.2710
   21CHL1   C27 1551   6.187   5.733   8.914  0.0385  0.5998 -0.2724
   21CHL1  H27A 1552   6.140   5.742   8.814  0.0581  0.8310 -0.2588
   21CHL1  H27B 1553   6.143   5.808   8.982  0.4075  2.9096 -2.5313
   21CHL1  H27C 1554   6.292   5.768   8.906  0.1333 -0.2851 -3.7460
   22CHL1    C3 1555   5.822   6.337   9.895  0.4885 -0.8464 -0.3846
   22CHL1    H3 1556   5.755   6.251   9.917  0.9176 -0.8361  1.0477
   22CHL1    O3 1557   5.833   6.417  10.017 -0.2531  0.6228  0.2284
   22CHL1   H3' 1558   5.893   6.485   9.984  1.0012  0.4358  2.0557
   22CHL1    C4 1559   5.958   6.279   9.851  0.2031 -0.1372  0.0848
   22CHL1   H4A 1560   6.043   6.351   9.840  2.3573 -2.7871 -1.4560
   22CHL1   H4B 1561   5.994   6.208   9.928  0.3846 -1.1690 -0.9438
   22CHL1    C5 1562   5.935   6.202   9.720  0.3595  0.3596 -0.0856
   22CHL1    C6 1563   5.958   6.070   9.697  0.2152  0.7005  0.2811
   22CHL1    H6 1564   5.990   6.010   9.783 -2.2016 -1.4789 -0.2702
   22CHL1    C7 1565   5.937   6.007   9.563  0.3163 -0.0131 -0.3170
   22CHL1   H7A 1566   6.020   5.935   9.550 -0.9170 -1.7450  1.1394
   22CHL1   H7B 1567   5.842   5.948   9.563 -0.6169  1.4545 -0.0222
   22CHL1    C8 1568   5.917   6.095   9.438  0.2511 -0.2990  0.4364
   22CHL1    H8 1569   6.013   6.143   9.409  0.0121 -1.3171 -2.1932
   22CHL1   C14 1570   5.850   6.022   9.327  0.5081  0.8217  0.2013
   22CHL1   H14 1571   5.751   5.987   9.364  1.8295 -2.8691  0.5264
   22CHL1   C15 1572   5.906   5.891   9.273  1.0782 -0.5148  0.3345
   22CHL1  H15A 1573   6.017   5.893   9.266  1.0738 -1.3249 -0.0229
   22CHL1  H15B 1574   5.873   5.810   9.342  0.0417 -0.8279 -0.5288
   22CHL1   C16 1575   5.845   5.874   9.134  0.3337  0.2044 -0.3623
   22CHL1  H16A 1576   5.916   5.846   9.053  1.2676 -1.7916  1.1207
   22CHL1  H16B 1577   5.773   5.789   9.137 -0.7428  1.1204  0.3648
   22CHL1   C17 1578   5.756   6.003   9.098 -0.2470  0.0167 -0.5878
   22CHL1   H17 1579   5.650   5.981   9.125  0.2729 -1.0773  0.6355
   22CHL1   C13 1580   5.817   6.108   9.200  0.3719  0.5617 -0.4545
   22CHL1   C18 1581   5.949   6.158   9.139  0.0655 -0.5394 -0.7935
   22CHL1  H18A 1582   6.005   6.074   9.092 -0.8104 -1.6968  0.2076
   22CHL1  H18B 1583   5.924   6.229   9.056  1.9855 -1.7563 -2.4555
   22CHL1  H18C 1584   6.007   6.209   9.218 -0.1219 -0.6935 -0.5584
   22CHL1   C12 1585   5.709   6.211   9.244  0.5536  0.4307 -0.4305
   22CHL1  H12A 1586   5.679   6.277   9.160  0.4718 -2.3949 -2.6648
   22CHL1  H12B 1587   5.618   6.153   9.270  0.3238  0.3428 -1.4204
   22CHL1   C11 1588   5.763   6.288   9.360 -0.8423  0.0998  0.4428
   22CHL1  H11A 1589   5.847   6.347   9.317 -1.2691 -0.8782 -1.8184
   22CHL1  H11B 1590   5.680   6.352   9.398 -1.6315 -0.4241 -0.3726
   22CHL1    C9 1591   5.815   6.206   9.480  0.4121  0.1006 -0.5285
   22CHL1    H9 1592   5.725   6.152   9.516  0.1686  1.9897  1.8546
   22CHL1   C10 1593   5.864   6.289   9.601  0.2827 -0.7522 -0.6501
   22CHL1   C19 1594   5.985   6.382   9.552 -0.1579  0.2961 -0.3843
   22CHL1  H19A 1595   6.041   6.430   9.635  0.8600  0.6057 -1.2409
   22CHL1  H19B 1596   6.056   6.325   9.488  1.5100  1.8601  0.0458
   22CHL1  H19C 1597   5.951   6.464   9.485 -0.8801  0.6563  0.4200
   22CHL1    C1 1598   5.738   6.365   9.663  0.1628  0.4549 -0.8728
   22CHL1   H1A 1599   5.691   6.436   9.592 -2.2154  0.3183  0.5022
   22CHL1   H1B 1600   5.653   6.295   9.672 -0.0586  1.1482  3.3305
   22CHL1    C2 1601   5.761   6.437   9.797 -0.4918 -0.3769  0.0941
   22CHL1   H2A 1602   5.668   6.470   9.847  0.2188  0.9193  0.5813
   22CHL1   H2B 1603   5.824   6.526   9.776 -0.6322  0.1540  1.8090
   22CHL1   C20 1604   5.762   6.043   8.947  0.2031 -0.1110  0.5740
   22CHL1   H20 1605   5.866   6.062   8.912 -0.1805  0.6982 -0.1308
   22CHL1   C21 1606   5.686   6.172   8.918 -0.1786 -0.7216 -0.0597
   22CHL1  H21A 1607   5.659   6.171   8.810 -0.5587  0.1352  0.0225
   22CHL1  H21B 1608   5.750   6.260   8.940  1.1411 -1.6941 -0.0189
   22CHL1  H21C 1609   5.588   6.172   8.971 -0.4525  0.7767 -0.5235
   22CHL1   C22 1610   5.699   5.925   8.868 -0.4446  0.7691  0.4196
   22CHL1  H22A 1611   5.740   5.829   8.906 -1.8637 -0.3486 -0.8238
   22CHL1  H22B 1612   5.591   5.920   8.890 -0.2134 -1.7447  1.2070
   22CHL1   C23 1613   5.731   5.927   8.719  0.1408  0.4518  0.1668
   22CHL1  H23A 1614   5.697   6.020   8.670 -0.3408  1.5760  2.5461
   22CHL1  H23B 1615   5.841   5.935   8.706 -0.3634  1.0654 -4.1946
   22CHL1   C24 1616   5.672   5.815   8.639 -0.1435  0.6340 -0.0456
   22CHL1  H24A 1617   5.563   5.819   8.662 -0.3351 -0.2441 -0.7745
   22CHL1  H24B 1618   5.678   5.830   8.529  2.2956 -1.2288 -0.2193
   22CHL1   C25 1619   5.723   5.669   8.662  0.2112  0.6458  0.2539
   22CHL1   H25 1620   5.725   5.649   8.771  1.7253 -1.1055 -0.0666
   22CHL1   C26 1621   5.626   5.567   8.605  0.5305  0.1808  0.1556
   22CHL1  H26A 1622   5.524   5.592   8.640 -0.0314 -0.9132 -0.6746
   22CHL1  H26B 1623   5.640   5.574   8.495  0.2719 -1.4958  0.0114
   22CHL1  H26C 1624   5.663   5.465   8.629  0.9708  0.2177 -0.3544
   22CHL1   C27 1625   5.866   5.646   8.616 -0.4498 -0.0521 -0.1326
   22CHL1  H27A 1626   5.934   5.721   8.662  1.5273 -0.9957 -1.4465
   22CHL1  H27B 1627   5.903   5.545   8.642 -1.9898 -0.5598  0.1180
   22CHL1  H27C 1628   5.889   5.650   8.507 -1.9981  3.3909 -0.4022
   23CHL1    C3 1629   2.482   0.894  10.182  0.3638  0.5042 -0.7851
   23CHL1    H3 1630   2.372   0.881  10.192  0.4669  0.6923  0.7119
   23CHL1    O3 1631   2.533   0.919  10.312  0.0226  0.6239 -0.7176
   23CHL1   H3' 1632   2.511   1.013  10.314 -0.2305  0.5530 -0.0472
   23CHL1    C4 1633   2.536   0.763  10.118 -0.3192 -1.0152 -0.4470
   23CHL1   H4A 1634   2.647   0.770  10.125 -0.3538 -2.1888  1.6893
   23CHL1   H4B 1635   2.500   0.689  10.192  0.3701 -1.5712 -0.6637
   23CHL1    C5 1636   2.487   0.742   9.973 -0.4893  0.2508  0.3026
   23CHL1    C6 1637   2.426   0.629   9.944 -0.3523 -0.2472  0.5737
   23CHL1    H6 1638   2.417   0.545  10.014 -1.4305 -1.7136 -1.2492
   23CHL1    C7 1639   2.375   0.588   9.805  1.0205 -0.1951  0.1444
   23CHL1   H7A 1640   2.408   0.484   9.785 -1.0533 -0.8883  0.1835
   23CHL1   H7B 1641   2.265   0.599   9.808  0.9588 -1.0313  2.0468
   23CHL1    C8 1642   2.439   0.695   9.703 -0.0821  0.6334 -0.1736
   23CHL1    H8 1643   2.546   0.665   9.695  0.0303  1.4812 -2.5341
   23CHL1   C14 1644   2.377   0.672   9.560  0.1137  0.3173 -0.0128
   23CHL1   H14 1645   2.270   0.702   9.564  0.1738  0.3479  1.9831
   23CHL1   C15 1646   2.370   0.532   9.499 -0.4978  0.6168 -0.1545
   23CHL1  H15A 1647   2.462   0.477   9.527 -0.5205 -0.6429 -2.4211
   23CHL1  H15B 1648   2.280   0.482   9.539  0.7805  0.3648  2.5344
   23CHL1   C16 1649   2.356   0.561   9.341 -0.3831 -0.0216 -0.0801
   23CHL1  H16A 1650   2.440   0.511   9.289  0.5983  2.7468 -1.2001
   23CHL1  H16B 1651   2.251   0.533   9.319 -0.7899  2.2100 -1.0448
   23CHL1   C17 1652   2.378   0.712   9.329 -0.6709  0.3741  0.0677
   23CHL1   H17 1653   2.274   0.750   9.328 -0.0572  2.1106  0.2997
   23CHL1   C13 1654   2.441   0.761   9.454 -0.1377 -0.2853 -0.7562
   23CHL1   C18 1655   2.599   0.752   9.446  0.4952 -0.2838 -1.1044
   23CHL1  H18A 1656   2.626   0.651   9.409  1.0002  0.5934 -3.2459
   23CHL1  H18B 1657   2.624   0.836   9.377  0.8766  0.4746 -0.0514
   23CHL1  H18C 1658   2.640   0.762   9.548 -1.7755 -2.8596  0.1380
   23CHL1   C12 1659   2.406   0.909   9.496 -0.1200 -0.5580  0.4929
   23CHL1  H12A 1660   2.441   0.979   9.418  1.9906  0.3093  2.1654
   23CHL1  H12B 1661   2.296   0.916   9.480  0.2400 -0.0287 -2.0043
   23CHL1   C11 1662   2.455   0.943   9.634  0.3849 -0.2071 -0.1030
   23CHL1  H11A 1663   2.565   0.949   9.623  0.4920 -1.4734  0.3139
   23CHL1  H11B 1664   2.430   1.044   9.673  1.1758 -0.1088  0.1516
   23CHL1    C9 1665   2.422   0.839   9.748  0.2380  0.6105  0.1808
   23CHL1    H9 1666   2.315   0.852   9.775  0.4064  2.3875  0.0440
   23CHL1   C10 1667   2.498   0.866   9.883 -0.2321  0.6415  0.5110
   23CHL1   C19 1668   2.648   0.884   9.845 -0.6211 -0.4251  0.4113
   23CHL1  H19A 1669   2.708   0.884   9.938 -3.5940  2.2554  2.4173
   23CHL1  H19B 1670   2.691   0.805   9.780  1.8376  2.0090 -1.0478
   23CHL1  H19C 1671   2.665   0.983   9.797 -2.8072  0.9448  2.3597
   23CHL1    C1 1672   2.450   0.994   9.953  0.1929  0.1862  0.0945
   23CHL1   H1A 1673   2.469   1.085   9.892  2.8815 -2.1734 -2.7659
   23CHL1   H1B 1674   2.341   0.985   9.973  0.8077 -2.4469  2.7736
   23CHL1    C2 1675   2.517   1.015  10.086 -0.1311  0.6930 -0.4165
   23CHL1   H2A 1676   2.492   1.113  10.131 -0.9984  0.2234  0.1283
   23CHL1   H2B 1677   2.628   1.023  10.078 -0.0220 -0.2788  0.1140
   23CHL1   C20 1678   2.443   0.757   9.194 -0.0204  0.7327  0.2831
   23CHL1   H20 1679   2.545   0.712   9.196  1.2450  3.3819 -2.4506
   23CHL1   C21 1680   2.453   0.913   9.161  0.2774 -0.7659  0.8914
   23CHL1  H21A 1681   2.382   0.971   9.224  1.5063  2.1610 -0.3924
   23CHL1  H21B 1682   2.438   0.935   9.053 -0.6883 -0.8693  0.9929
   23CHL1  H21C 1683   2.554   0.937   9.200  1.0046  0.1967 -1.5531
   23CHL1   C22 1684   2.357   0.693   9.080 -0.2583 -0.2243 -0.4434
   23CHL1  H22A 1685   2.413   0.687   8.984  0.0694  0.4013 -0.2875
   23CHL1  H22B 1686   2.354   0.583   9.100 -1.8271  0.0791  1.1700
   23CHL1   C23 1687   2.219   0.751   9.048 -0.0688 -0.2470 -0.2738
   23CHL1  H23A 1688   2.152   0.729   9.134  0.3913  2.0205  0.7045
   23CHL1  H23B 1689   2.227   0.862   9.048  0.4772 -0.2820 -0.8859
   23CHL1   C24 1690   2.146   0.701   8.924  0.8433  0.7384 -0.5872
   23CHL1  H24A 1691   2.146   0.590   8.931 -2.4723  0.7901  1.5006
   23CHL1  H24B 1692   2.042   0.736   8.937 -0.2967 -2.2648 -1.2447
   23CHL1   C25 1693   2.193   0.749   8.793 -0.2993 -0.3315  0.0205
   23CHL1   H25 1694   2.295   0.706   8.788 -0.7431 -1.4871  0.5812
   23CHL1   C26 1695   2.103   0.711   8.685 -0.5252  0.4377 -0.1210
   23CHL1  H26A 1696   2.093   0.600   8.687  2.3020  0.1784  1.7210
   23CHL1  H26B 1697   2.000   0.750   8.700 -0.0931  1.3008  0.6214
   23CHL1  H26C 1698   2.154   0.737   8.590 -1.9444 -0.5001 -1.1677
   23CHL1   C27 1699   2.189   0.901   8.782  0.9954 -0.4848 -0.0989
   23CHL1  H27A 1700   2.082   0.927   8.791  1.7912  3.0991 -0.4693
   23CHL1  H27B 1701   2.249   0.950   8.862 -1.8094  2.6971  0.1194
   23CHL1  H27C 1702   2.226   0.926   8.681  1.1792 -0.1693  0.0444
   24CHL1    C3 1703   3.659   1.671  10.099 -0.6184  0.8048  0.5263
   24CHL1    H3 1704   3.742   1.606  10.133  1.6638  2.5676 -1.4448
   24CHL1    O3 1705   3.594   1.712  10.215 -0.0285  1.0033  0.0388
   24CHL1   H3' 1706   3.665   1.721  10.279  1.7253  0.0109 -1.6900
   24CHL1    C4 1707   3.707   1.791  10.017  0.1919 -0.7431  0.6249
   24CHL1   H4A 1708   3.618   1.852   9.987  2.2144  1.8963 -0.1596
   24CHL1   H4B 1709   3.775   1.856  10.075  0.4786 -2.1475  1.8737
   24CHL1    C5 1710   3.769   1.750   9.885  0.0528  0.1952  0.3226
   24CHL1    C6 1711   3.891   1.793   9.858  0.1750 -0.4909  0.2278
   24CHL1    H6 1712   3.943   1.857   9.931 -0.0530 -0.0661  0.0237
   24CHL1    C7 1713   3.954   1.770   9.724 -0.1373  0.4884 -0.0384
   24CHL1   H7A 1714   4.003   1.867   9.704  2.5268 -0.7494  0.2194
   24CHL1   H7B 1715   4.030   1.689   9.729 -0.7537 -0.2347 -1.8158
   24CHL1    C8 1716   3.848   1.737   9.610 -0.6220  0.4768  0.1200
   24CHL1    H8 1717   3.791   1.832   9.599 -1.2350  0.2058  0.8872
   24CHL1   C14 1718   3.907   1.698   9.476 -0.5895  0.4499  0.6257
   24CHL1   H14 1719   3.963   1.604   9.492  3.2640  2.8426  2.2032
   24CHL1   C15 1720   4.005   1.800   9.418 -0.1551  0.2250  0.4223
   24CHL1  H15A 1721   3.976   1.906   9.437 -1.3742  0.3167 -1.8459
   24CHL1  H15B 1722   4.107   1.793   9.460  0.4677 -0.5810 -1.2029
   24CHL1   C16 1723   3.996   1.774   9.272 -0.1167 -0.9071 -0.6536
   24CHL1  H16A 1724   3.937   1.858   9.230  0.3353 -0.6477 -0.7652
   24CHL1  H16B 1725   4.093   1.772   9.219 -0.5201  0.8715 -1.5022
   24CHL1   C17 1726   3.909   1.645   9.250 -0.3760  0.5608  0.1795
   24CHL1   H17 1727   3.983   1.566   9.274 -3.2737 -2.6566 -1.1799
   24CHL1   C13 1728   3.813   1.656   9.369 -0.3579 -0.2993 -0.1307
   24CHL1   C18 1729   3.702   1.751   9.328  0.5233 -0.6989  0.6977
   24CHL1  H18A 1730   3.730   1.839   9.266  1.2482 -1.7453 -0.4701
   24CHL1  H18B 1731   3.628   1.702   9.261  0.7084  0.2988 -0.2644
   24CHL1  H18C 1732   3.639   1.781   9.415 -2.8748 -2.1416 -1.1732
   24CHL1   C12 1733   3.728   1.537   9.417 -0.3651  0.9063  0.1784
   24CHL1  H12A 1734   3.645   1.528   9.343 -0.4729  0.4151  0.3575
   24CHL1  H12B 1735   3.794   1.448   9.416  0.1396  1.2845 -1.4405
   24CHL1   C11 1736   3.667   1.554   9.556  0.2211 -0.0246  1.0263
   24CHL1  H11A 1737   3.575   1.613   9.535  0.0461 -1.2211 -1.8022
   24CHL1  H11B 1738   3.629   1.456   9.593 -1.9429  0.5525  0.3794
   24CHL1    C9 1739   3.755   1.621   9.664 -0.0185 -0.6612  0.1435
   24CHL1    H9 1740   3.831   1.546   9.695  0.0567 -0.4488  0.4839
   24CHL1   C10 1741   3.673   1.669   9.791 -0.7025 -0.4144  0.0640
   24CHL1   C19 1742   3.557   1.752   9.740  0.5322 -0.6731 -0.2811
   24CHL1  H19A 1743   3.509   1.818   9.815  2.5895 -0.2829  0.7327
   24CHL1  H19B 1744   3.594   1.824   9.663 -0.2001  0.0046 -0.0102
   24CHL1  H19C 1745   3.479   1.689   9.691 -3.0394  1.2054  2.6998
   24CHL1    C1 1746   3.625   1.548   9.877 -0.4932 -0.1292  0.2587
   24CHL1   H1A 1747   3.551   1.480   9.830  1.9773 -1.5920 -1.7207
   24CHL1   H1B 1748   3.716   1.488   9.902  0.9721  1.2683 -1.5245
   24CHL1    C2 1749   3.565   1.590  10.013  0.3559 -0.4337 -0.6867
   24CHL1   H2A 1750   3.531   1.500  10.069 -0.2376  0.4810  0.4492
   24CHL1   H2B 1751   3.470   1.645   9.993  1.1734  0.3587 -2.4914
   24CHL1   C20 1752   3.858   1.632   9.110 -0.0518  0.7037  0.1274
   24CHL1   H20 1753   3.793   1.719   9.085  0.0010  0.5704 -0.4808
   24CHL1   C21 1754   3.787   1.497   9.092  0.3974 -0.2561  0.1929
   24CHL1  H21A 1755   3.766   1.478   8.985 -0.7229 -2.6489  0.8077
   24CHL1  H21B 1756   3.685   1.503   9.136 -0.3058 -0.7488 -1.3229
   24CHL1  H21C 1757   3.856   1.415   9.121  3.4340  1.1943 -2.6600
   24CHL1   C22 1758   3.969   1.638   9.006  0.0040 -0.3313 -0.3680
   24CHL1  H22A 1759   4.039   1.719   9.034  1.5880 -1.5119 -0.8701
   24CHL1  H22B 1760   4.029   1.545   9.005  1.1484  0.3880  0.8321
   24CHL1   C23 1761   3.922   1.670   8.859 -0.0208 -0.2988 -0.4590
   24CHL1  H23A 1762   3.851   1.590   8.829 -3.8675  2.3609  1.1190
   24CHL1  H23B 1763   3.875   1.770   8.848 -0.3167 -0.4819 -0.8697
   24CHL1   C24 1764   4.042   1.664   8.764 -0.1385  0.6846  0.5612
   24CHL1  H24A 1765   4.130   1.717   8.807 -0.1813  2.2858 -1.2292
   24CHL1  H24B 1766   4.072   1.558   8.750 -1.2096  0.6585 -1.9574
   24CHL1   C25 1767   4.032   1.733   8.624  0.7044  0.4819 -0.0905
   24CHL1   H25 1768   4.019   1.842   8.644 -2.2541 -0.3262  2.7045
   24CHL1   C26 1769   4.164   1.717   8.546 -0.4427  0.0988  0.6338
   24CHL1  H26A 1770   4.175   1.768   8.448  2.4727  0.0335  0.8806
   24CHL1  H26B 1771   4.256   1.735   8.606  0.1641 -0.7707 -0.0192
   24CHL1  H26C 1772   4.170   1.611   8.513 -4.7199 -0.2905  0.8010
   24CHL1   C27 1773   3.909   1.673   8.542 -0.1743 -0.2972 -0.8275
   24CHL1  H27A 1774   3.899   1.735   8.450 -1.3564  0.6027 -0.1049
   24CHL1  H27B 1775   3.930   1.567   8.513  2.0394 -0.9068  2.6938
   24CHL1  H27C 1776   3.815   1.677   8.601  0.0918 -0.4853 -0.3878
   25CHL1    C3 1777   5.021   3.616  10.289 -0.4001  0.1040  0.1829
   25CHL1    H3 1778   5.048   3.724  10.279 -2.2046  0.5812  0.1819
   25CHL1    O3 1779   5.040   3.592  10.428  0.4296  0.3929 -0.3442
   25CHL1   H3' 1780   5.135   3.583  10.440  0.3752  0.1437 -0.0951
   25CHL1    C4 1781   4.881   3.593  10.244  0.0958  0.3184 -0.4154
   25CHL1   H4A 1782   4.843   3.494  10.276  1.9614 -0.5235 -0.7430
   25CHL1   H4B 1783   4.809   3.658  10.297  1.9212  2.4640 -0.4640
   25CHL1    C5 1784   4.865   3.609  10.094 -0.2282 -0.6278 -0.9084
   25CHL1    C6 1785   4.777   3.683  10.040  0.2372 -0.3532 -0.3243
   25CHL1    H6 1786   4.707   3.735  10.106  0.3201 -0.6120 -0.0320
   25CHL1    C7 1787   4.753   3.692   9.896 -0.1310 -0.0530 -0.3066
   25CHL1   H7A 1788   4.647   3.702   9.865 -0.7579  0.5467  1.9744
   25CHL1   H7B 1789   4.802   3.791   9.878 -0.4592  0.3610  1.0321
   25CHL1    C8 1790   4.830   3.588   9.806 -0.2609 -0.7141 -0.4057
   25CHL1    H8 1791   4.771   3.495   9.819 -3.8025  1.5025 -0.0250
   25CHL1   C14 1792   4.836   3.632   9.665  0.6246  0.0449 -0.0243
   25CHL1   H14 1793   4.900   3.722   9.661  0.8674 -0.0880  0.8324
   25CHL1   C15 1794   4.707   3.678   9.587  0.2007  0.0729 -0.0908
   25CHL1  H15A 1795   4.621   3.620   9.628  0.1249  0.3636  0.1632
   25CHL1  H15B 1796   4.683   3.784   9.607  0.8907  0.2900 -0.3915
   25CHL1   C16 1797   4.736   3.662   9.440  0.2437 -0.0312  0.1467
   25CHL1  H16A 1798   4.642   3.636   9.386 -0.5775  2.2218  0.4597
   25CHL1  H16B 1799   4.764   3.760   9.396 -1.3420  1.3253  2.0891
   25CHL1   C17 1800   4.871   3.590   9.436 -0.5624  0.1147  0.3973
   25CHL1   H17 1801   4.947   3.671   9.435  1.1505 -1.4169  2.4645
   25CHL1   C13 1802   4.900   3.525   9.577  0.1189  0.2005  0.1709
   25CHL1   C18 1803   4.819   3.392   9.582  0.5660 -0.8817  0.1501
   25CHL1  H18A 1804   4.712   3.417   9.566  0.9686  0.2302 -0.8302
   25CHL1  H18B 1805   4.849   3.319   9.503  0.8645 -0.1233 -0.4385
   25CHL1  H18C 1806   4.828   3.338   9.679  0.2587  1.1554  1.3332
   25CHL1   C12 1807   5.043   3.514   9.614  0.4747 -0.9519 -0.0187
   25CHL1  H12A 1808   5.106   3.439   9.562  0.2557 -0.4605 -0.9889
   25CHL1  H12B 1809   5.092   3.613   9.606  2.7344 -1.7516  2.9476
   25CHL1   C11 1810   5.048   3.474   9.761 -0.1463  0.6457 -0.4390
   25CHL1  H11A 1811   5.009   3.370   9.764  0.6640  0.2656 -2.3282
   25CHL1  H11B 1812   5.153   3.453   9.791 -0.4140  1.6969  1.2865
   25CHL1    C9 1813   4.971   3.563   9.862  0.2306  0.0642  0.3027
   25CHL1    H9 1814   5.015   3.663   9.843 -1.5389  0.9111  0.5841
   25CHL1   C10 1815   4.972   3.533  10.010  0.2782 -0.2578 -0.0979
   25CHL1   C19 1816   4.937   3.380  10.027 -0.1840 -0.0061  0.0639
   25CHL1  H19A 1817   4.841   3.350   9.981 -0.6288  1.2689  0.1228
   25CHL1  H19B 1818   5.023   3.324   9.985 -0.6435 -0.0789 -0.7993
   25CHL1  H19C 1819   4.933   3.351  10.134 -0.9114  0.4885  0.1796
   25CHL1    C1 1820   5.114   3.566  10.056 -0.1868 -0.3903 -0.3357
   25CHL1   H1A 1821   5.195   3.515  10.000 -1.5769 -3.2564  0.1503
   25CHL1   H1B 1822   5.134   3.672  10.032  0.7030 -0.1638  1.3156
   25CHL1    C2 1823   5.129   3.544  10.208 -0.4657 -0.1545 -0.2907
   25CHL1   H2A 1824   5.231   3.568  10.243 -0.2792 -0.9323 -0.2898
   25CHL1   H2B 1825   5.122   3.433  10.215  1.5411 -0.2559  0.4225
   25CHL1   C20 1826   4.882   3.502   9.307  0.2857  0.5398  0.1823
   25CHL1   H20 1827   4.807   3.420   9.305  0.7478  0.1041 -3.2156
   25CHL1   C21 1828   5.019   3.442   9.299 -0.3919 -0.0180  0.6586
   25CHL1  H21A 1829   5.039   3.382   9.207 -0.1131  0.6161  0.3048
   25CHL1  H21B 1830   5.032   3.369   9.382 -0.4225 -0.1025  0.5897
   25CHL1  H21C 1831   5.090   3.526   9.315 -0.3685 -0.2270  1.7153
   25CHL1   C22 1832   4.864   3.578   9.168 -0.0030  0.9402 -0.1823
   25CHL1  H22A 1833   4.821   3.679   9.187 -1.3630  0.2928  0.2237
   25CHL1  H22B 1834   4.953   3.594   9.104 -0.3881 -0.6981 -1.1396
   25CHL1   C23 1835   4.761   3.510   9.085 -0.1062 -0.7184  0.1361
   25CHL1  H23A 1836   4.677   3.470   9.147  1.0003 -1.3054  1.2714
   25CHL1  H23B 1837   4.727   3.578   9.004 -1.1672 -1.0155  0.3241
   25CHL1   C24 1838   4.822   3.385   9.014  0.1977 -0.8543 -0.3761
   25CHL1  H24A 1839   4.917   3.422   8.970 -0.8026  1.1062 -0.9900
   25CHL1  H24B 1840   4.852   3.310   9.090  0.9005 -1.1475 -0.9465
   25CHL1   C25 1841   4.735   3.329   8.901 -0.2072  0.7733  0.1142
   25CHL1   H25 1842   4.687   3.415   8.849 -0.9736  0.3443  0.1061
   25CHL1   C26 1843   4.819   3.258   8.796  0.3174  0.3198 -0.6402
   25CHL1  H26A 1844   4.907   3.202   8.836  1.1332 -0.8945 -3.8880
   25CHL1  H26B 1845   4.753   3.190   8.737 -0.2578 -0.4030  0.8271
   25CHL1  H26C 1846   4.865   3.334   8.729 -0.0330 -0.2903 -1.5786
   25CHL1   C27 1847   4.630   3.239   8.964  0.0911 -0.3495  0.6032
   25CHL1  H27A 1848   4.674   3.155   9.021 -0.9531 -0.6691  0.9467
   25CHL1  H27B 1849   4.581   3.301   9.043 -0.1509 -0.3955  0.4905
   25CHL1  H27C 1850   4.553   3.210   8.890  0.9748  0.0261 -0.4725
   26CHL1    C3 1851   6.563   5.867  10.176 -0.1507  0.5344  0.0784
   26CHL1    H3 1852   6.512   5.965  10.181 -0.0606  0.7374 -2.3087
   26CHL1    O3 1853   6.575   5.812  10.306  0.8105  0.3597  0.6091
   26CHL1   H3' 1854   6.604   5.880  10.367  3.8155 -0.9576  0.7541
   26CHL1    C4 1855   6.484   5.764  10.096  0.0949 -0.5083  0.1398
   26CHL1   H4A 1856   6.532   5.667  10.119 -0.9414 -1.0087  0.2372
   26CHL1   H4B 1857   6.384   5.750  10.144 -1.0481 -1.1242 -2.3504
   26CHL1    C5 1858   6.471   5.806   9.953  0.2853 -0.0458  0.2171
   26CHL1    C6 1859   6.346   5.813   9.901 -0.3652 -0.2359 -0.4605
   26CHL1    H6 1860   6.261   5.804   9.970 -1.5606  0.9002 -1.7605
   26CHL1    C7 1861   6.325   5.846   9.752  0.1238 -0.0525  0.4462
   26CHL1   H7A 1862   6.247   5.794   9.692  0.2854  0.2299 -0.0084
   26CHL1   H7B 1863   6.313   5.956   9.750  0.6782  0.0142 -2.7738
   26CHL1    C8 1864   6.462   5.838   9.667  0.1216  0.4598 -0.4911
   26CHL1    H8 1865   6.475   5.728   9.654  0.1564  0.5688 -1.4187
   26CHL1   C14 1866   6.450   5.904   9.526  0.6664 -0.1871  0.4209
   26CHL1   H14 1867   6.419   6.010   9.542  3.1100  0.7075 -0.4518
   26CHL1   C15 1868   6.344   5.855   9.428  0.2186  0.0789 -0.2480
   26CHL1  H15A 1869   6.334   5.744   9.430 -2.0290  0.2859  1.9408
   26CHL1  H15B 1870   6.247   5.898   9.462 -0.3934 -0.9415 -0.6520
   26CHL1   C16 1871   6.382   5.907   9.292  0.5791  1.0933 -0.6352
   26CHL1  H16A 1872   6.397   5.825   9.218  0.9505 -0.0177  0.6572
   26CHL1  H16B 1873   6.316   5.984   9.247  0.0824  0.7831 -0.4473
   26CHL1   C17 1874   6.527   5.967   9.313 -0.0129 -0.1639 -0.7420
   26CHL1   H17 1875   6.515   6.077   9.325  0.3564 -0.2554  0.4610
   26CHL1   C13 1876   6.583   5.909   9.448 -0.1571 -0.1655 -0.1277
   26CHL1   C18 1877   6.646   5.767   9.429 -0.0814 -0.0541 -0.2731
   26CHL1  H18A 1878   6.630   5.704   9.519  0.1504 -1.5651 -1.2755
   26CHL1  H18B 1879   6.585   5.720   9.349 -0.0986 -1.0244  0.3125
   26CHL1  H18C 1880   6.749   5.753   9.390 -1.1425 -2.4438 -2.3994
   26CHL1   C12 1881   6.689   5.981   9.528 -0.2206  0.1438 -0.2359
   26CHL1  H12A 1882   6.793   5.971   9.492 -0.6903 -1.8504 -1.0998
   26CHL1  H12B 1883   6.657   6.085   9.548 -0.0670 -0.0163  0.8712
   26CHL1   C11 1884   6.713   5.923   9.664 -0.4460  0.5872  0.0090
   26CHL1  H11A 1885   6.761   5.824   9.646 -1.0434  0.4080 -0.6304
   26CHL1  H11B 1886   6.790   5.985   9.715  0.1148 -0.9357  1.0613
   26CHL1    C9 1887   6.582   5.904   9.746  0.2710  0.6406  0.3121
   26CHL1    H9 1888   6.553   6.009   9.764 -0.2049  0.9982 -2.3266
   26CHL1   C10 1889   6.607   5.829   9.883 -0.0721  0.4436  0.2625
   26CHL1   C19 1890   6.686   5.693   9.868  0.4625 -0.7212  0.5847
   26CHL1  H19A 1891   6.692   5.660   9.974  1.8605  0.9573  1.0419
   26CHL1  H19B 1892   6.643   5.614   9.803  2.0629 -2.1758  1.2645
   26CHL1  H19C 1893   6.791   5.708   9.837  0.7401 -2.1516  0.7929
   26CHL1    C1 1894   6.694   5.924   9.969  0.4229  0.4260 -0.5908
   26CHL1   H1A 1895   6.796   5.940   9.927  0.4001  1.1958 -0.3559
   26CHL1   H1B 1896   6.648   6.024   9.960  2.1600  1.2564 -0.4856
   26CHL1    C2 1897   6.702   5.890  10.120 -0.1553  0.4896 -0.5450
   26CHL1   H2A 1898   6.749   5.974  10.174 -1.7583  1.2593 -0.3114
   26CHL1   H2B 1899   6.752   5.791  10.126  0.1887  0.7646  1.2111
   26CHL1   C20 1900   6.613   5.966   9.192 -0.8229 -0.3966  0.1590
   26CHL1   H20 1901   6.652   5.868   9.156  0.3204  0.0286  0.2192
   26CHL1   C21 1902   6.735   6.047   9.224 -0.1750  0.6327 -0.0065
   26CHL1  H21A 1903   6.809   5.992   9.286  0.5747  0.1931 -1.2850
   26CHL1  H21B 1904   6.695   6.132   9.283  1.0079 -0.0967  1.9095
   26CHL1  H21C 1905   6.792   6.100   9.145  2.1406 -0.8721  0.5940
   26CHL1   C22 1906   6.545   6.028   9.072  0.1660 -0.4319 -0.7909
   26CHL1  H22A 1907   6.461   5.960   9.046 -0.3975  0.8476 -2.4072
   26CHL1  H22B 1908   6.515   6.132   9.096 -0.6693 -1.1902  1.6353
   26CHL1   C23 1909   6.629   6.049   8.949  0.3156 -0.1266  0.1937
   26CHL1  H23A 1910   6.724   6.106   8.961 -0.8241  2.0361 -0.9623
   26CHL1  H23B 1911   6.659   5.945   8.923  0.3482 -0.4598  1.5491
   26CHL1   C24 1912   6.553   6.103   8.825 -0.3750 -0.3183  0.0579
   26CHL1  H24A 1913   6.457   6.047   8.824 -1.1447  0.9857  0.8695
   26CHL1  H24B 1914   6.516   6.205   8.844  0.7353  0.5035 -2.0302
   26CHL1   C25 1915   6.619   6.090   8.683 -0.5315 -0.4299  0.6155
   26CHL1   H25 1916   6.661   5.987   8.682  0.7630  0.0854  1.1461
   26CHL1   C26 1917   6.516   6.109   8.574  0.5384  0.1592 -0.4280
   26CHL1  H26A 1918   6.448   6.021   8.570  0.4875 -0.0075  3.0258
   26CHL1  H26B 1919   6.456   6.200   8.594  1.4862  0.5845  0.4888
   26CHL1  H26C 1920   6.557   6.127   8.472  0.1638 -0.9352 -0.7795
   26CHL1   C27 1921   6.729   6.193   8.672  0.1327  0.1168  0.1408
   26CHL1  H27A 1922   6.781   6.179   8.575  0.2688 -1.5353  0.4346
   26CHL1  H27B 1923   6.678   6.291   8.663  0.5203  0.2466 -0.6538
   26CHL1  H27C 1924   6.794   6.192   8.762  0.2116 -1.7397  0.0818
   27CHL1    C3 1925   5.730   3.416  10.317  0.2637  0.7274 -0.2312
   27CHL1    H3 1926   5.722   3.527  10.318 -0.4883  0.6715  0.8468
   27CHL1    O3 1927   5.742   3.371  10.450  0.6517 -0.3501 -0.1912
   27CHL1   H3' 1928   5.784   3.285  10.461  2.0597  0.3906  0.3697
   27CHL1    C4 1929   5.598   3.358  10.261 -0.0350 -0.1273  0.1575
   27CHL1   H4A 1930   5.598   3.249  10.285 -1.7816 -0.7443 -2.4969
   27CHL1   H4B 1931   5.510   3.392  10.320  0.5623 -0.1788  1.0871
   27CHL1    C5 1932   5.598   3.367  10.108  0.2267 -0.0576  0.0751
   27CHL1    C6 1933   5.498   3.440  10.058  0.1623 -1.2733 -0.2532
   27CHL1    H6 1934   5.416   3.470  10.126  0.9217 -0.1693  0.1942
   27CHL1    C7 1935   5.485   3.477   9.914 -0.4797 -0.5051 -0.4777
   27CHL1   H7A 1936   5.381   3.467   9.876 -1.0965 -0.5892  1.1881
   27CHL1   H7B 1937   5.514   3.584   9.904  2.3077 -0.8262  3.1079
   27CHL1    C8 1938   5.570   3.385   9.829  0.2065 -0.2270  0.2218
   27CHL1    H8 1939   5.525   3.284   9.837 -2.1009  0.6108 -1.4374
   27CHL1   C14 1940   5.568   3.436   9.681 -0.7351  0.1243 -0.1971
   27CHL1   H14 1941   5.612   3.538   9.686  2.8355 -1.3743  0.5622
   27CHL1   C15 1942   5.438   3.460   9.603 -0.1953  0.1852 -0.0894
   27CHL1  H15A 1943   5.368   3.376   9.620  0.6771 -0.8599 -1.6074
   27CHL1  H15B 1944   5.390   3.559   9.625  1.2494  1.2770 -1.7288
   27CHL1   C16 1945   5.487   3.461   9.461 -0.6394 -0.1103 -0.1665
   27CHL1  H16A 1946   5.431   3.399   9.389  1.3109 -0.6653 -1.2386
   27CHL1  H16B 1947   5.479   3.567   9.428 -1.6705 -0.8585 -2.4149
   27CHL1   C17 1948   5.635   3.427   9.451 -0.4823 -0.4034 -0.8142
   27CHL1   H17 1949   5.689   3.524   9.455 -1.8330  0.5071 -3.4269
   27CHL1   C13 1950   5.662   3.351   9.585 -1.0523  0.2365  0.9111
   27CHL1   C18 1951   5.609   3.200   9.576 -0.0730 -0.6559 -0.4302
   27CHL1  H18A 1952   5.607   3.150   9.675 -1.0256 -0.0555 -0.1431
   27CHL1  H18B 1953   5.502   3.221   9.554 -0.1508  0.7413  1.1471
   27CHL1  H18C 1954   5.655   3.136   9.498 -2.1884 -1.5851 -0.9712
   27CHL1   C12 1955   5.809   3.358   9.638 -0.5249  0.1383  0.2855
   27CHL1  H12A 1956   5.883   3.299   9.580 -2.7599  0.8747 -3.4813
   27CHL1  H12B 1957   5.832   3.466   9.633 -3.2139  0.7354 -0.0163
   27CHL1   C11 1958   5.817   3.304   9.788  0.3688 -0.3491 -0.3965
   27CHL1  H11A 1959   5.810   3.195   9.772  0.8052 -0.2508 -1.2565
   27CHL1  H11B 1960   5.921   3.318   9.823  0.8739  0.2219 -2.0493
   27CHL1    C9 1961   5.713   3.370   9.885 -0.1509  0.2070  0.5663
   27CHL1    H9 1962   5.738   3.478   9.880 -0.7887  0.4433  2.3152
   27CHL1   C10 1963   5.720   3.324  10.026 -0.4086 -0.2960  0.1795
   27CHL1   C19 1964   5.725   3.162  10.036  0.4587  0.2122 -0.5601
   27CHL1  H19A 1965   5.815   3.124   9.985 -0.4187 -1.4438 -0.9030
   27CHL1  H19B 1966   5.731   3.138  10.144 -0.6129 -1.6897 -0.9106
   27CHL1  H19C 1967   5.627   3.123  10.001  0.5973 -0.0912 -0.6111
   27CHL1    C1 1968   5.856   3.371  10.094  0.9610 -0.0776  0.0215
   27CHL1   H1A 1969   5.942   3.322  10.044 -0.3239 -1.6671 -0.6585
   27CHL1   H1B 1970   5.858   3.478  10.063  3.5065  0.1831  0.9345
   27CHL1    C2 1971   5.858   3.370  10.242  0.2258  0.2945 -0.6094
   27CHL1   H2A 1972   5.938   3.436  10.282 -0.9540  1.3416  0.0500
   27CHL1   H2B 1973   5.876   3.268  10.284  1.3081  1.1419  1.0526
   27CHL1   C20 1974   5.672   3.365   9.313  0.2473 -0.0089  0.0549
   27CHL1   H20 1975   5.620   3.269   9.295 -2.2318  1.1659  0.6986
   27CHL1   C21 1976   5.823   3.333   9.312  0.3881  0.1377 -0.3059
   27CHL1  H21A 1977   5.859   3.323   9.207 -1.9080 -0.6379 -1.0497
   27CHL1  H21B 1978   5.847   3.247   9.378  0.1551 -0.7471 -1.3656
   27CHL1  H21C 1979   5.880   3.421   9.348 -1.2152  1.2961 -0.5217
   27CHL1   C22 1980   5.634   3.452   9.196 -0.3595  0.4591  0.6109
   27CHL1  H22A 1981   5.531   3.493   9.209  0.2690  1.6779  1.8284
   27CHL1  H22B 1982   5.700   3.539   9.179  0.2775 -0.9811 -5.0367
   27CHL1   C23 1983   5.619   3.363   9.060  0.1790 -0.2620  0.2535
   27CHL1  H23A 1984   5.717   3.365   9.008 -0.4920  0.4110 -1.0199
   27CHL1  H23B 1985   5.604   3.256   9.087  2.7695 -0.8224 -0.3752
   27CHL1   C24 1986   5.518   3.423   8.966  0.0438 -0.3471  0.0707
   27CHL1  H24A 1987   5.516   3.532   8.988 -0.3233  0.0263 -1.7881
   27CHL1  H24B 1988   5.565   3.417   8.865  0.3019  0.1040  0.1627
   27CHL1   C25 1989   5.377   3.364   8.974  0.5474  0.3341 -0.0448
   27CHL1   H25 1990   5.360   3.327   9.077  0.5074  0.4542 -0.0088
   27CHL1   C26 1991   5.260   3.463   8.942 -0.5209 -0.1017  0.3217
   27CHL1  H26A 1992   5.278   3.533   8.857  0.2428  2.0735  2.2214
   27CHL1  H26B 1993   5.166   3.414   8.908 -0.3261  0.5794 -1.2594
   27CHL1  H26C 1994   5.241   3.530   9.029  0.5972  1.3856 -0.5541
   27CHL1   C27 1995   5.367   3.239   8.890 -0.0576 -0.9578 -0.1078
   27CHL1  H27A 1996   5.455   3.175   8.913  1.7213  1.5594  0.3940
   27CHL1  H27B 1997   5.281   3.180   8.927  1.3649 -2.4690  0.8748
   27CHL1  H27C 1998   5.363   3.264   8.782  2.3963 -1.9579 -0.4736
   28CHL1    C3 1999   4.976   1.906  10.213 -0.1095  0.0352  0.3296
   28CHL1    H3 2000   4.913   1.991  10.178 -0.6979 -0.6116 -0.2074
   28CHL1    O3 2001   4.982   1.896  10.349  0.6536 -0.3710  0.1248
   28CHL1   H3' 2002   5.048   1.963  10.369 -0.5147  0.7954  0.1133
   28CHL1    C4 2003   4.932   1.770  10.154  0.2214  0.8416  0.3229
   28CHL1   H4A 2004   5.001   1.688  10.182 -1.9278 -1.0333  0.2489
   28CHL1   H4B 2005   4.835   1.746  10.202 -1.2202  2.0156 -1.9181
   28CHL1    C5 2006   4.926   1.784  10.001  0.0962  0.0364 -0.0413
   28CHL1    C6 2007   4.801   1.760   9.941 -0.2046  0.7464  0.2407
   28CHL1    H6 2008   4.716   1.736  10.007  1.4560  0.1155  2.2216
   28CHL1    C7 2009   4.779   1.776   9.794 -0.3474 -0.2307 -0.0496
   28CHL1   H7A 2010   4.720   1.688   9.761  0.9381 -0.2926 -2.3244
   28CHL1   H7B 2011   4.700   1.848   9.762 -1.6342 -1.2945  0.7407
   28CHL1    C8 2012   4.916   1.782   9.720 -0.5648  0.1741  0.1315
   28CHL1    H8 2013   4.950   1.677   9.708 -1.2988  0.0152 -0.6441
   28CHL1   C14 2014   4.905   1.838   9.578  0.2875  0.4415  0.3858
   28CHL1   H14 2015   4.869   1.942   9.595 -1.3172 -0.4663  2.7554
   28CHL1   C15 2016   4.797   1.770   9.480  0.5847 -0.1915  0.7869
   28CHL1  H15A 2017   4.787   1.664   9.511  1.6668 -0.5963 -0.2409
   28CHL1  H15B 2018   4.695   1.814   9.490  0.5195  0.2262 -1.5032
   28CHL1   C16 2019   4.854   1.783   9.336  0.1587 -0.0932  0.0110
   28CHL1  H16A 2020   4.887   1.687   9.293  0.3719  0.3953 -0.9282
   28CHL1  H16B 2021   4.776   1.834   9.274  0.9707  1.8104  0.5051
   28CHL1   C17 2022   4.978   1.874   9.348 -0.5114  0.4180 -0.2324
   28CHL1   H17 2023   4.941   1.978   9.364 -1.7718  0.0333 -0.5716
   28CHL1   C13 2024   5.030   1.838   9.489  0.3757  0.1933 -0.3235
   28CHL1   C18 2025   5.093   1.704   9.486 -0.1029 -0.2491 -0.7338
   28CHL1  H18A 2026   5.182   1.715   9.421 -0.5387  1.1142 -1.1100
   28CHL1  H18B 2027   5.124   1.664   9.586 -1.4481  0.8632  0.1421
   28CHL1  H18C 2028   5.036   1.620   9.441  0.1347 -0.2758 -0.9846
   28CHL1   C12 2029   5.125   1.939   9.560 -0.3244  0.2111 -0.7953
   28CHL1  H12A 2030   5.229   1.943   9.521 -0.0385  0.3612 -0.0181
   28CHL1  H12B 2031   5.073   2.037   9.559 -0.5303  0.1580  1.8803
   28CHL1   C11 2032   5.151   1.896   9.703 -0.4181 -0.0494  0.2833
   28CHL1  H11A 2033   5.225   1.814   9.704  1.4528  1.6077 -0.2180
   28CHL1  H11B 2034   5.207   1.974   9.759  0.0211 -0.3026  0.1931
   28CHL1    C9 2035   5.024   1.871   9.788 -0.1810 -0.1342  0.6211
   28CHL1    H9 2036   4.980   1.972   9.799  0.3751  0.3550 -1.3250
   28CHL1   C10 2037   5.052   1.834   9.931  0.3135  0.1787 -0.3219
   28CHL1   C19 2038   5.166   1.718   9.939 -0.2111  0.0807  0.7462
   28CHL1  H19A 2039   5.160   1.663  10.035 -1.1908  1.6384  1.6111
   28CHL1  H19B 2040   5.148   1.644   9.859 -0.1306  0.4734  0.3608
   28CHL1  H19C 2041   5.262   1.769   9.916 -1.0959  0.6578 -1.9173
   28CHL1    C1 2042   5.107   1.956  10.009 -0.4242 -0.4457 -0.4486
   28CHL1   H1A 2043   5.210   1.971   9.971  0.8463  2.8421  3.9180
   28CHL1   H1B 2044   5.044   2.046   9.994  0.6364  0.7193  1.8195
   28CHL1    C2 2045   5.120   1.936  10.160 -0.1211 -0.1913 -0.6992
   28CHL1   H2A 2046   5.153   2.032  10.206  0.1378 -0.7200  0.2383
   28CHL1   H2B 2047   5.195   1.855  10.174  0.2194 -0.3988 -3.4510
   28CHL1   C20 2048   5.068   1.874   9.215 -0.1011 -0.4830 -0.1706
   28CHL1   H20 2049   5.118   1.776   9.206  2.0067  0.5988 -0.6122
   28CHL1   C21 2050   5.178   1.984   9.230  0.2188 -0.3909 -0.9540
   28CHL1  H21A 2051   5.242   1.970   9.319 -0.7681  0.9212 -0.0194
   28CHL1  H21B 2052   5.126   2.082   9.236  0.3422 -0.3367 -0.7834
   28CHL1  H21C 2053   5.244   1.979   9.141  2.0027 -1.2925  0.3954
   28CHL1   C22 2054   4.984   1.911   9.085  0.2164  0.7077  0.0886
   28CHL1  H22A 2055   4.900   1.840   9.076  0.0690  0.8170  0.5655
   28CHL1  H22B 2056   4.941   2.010   9.112 -1.3887  0.5127 -1.6964
   28CHL1   C23 2057   5.063   1.914   8.950  0.4967 -0.5823  0.8952
   28CHL1  H23A 2058   5.132   2.001   8.947 -1.7697  1.2407 -0.9114
   28CHL1  H23B 2059   5.138   1.832   8.955 -0.2453 -1.1757  2.7075
   28CHL1   C24 2060   4.977   1.900   8.828  0.6988 -0.0425 -0.6682
   28CHL1  H24A 2061   4.920   1.805   8.840 -1.0710  1.2545  1.5903
   28CHL1  H24B 2062   4.908   1.986   8.829 -0.5917 -1.0682  0.5505
   28CHL1   C25 2063   5.055   1.887   8.696  0.4598  0.0031  0.3173
   28CHL1   H25 2064   4.981   1.871   8.615 -0.0502 -1.4988  1.0562
   28CHL1   C26 2065   5.119   2.020   8.654  0.6512 -0.0261 -0.0789
   28CHL1  H26A 2066   5.190   2.051   8.733 -0.3715 -0.4710  1.0218
   28CHL1  H26B 2067   5.169   2.011   8.555  1.7882 -1.0751  0.5855
   28CHL1  H26C 2068   5.035   2.092   8.640 -0.6422 -1.6001 -0.5429
   28CHL1   C27 2069   5.167   1.775   8.692  0.0755 -0.3449  0.3564
   28CHL1  H27A 2070   5.222   1.761   8.597  0.1146 -2.2159  0.6253
   28CHL1  H27B 2071   5.241   1.801   8.771  1.2193 -0.7774 -0.5600
   28CHL1  H27C 2072   5.123   1.677   8.720 -1.0173  0.3114  0.9635
   29CHL1    C3 2073   6.361   6.271   6.513 -0.1359 -0.2599  0.1675
   29CHL1    H3 2074   6.447   6.238   6.575 -0.7463  0.2410  1.2773
   29CHL1    O3 2075   6.404   6.271   6.379 -0.3094 -0.4317  0.9045
   29CHL1   H3' 2076   6.476   6.207   6.381  0.8228  0.8285  2.0517
   29CHL1    C4 2077   6.249   6.175   6.523  0.7633 -0.3909 -0.0451
   29CHL1   H4A 2078   6.171   6.204   6.450  1.7954  0.1998 -0.9348
   29CHL1   H4B 2079   6.279   6.077   6.482 -2.8577 -1.3233 -0.6061
   29CHL1    C5 2080   6.198   6.157   6.669 -0.1789 -0.0464  0.3523
   29CHL1    C6 2081   6.201   6.049   6.740  0.2881 -0.7772 -0.2188
   29CHL1    H6 2082   6.243   5.961   6.690  2.7128 -0.3723  1.0369
   29CHL1    C7 2083   6.153   6.039   6.882  0.4045  0.4805  0.4044
   29CHL1   H7A 2084   6.082   5.955   6.893  0.2213  0.7299  1.1425
   29CHL1   H7B 2085   6.236   6.010   6.951 -1.3775  0.2034  2.4935
   29CHL1    C8 2086   6.077   6.154   6.954 -0.9225  0.1545 -0.6041
   29CHL1    H8 2087   5.972   6.154   6.917 -0.6124  1.4033 -1.5134
   29CHL1   C14 2088   6.086   6.148   7.104  0.0841  0.1587 -0.2643
   29CHL1   H14 2089   6.192   6.151   7.139  0.2704  0.4036 -0.8351
   29CHL1   C15 2090   6.029   6.020   7.179 -0.2022  0.4795  0.4193
   29CHL1  H15A 2091   5.930   6.015   7.129 -0.8928  0.0643  1.8029
   29CHL1  H15B 2092   6.091   5.931   7.154  0.3676  1.3128 -1.2012
   29CHL1   C16 2093   6.014   6.068   7.327  0.1001 -0.2314 -0.2420
   29CHL1  H16A 2094   5.914   6.038   7.367 -1.3819  0.5077 -3.2825
   29CHL1  H16B 2095   6.104   6.032   7.381  0.5381 -0.9781 -1.4553
   29CHL1   C17 2096   6.033   6.223   7.322  0.1046 -1.1832  0.0489
   29CHL1   H17 2097   6.141   6.246   7.335 -0.1297 -0.9386  1.5555
   29CHL1   C13 2098   6.015   6.269   7.174  0.2910 -0.0074 -0.8673
   29CHL1   C18 2099   5.862   6.257   7.150 -0.3218 -1.2602  0.5985
   29CHL1  H18A 2100   5.805   6.351   7.168  0.7461 -0.6181  0.6479
   29CHL1  H18B 2101   5.860   6.256   7.039  0.3178  0.7375  0.5587
   29CHL1  H18C 2102   5.802   6.173   7.192 -1.3615  0.2909  2.3031
   29CHL1   C12 2103   6.061   6.404   7.116  0.0207  0.3030 -0.7649
   29CHL1  H12A 2104   6.009   6.492   7.159  0.4388 -0.0789  0.5583
   29CHL1  H12B 2105   6.169   6.412   7.140 -0.1086  2.0081 -0.6651
   29CHL1   C11 2106   6.064   6.410   6.959  0.1982 -0.1219 -1.0184
   29CHL1  H11A 2107   5.958   6.411   6.926 -0.9171 -1.6605  2.2488
   29CHL1  H11B 2108   6.115   6.506   6.936  1.0224 -0.7188 -1.6926
   29CHL1    C9 2109   6.135   6.287   6.900 -0.0860 -0.0332  0.3739
   29CHL1    H9 2110   6.242   6.279   6.930  0.5387 -1.6561 -2.1669
   29CHL1   C10 2111   6.144   6.299   6.736 -0.2345  0.5629 -0.1331
   29CHL1   C19 2112   6.004   6.341   6.670 -0.1163  0.3099 -0.1060
   29CHL1  H19A 2113   6.013   6.332   6.560  1.4849 -2.5026  0.2131
   29CHL1  H19B 2114   5.922   6.271   6.695 -1.0829  0.9668 -1.4188
   29CHL1  H19C 2115   5.975   6.447   6.683 -2.0533 -0.0427 -1.3274
   29CHL1    C1 2116   6.249   6.411   6.696 -0.2892  0.4369 -0.1731
   29CHL1   H1A 2117   6.195   6.504   6.723  0.2882  0.2356  1.7802
   29CHL1   H1B 2118   6.335   6.400   6.765  0.2391 -1.5350 -1.1063
   29CHL1    C2 2119   6.296   6.412   6.555 -0.2006  1.0333  0.0045
   29CHL1   H2A 2120   6.366   6.498   6.540  1.9959 -0.4165  1.5131
   29CHL1   H2B 2121   6.215   6.433   6.483  0.3144  0.0890 -0.8627
   29CHL1   C20 2122   5.959   6.301   7.429 -0.3684  0.7880 -0.7021
   29CHL1   H20 2123   5.852   6.303   7.397 -0.1764  3.2935 -1.3433
   29CHL1   C21 2124   6.013   6.445   7.432  0.1245 -0.2940  0.3576
   29CHL1  H21A 2125   5.978   6.500   7.522  0.3899  0.7123 -0.1362
   29CHL1  H21B 2126   5.960   6.501   7.352 -1.3174 -1.4748  0.4869
   29CHL1  H21C 2127   6.124   6.447   7.422 -0.1008 -2.0343 -2.9549
   29CHL1   C22 2128   5.956   6.232   7.564  0.0900  0.0642  0.1578
   29CHL1  H22A 2129   5.895   6.295   7.633  1.3927 -0.5688  1.9176
   29CHL1  H22B 2130   5.912   6.130   7.567 -2.4139  1.0925  0.2668
   29CHL1   C23 2131   6.090   6.239   7.635 -0.1371  0.7442  0.2727
   29CHL1  H23A 2132   6.162   6.183   7.571 -0.4339 -0.5276  1.0385
   29CHL1  H23B 2133   6.123   6.345   7.631  2.5231 -0.1114 -2.7280
   29CHL1   C24 2134   6.092   6.208   7.782 -0.3247  0.1984  0.5266
   29CHL1  H24A 2135   6.186   6.249   7.824 -0.7395  0.0848  1.5914
   29CHL1  H24B 2136   6.005   6.252   7.835 -0.2640 -0.3106  1.0628
   29CHL1   C25 2137   6.089   6.058   7.816 -0.0012 -0.2196 -0.6978
   29CHL1   H25 2138   6.043   5.995   7.737 -0.7656  1.7734 -1.8565
   29CHL1   C26 2139   6.231   6.008   7.846 -0.8934  0.2348 -0.1722
   29CHL1  H26A 2140   6.274   6.054   7.937  1.6835 -0.5230 -0.9847
   29CHL1  H26B 2141   6.244   5.898   7.858 -0.1229  0.3475 -0.0075
   29CHL1  H26C 2142   6.288   6.044   7.758 -0.4713  1.0864  0.4466
   29CHL1   C27 2143   5.994   6.036   7.940 -0.1671  0.3813  0.6730
   29CHL1  H27A 2144   5.891   6.058   7.903 -0.6465  0.2773  1.8976
   29CHL1  H27B 2145   6.006   5.931   7.976 -0.0915  0.4673  0.9030
   29CHL1  H27C 2146   6.009   6.117   8.015 -1.7599  3.4812 -2.2020
   30CHL1    C3 2147   4.249   4.868   7.356  0.6653  0.2061  0.2130
   30CHL1    H3 2148   4.355   4.903   7.345  0.2955  0.6838 -2.1130
   30CHL1    O3 2149   4.229   4.831   7.223  0.0883 -0.8980  0.3830
   30CHL1   H3' 2150   4.316   4.853   7.188  1.3941 -1.6043  3.0272
   30CHL1    C4 2151   4.240   4.757   7.457  0.2792 -0.0617 -0.8425
   30CHL1   H4A 2152   4.133   4.729   7.450  0.7589 -2.1026 -0.4606
   30CHL1   H4B 2153   4.292   4.664   7.424 -1.2538 -1.4730  0.6214
   30CHL1    C5 2154   4.264   4.809   7.598 -0.1915 -0.9505  0.1114
   30CHL1    C6 2155   4.362   4.757   7.673 -0.1012  0.0963 -0.2895
   30CHL1    H6 2156   4.406   4.661   7.641  0.6568 -0.1953  1.5291
   30CHL1    C7 2157   4.394   4.804   7.812  0.4335 -0.6638 -0.5141
   30CHL1   H7A 2158   4.429   4.713   7.865 -1.2281 -2.5588 -2.5333
   30CHL1   H7B 2159   4.484   4.868   7.807  1.7166 -2.3982 -0.0524
   30CHL1    C8 2160   4.284   4.885   7.878  0.0167 -0.0140  0.4235
   30CHL1    H8 2161   4.213   4.802   7.903 -2.1636  1.4656 -0.6668
   30CHL1   C14 2162   4.333   4.958   8.001  0.2961  0.1636  0.3225
   30CHL1   H14 2163   4.406   5.037   7.972 -1.0856  1.5955  0.6356
   30CHL1   C15 2164   4.403   4.870   8.103  0.3696 -0.1676  0.0208
   30CHL1  H15A 2165   4.345   4.779   8.128 -0.4595  0.9066  2.1714
   30CHL1  H15B 2166   4.510   4.844   8.085  0.7710 -1.1563  3.5500
   30CHL1   C16 2167   4.399   4.957   8.234  0.0869 -0.0050  0.2055
   30CHL1  H16A 2168   4.353   4.898   8.316 -2.8498  1.8517  0.0001
   30CHL1  H16B 2169   4.503   4.979   8.265 -0.2853  0.2587  1.2877
   30CHL1   C17 2170   4.311   5.081   8.200  0.1201 -0.3159 -0.9120
   30CHL1   H17 2171   4.381   5.162   8.173 -0.2347 -0.1927 -1.4561
   30CHL1   C13 2172   4.226   5.035   8.079 -0.1889 -0.3136  0.5021
   30CHL1   C18 2173   4.108   4.941   8.127 -0.3523  0.4583 -0.2687
   30CHL1  H18A 2174   4.132   4.865   8.204  0.9747 -0.8809 -1.9539
   30CHL1  H18B 2175   4.027   5.008   8.164 -1.7581 -1.1977 -0.3144
   30CHL1  H18C 2176   4.071   4.895   8.033  0.3433 -0.5646 -0.0447
   30CHL1   C12 2177   4.178   5.145   7.979 -0.0270  0.2012 -0.1382
   30CHL1  H12A 2178   4.096   5.198   8.033 -1.3096 -1.3775 -0.4731
   30CHL1  H12B 2179   4.253   5.222   7.952  0.8839 -0.4367  0.5303
   30CHL1   C11 2180   4.128   5.088   7.845  0.1601  0.0556 -0.2365
   30CHL1  H11A 2181   4.039   5.029   7.876  0.6756 -0.2331  0.6948
   30CHL1  H11B 2182   4.105   5.184   7.793  0.7739  1.2993  1.7518
   30CHL1    C9 2183   4.231   4.993   7.778  0.4382 -0.3609  0.8330
   30CHL1    H9 2184   4.318   5.061   7.767 -0.8137  1.1418  0.1498
   30CHL1   C10 2185   4.185   4.932   7.643 -0.2567  0.3534 -0.3634
   30CHL1   C19 2186   4.039   4.903   7.652 -0.4570  0.0695  0.7092
   30CHL1  H19A 2187   3.989   4.863   7.561 -1.8438 -0.0018  1.4740
   30CHL1  H19B 2188   4.017   4.836   7.739  1.3260  0.1092  1.2031
   30CHL1  H19C 2189   3.993   5.001   7.675 -1.2038 -0.2371  0.5464
   30CHL1    C1 2190   4.200   5.035   7.522  0.0124 -0.0874 -0.3475
   30CHL1   H1A 2191   4.138   5.122   7.551 -0.7542 -0.1461 -1.7842
   30CHL1   H1B 2192   4.301   5.080   7.528  0.2874 -0.5975 -1.0842
   30CHL1    C2 2193   4.158   4.983   7.385 -0.5952 -0.1528 -0.1001
   30CHL1   H2A 2194   4.156   5.065   7.311  2.2463 -0.1208 -0.1953
   30CHL1   H2B 2195   4.061   4.930   7.376 -0.3065 -0.3599 -2.2818
   30CHL1   C20 2196   4.236   5.127   8.328 -0.2475 -0.1032 -0.0701
   30CHL1   H20 2197   4.148   5.062   8.345  0.8253 -1.3922  0.6054
   30CHL1   C21 2198   4.186   5.269   8.305 -0.2145 -0.1453 -0.0518
   30CHL1  H21A 2199   4.276   5.331   8.284 -1.3930  0.7056 -2.7902
   30CHL1  H21B 2200   4.148   5.319   8.397  0.0539  2.2408 -1.1987
   30CHL1  H21C 2201   4.112   5.287   8.225 -0.8805 -0.6203  0.4565
   30CHL1   C22 2202   4.325   5.114   8.460  0.6820 -0.1862  0.1300
   30CHL1  H22A 2203   4.367   5.012   8.477  1.1515  0.1472  0.9865
   30CHL1  H22B 2204   4.404   5.187   8.435 -0.1609  1.2575  1.6275
   30CHL1   C23 2205   4.246   5.148   8.580  0.2177  0.4794  0.0966
   30CHL1  H23A 2206   4.234   5.258   8.583 -0.1500  0.4220  1.0365
   30CHL1  H23B 2207   4.146   5.099   8.577 -1.2083  3.2919 -0.1528
   30CHL1   C24 2208   4.327   5.114   8.711 -0.0780 -0.2055 -0.1138
   30CHL1  H24A 2209   4.342   5.005   8.722  0.3943 -0.4015 -2.4627
   30CHL1  H24B 2210   4.433   5.142   8.690  0.1302 -1.9889 -1.5864
   30CHL1   C25 2211   4.267   5.169   8.847  0.2245  0.4586 -0.0872
   30CHL1   H25 2212   4.161   5.139   8.861  1.3814 -2.9629  1.8997
   30CHL1   C26 2213   4.344   5.104   8.965 -0.0085  0.7223  0.0540
   30CHL1  H26A 2214   4.313   5.147   9.063 -0.2154 -2.0633  1.2680
   30CHL1  H26B 2215   4.318   4.996   8.970 -0.8666  0.8840 -0.7385
   30CHL1  H26C 2216   4.454   5.111   8.948  0.4994 -1.2918  2.3281
   30CHL1   C27 2217   4.283   5.326   8.856 -0.3865  0.3439 -1.2816
   30CHL1  H27A 2218   4.242   5.378   8.768 -1.6433  0.3962 -0.6724
   30CHL1  H27B 2219   4.237   5.363   8.950 -1.7326 -1.3040 -1.2766
   30CHL1  H27C 2220   4.390   5.355   8.851 -0.8170  2.0326 -0.9990
   31CHL1    C3 2221   3.906   6.310   6.803 -0.2931 -0.0883 -0.5343
   31CHL1    H3 2222   3.959   6.215   6.825 -0.7929 -0.0180  1.0029
   31CHL1    O3 2223   3.860   6.307   6.670 -0.4156 -0.1190 -0.3536
   31CHL1   H3' 2224   3.921   6.362   6.620 -3.0825  1.3811 -2.0933
   31CHL1    C4 2225   3.785   6.317   6.892 -0.1396  0.2479 -0.0893
   31CHL1   H4A 2226   3.722   6.403   6.862 -2.3167 -1.6052 -1.0396
   31CHL1   H4B 2227   3.715   6.234   6.865  1.0459 -0.8625  0.1795
   31CHL1    C5 2228   3.814   6.337   7.037 -0.2208  0.7835 -0.1085
   31CHL1    C6 2229   3.746   6.255   7.126 -0.4485  0.4018  0.6085
   31CHL1    H6 2230   3.673   6.182   7.090  2.6251 -1.7680 -1.4514
   31CHL1    C7 2231   3.769   6.263   7.271  0.2719 -0.1022  0.5255
   31CHL1   H7A 2232   3.672   6.280   7.321 -0.2604  1.0338 -0.8461
   31CHL1   H7B 2233   3.802   6.169   7.318  0.5461  0.8068  2.1808
   31CHL1    C8 2234   3.854   6.388   7.309 -0.0699 -0.2164 -0.4105
   31CHL1    H8 2235   3.797   6.484   7.309 -0.4920 -0.4607  0.3137
   31CHL1   C14 2236   3.903   6.370   7.457  0.4751  0.1685  0.3159
   31CHL1   H14 2237   3.973   6.284   7.466 -0.8573 -0.8728  0.8008
   31CHL1   C15 2238   3.797   6.326   7.562  0.4991 -0.2215  0.1300
   31CHL1  H15A 2239   3.712   6.396   7.554 -0.1125 -1.1929 -2.4235
   31CHL1  H15B 2240   3.770   6.219   7.549 -0.8880  0.3037 -1.5291
   31CHL1   C16 2241   3.882   6.354   7.692 -0.6005 -0.9303 -0.2728
   31CHL1  H16A 2242   3.825   6.407   7.772 -4.1867 -3.9873 -0.6401
   31CHL1  H16B 2243   3.905   6.251   7.726 -1.4843 -1.7749 -2.1436
   31CHL1   C17 2244   4.005   6.439   7.655 -0.0639  0.1577  1.0621
   31CHL1   H17 2245   4.094   6.372   7.655 -0.4125 -0.3092  0.4787
   31CHL1   C13 2246   3.982   6.488   7.510 -0.2484  0.6064 -0.5213
   31CHL1   C18 2247   3.898   6.613   7.514 -0.4800  0.4747  0.0858
   31CHL1  H18A 2248   3.961   6.690   7.563  1.4781 -0.9896 -0.0375
   31CHL1  H18B 2249   3.875   6.664   7.418  2.0236  1.7038  0.0878
   31CHL1  H18C 2250   3.811   6.589   7.578 -0.6341  2.4157  0.6204
   31CHL1   C12 2251   4.108   6.510   7.413 -0.4288 -0.4232  0.2999
   31CHL1  H12A 2252   4.175   6.591   7.448 -0.6989 -0.4068  0.7823
   31CHL1  H12B 2253   4.168   6.418   7.429  0.0951 -0.0533  0.4510
   31CHL1   C11 2254   4.068   6.526   7.267  0.0135  0.4346 -1.0535
   31CHL1  H11A 2255   4.020   6.626   7.261  0.2849  0.6384  0.0628
   31CHL1  H11B 2256   4.153   6.540   7.197  0.3012  0.4230 -0.7072
   31CHL1    C9 2257   3.972   6.413   7.215  0.5347 -0.5560  0.0839
   31CHL1    H9 2258   4.039   6.324   7.215  0.3355 -0.7070 -0.0876
   31CHL1   C10 2259   3.927   6.440   7.071 -0.6035  0.3152 -0.2098
   31CHL1   C19 2260   3.861   6.576   7.056 -0.6138  1.4701  0.0964
   31CHL1  H19A 2261   3.770   6.583   7.118 -2.2533 -0.4921 -1.9922
   31CHL1  H19B 2262   3.932   6.659   7.080 -0.2809  1.2336 -0.0637
   31CHL1  H19C 2263   3.824   6.587   6.951  0.2394  0.1708 -0.3592
   31CHL1    C1 2264   4.050   6.424   6.976 -0.4948  0.1197 -0.1185
   31CHL1   H1A 2265   4.124   6.505   6.996 -1.3619  0.4825  1.6905
   31CHL1   H1B 2266   4.087   6.322   6.997 -0.2589  0.0434 -0.8794
   31CHL1    C2 2267   4.004   6.420   6.830  0.2213 -0.0306 -0.1777
   31CHL1   H2A 2268   4.093   6.405   6.765 -0.9719 -0.1176 -1.8062
   31CHL1   H2B 2269   3.950   6.513   6.801 -2.6601 -0.8254  2.4313
   31CHL1   C20 2270   4.039   6.544   7.768  0.3464  0.7485  0.1791
   31CHL1   H20 2271   3.951   6.610   7.756 -0.8546 -1.0456 -1.2065
   31CHL1   C21 2272   4.162   6.631   7.730 -0.1438  0.0693  0.0899
   31CHL1  H21A 2273   4.251   6.565   7.729 -0.3786 -0.2852  1.2055
   31CHL1  H21B 2274   4.177   6.713   7.804  0.7298  1.7980 -1.9365
   31CHL1  H21C 2275   4.164   6.688   7.635  0.4964  0.7750  0.5251
   31CHL1   C22 2276   4.056   6.481   7.911 -0.4098  0.4562 -0.6914
   31CHL1  H22A 2277   3.990   6.391   7.909  0.8748 -0.5338  0.6641
   31CHL1  H22B 2278   4.159   6.438   7.919 -0.1155  0.7241 -2.7225
   31CHL1   C23 2279   4.022   6.578   8.024 -0.9448  0.5329 -0.4085
   31CHL1  H23A 2280   4.080   6.672   8.030  2.4495 -1.6186  2.3050
   31CHL1  H23B 2281   3.916   6.609   8.009 -1.0464  0.4185  0.0762
   31CHL1   C24 2282   4.044   6.521   8.167  0.0801 -0.5205 -0.3142
   31CHL1  H24A 2283   3.961   6.448   8.181 -2.2465  2.1728  0.6045
   31CHL1  H24B 2284   4.146   6.477   8.166  0.4324  0.1762  2.5016
   31CHL1   C25 2285   4.030   6.615   8.288  0.1896  0.9642  0.6120
   31CHL1   H25 2286   3.929   6.661   8.274 -0.2750 -0.1765  0.1010
   31CHL1   C26 2287   4.025   6.532   8.425  0.7379 -0.1418 -0.4612
   31CHL1  H26A 2288   3.945   6.455   8.421  1.0068 -0.4365 -0.2700
   31CHL1  H26B 2289   4.122   6.484   8.451 -0.2713 -1.1369  1.6384
   31CHL1  H26C 2290   4.003   6.601   8.509 -2.0290  0.4031 -1.6116
   31CHL1   C27 2291   4.144   6.717   8.297 -1.1135  0.4293 -0.4016
   31CHL1  H27A 2292   4.145   6.789   8.212  0.9901 -2.7617 -3.1836
   31CHL1  H27B 2293   4.242   6.666   8.292 -0.4748  1.7213 -1.7239
   31CHL1  H27C 2294   4.128   6.774   8.391 -0.1138 -1.2383  0.7900
   32CHL1    C3 2295   4.949   5.626   6.976  0.6541  0.3863 -0.0269
   32CHL1    H3 2296   4.923   5.735   6.977  2.6576  0.8980 -1.1833
   32CHL1    O3 2297   4.964   5.586   6.842 -0.0835  0.1041 -0.0631
   32CHL1   H3' 2298   4.923   5.654   6.787 -1.7494  0.0222  1.0655
   32CHL1    C4 2299   5.084   5.608   7.052 -0.1258  0.5014  0.3799
   32CHL1   H4A 2300   5.102   5.499   7.040  0.7163  0.7353 -0.5632
   32CHL1   H4B 2301   5.158   5.666   6.993 -0.0995 -0.1431 -0.2291
   32CHL1    C5 2302   5.090   5.634   7.202  0.0065 -0.7479 -0.3949
   32CHL1    C6 2303   5.176   5.719   7.255 -0.0373  0.2958  0.8774
   32CHL1    H6 2304   5.246   5.766   7.184 -3.1899 -1.9593 -4.0335
   32CHL1    C7 2305   5.185   5.763   7.400 -0.2262  0.5181  0.0230
   32CHL1   H7A 2306   5.291   5.758   7.433  0.0780 -0.3609 -1.0156
   32CHL1   H7B 2307   5.148   5.867   7.410 -0.5135  0.4903 -0.6520
   32CHL1    C8 2308   5.091   5.675   7.482  0.6751  0.9520  0.0910
   32CHL1    H8 2309   5.154   5.585   7.496  0.0006  0.7750  2.1839
   32CHL1   C14 2310   5.071   5.738   7.613 -0.0611 -0.3669  0.4643
   32CHL1   H14 2311   5.014   5.831   7.593 -1.5040 -1.0464  1.3044
   32CHL1   C15 2312   5.197   5.774   7.695 -0.5455  0.4507  0.1718
   32CHL1  H15A 2313   5.271   5.691   7.706  0.9632  2.0277  2.2577
   32CHL1  H15B 2314   5.233   5.868   7.649 -0.8998  1.6741  2.3482
   32CHL1   C16 2315   5.145   5.796   7.835  0.0805 -0.3350 -0.0134
   32CHL1  H16A 2316   5.210   5.733   7.900  0.2762 -0.4772 -0.3462
   32CHL1  H16B 2317   5.151   5.898   7.878  2.0056 -0.8149  0.8625
   32CHL1   C17 2318   4.991   5.750   7.833  0.2259  0.5393  0.1912
   32CHL1   H17 2319   4.930   5.842   7.818  1.3450  1.0020 -1.7578
   32CHL1   C13 2320   4.984   5.655   7.710 -0.5122 -0.0281 -0.0254
   32CHL1   C18 2321   5.057   5.521   7.739  0.0599  0.2802  0.4826
   32CHL1  H18A 2322   5.007   5.460   7.817  0.6647  0.4532  1.0114
   32CHL1  H18B 2323   5.062   5.451   7.653  0.3875 -0.8341  1.3964
   32CHL1  H18C 2324   5.162   5.533   7.773  0.6217 -1.6900 -0.5344
   32CHL1   C12 2325   4.845   5.638   7.645 -0.3296  0.0507 -0.3802
   32CHL1  H12A 2326   4.781   5.568   7.703 -0.8913  0.9481  0.0833
   32CHL1  H12B 2327   4.788   5.733   7.647  1.3246  1.0668  3.3932
   32CHL1   C11 2328   4.857   5.569   7.509  0.4871 -0.4240 -0.3481
   32CHL1  H11A 2329   4.880   5.461   7.521 -2.5830 -1.1043 -0.1228
   32CHL1  H11B 2330   4.756   5.567   7.464  0.9318 -0.3031 -1.3697
   32CHL1    C9 2331   4.960   5.641   7.415 -0.0905  1.4542 -0.1175
   32CHL1    H9 2332   4.913   5.739   7.394  1.6401  1.9087 -2.1075
   32CHL1   C10 2333   4.969   5.570   7.273  0.5879 -0.0561  0.2888
   32CHL1   C19 2334   4.999   5.418   7.290 -0.0123 -0.6699  0.5494
   32CHL1  H19A 2335   4.918   5.368   7.348  0.1773 -0.3872  1.0630
   32CHL1  H19B 2336   5.014   5.356   7.199 -1.7802  0.1109 -0.2893
   32CHL1  H19C 2337   5.089   5.407   7.355  0.3133 -0.4713  0.1278
   32CHL1    C1 2338   4.840   5.571   7.195  0.1949 -0.1386  0.3542
   32CHL1   H1A 2339   4.764   5.513   7.251  0.3539 -0.7978 -0.1074
   32CHL1   H1B 2340   4.809   5.678   7.193  2.4566  0.5367  0.4693
   32CHL1    C2 2341   4.849   5.533   7.047 -0.5181  0.6513  0.2040
   32CHL1   H2A 2342   4.752   5.547   6.996 -1.6731  3.8637  3.0590
   32CHL1   H2B 2343   4.884   5.430   7.026 -0.7549  1.5259 -5.1203
   32CHL1   C20 2344   4.957   5.695   7.962 -0.0226 -0.4362 -0.0122
   32CHL1   H20 2345   5.027   5.610   7.977  0.5364 -0.0656 -0.5146
   32CHL1   C21 2346   4.818   5.646   7.963 -0.4647  0.0976 -0.1876
   32CHL1  H21A 2347   4.738   5.723   7.952  3.1165  4.2728  1.6539
   32CHL1  H21B 2348   4.796   5.605   8.064  0.5388 -0.1271 -0.0551
   32CHL1  H21C 2349   4.796   5.563   7.892  1.6316 -0.7306  0.1044
   32CHL1   C22 2350   4.968   5.796   8.086  0.1345  0.1375  0.4900
   32CHL1  H22A 2351   5.065   5.850   8.088 -0.7105  1.6605  2.3726
   32CHL1  H22B 2352   4.889   5.873   8.071  1.3121  1.5822  1.6565
   32CHL1   C23 2353   4.951   5.739   8.228  0.7121  0.4138  0.5063
   32CHL1  H23A 2354   4.848   5.747   8.269  0.7265 -1.0040  0.8444
   32CHL1  H23B 2355   4.965   5.630   8.211  0.1316  0.2329  1.1396
   32CHL1   C24 2356   5.049   5.797   8.329 -0.6620  0.0367 -0.2370
   32CHL1  H24A 2357   5.153   5.760   8.315 -0.4343 -0.3996  2.3569
   32CHL1  H24B 2358   5.048   5.907   8.313 -2.5466 -0.0354 -0.7590
   32CHL1   C25 2359   5.029   5.754   8.480 -0.3973 -0.3652 -0.3859
   32CHL1   H25 2360   5.118   5.796   8.531 -1.5471 -0.2461  1.5359
   32CHL1   C26 2361   4.905   5.816   8.540  0.5434  1.0841 -0.0067
   32CHL1  H26A 2362   4.882   5.921   8.509 -0.9170  0.6377 -0.4724
   32CHL1  H26B 2363   4.825   5.761   8.487  1.1054 -0.0085  0.2705
   32CHL1  H26C 2364   4.904   5.798   8.649 -1.2885 -2.6436 -0.5791
   32CHL1   C27 2365   5.033   5.598   8.517 -0.3305  0.4404 -0.1193
   32CHL1  H27A 2366   5.119   5.560   8.458 -0.4979 -0.0966 -0.0124
   32CHL1  H27B 2367   5.046   5.580   8.625 -0.4158 -0.3725 -0.2480
   32CHL1  H27C 2368   4.938   5.551   8.484 -0.9481  0.6823  1.2686
   33CHL1    C3 2369   5.563   5.257   6.701 -1.0746 -0.1401  0.1629
   33CHL1    H3 2370   5.460   5.216   6.705 -0.8289 -0.8989 -0.9067
   33CHL1    O3 2371   5.590   5.251   6.564 -0.7084  0.2309  0.3674
   33CHL1   H3' 2372   5.556   5.332   6.526 -0.8719 -1.0793 -2.3878
   33CHL1    C4 2373   5.567   5.407   6.750  0.3650 -0.3344  0.0704
   33CHL1   H4A 2374   5.665   5.451   6.723  1.0380 -0.9421  1.4747
   33CHL1   H4B 2375   5.489   5.467   6.699  0.9432 -0.3004 -0.7735
   33CHL1    C5 2376   5.557   5.414   6.900 -0.2238  0.3049 -0.2593
   33CHL1    C6 2377   5.466   5.497   6.953 -0.2211 -0.0960  0.3906
   33CHL1    H6 2378   5.406   5.564   6.889 -0.2506 -1.1833 -0.7460
   33CHL1    C7 2379   5.457   5.498   7.105 -0.5526  0.1806 -0.3368
   33CHL1   H7A 2380   5.441   5.603   7.139  2.3155  0.0073  1.7648
   33CHL1   H7B 2381   5.361   5.455   7.139  0.2924 -3.0361 -1.8880
   33CHL1    C8 2382   5.566   5.430   7.194 -0.3823 -0.0725  0.4986
   33CHL1    H8 2383   5.657   5.492   7.189 -0.3109 -0.3214 -3.0516
   33CHL1   C14 2384   5.520   5.406   7.338  0.2972 -0.0102 -1.1354
   33CHL1   H14 2385   5.436   5.334   7.325  0.3674  0.2837 -3.5029
   33CHL1   C15 2386   5.455   5.518   7.424 -0.8673 -0.4780 -1.0966
   33CHL1  H15A 2387   5.522   5.606   7.424  1.3002 -2.0949 -0.4202
   33CHL1  H15B 2388   5.356   5.545   7.380 -1.0488  2.4623  0.9741
   33CHL1   C16 2389   5.435   5.453   7.558  0.1247  0.2952 -0.5260
   33CHL1  H16A 2390   5.472   5.518   7.641  0.2065 -1.7150  1.0658
   33CHL1  H16B 2391   5.331   5.420   7.580  0.5056 -0.0587  0.7887
   33CHL1   C17 2392   5.523   5.321   7.557  0.3882 -0.0537 -0.2436
   33CHL1   H17 2393   5.453   5.237   7.536 -1.6772  1.0973  1.7375
   33CHL1   C13 2394   5.611   5.331   7.438 -0.2530  0.4920  1.2290
   33CHL1   C18 2395   5.739   5.411   7.467 -0.2293  0.3623 -0.2866
   33CHL1  H18A 2396   5.806   5.355   7.536  1.8882  0.5572 -2.1275
   33CHL1  H18B 2397   5.789   5.447   7.375  1.1659 -0.9826 -0.0827
   33CHL1  H18C 2398   5.700   5.503   7.515 -4.7396 -2.0174  0.9375
   33CHL1   C12 2399   5.626   5.191   7.370  0.9378  0.0210  0.4707
   33CHL1  H12A 2400   5.686   5.115   7.425 -1.4022 -0.7074  2.0807
   33CHL1  H12B 2401   5.521   5.155   7.359  0.5981  0.5510  1.9957
   33CHL1   C11 2402   5.690   5.208   7.224 -0.3378  0.3234 -0.4600
   33CHL1  H11A 2403   5.792   5.253   7.226  0.1980 -0.6271 -3.7930
   33CHL1  H11B 2404   5.700   5.105   7.184 -2.7247 -0.4301  0.7643
   33CHL1    C9 2405   5.603   5.300   7.133 -0.3723  0.3074  0.2859
   33CHL1    H9 2406   5.504   5.251   7.123 -0.9601  1.6693 -0.7585
   33CHL1   C10 2407   5.644   5.312   6.984  0.3709 -0.7323  0.2785
   33CHL1   C19 2408   5.784   5.364   6.972  0.4951 -0.0386  0.0194
   33CHL1  H19A 2409   5.771   5.470   7.001 -0.9507 -0.1413 -0.2320
   33CHL1  H19B 2410   5.854   5.313   7.042  0.6012 -0.9753 -0.7499
   33CHL1  H19C 2411   5.830   5.367   6.871 -2.3246  0.7812 -1.2614
   33CHL1    C1 2412   5.648   5.167   6.920  1.0056  0.6210 -0.9801
   33CHL1   H1A 2413   5.726   5.107   6.972 -1.3499 -1.0220  0.7997
   33CHL1   H1B 2414   5.560   5.116   6.966  1.0840 -0.5266 -2.0693
   33CHL1    C2 2415   5.662   5.160   6.765  1.0018  0.8005 -0.9119
   33CHL1   H2A 2416   5.635   5.061   6.722  0.1530  0.1612  1.0240
   33CHL1   H2B 2417   5.770   5.179   6.746  1.4157  0.4126  0.9502
   33CHL1   C20 2418   5.575   5.301   7.692  0.4381  0.2665 -0.9615
   33CHL1   H20 2419   5.639   5.388   7.715 -0.6996  1.3117 -1.6516
   33CHL1   C21 2420   5.657   5.171   7.697  0.1480  0.1781  0.3503
   33CHL1  H21A 2421   5.596   5.082   7.672  0.0843  0.7949 -1.8104
   33CHL1  H21B 2422   5.710   5.161   7.795 -2.1978 -1.0707  1.5330
   33CHL1  H21C 2423   5.744   5.161   7.628  1.1134  0.7239  1.4617
   33CHL1   C22 2424   5.456   5.284   7.796 -0.5846 -0.5291 -0.6007
   33CHL1  H22A 2425   5.358   5.324   7.762  0.4194  2.1512 -0.4163
   33CHL1  H22B 2426   5.445   5.176   7.818  0.8306 -0.1602  2.0261
   33CHL1   C23 2427   5.490   5.356   7.928 -0.0688 -0.7049 -1.2442
   33CHL1  H23A 2428   5.573   5.301   7.978  0.5237  0.9601 -0.3688
   33CHL1  H23B 2429   5.516   5.463   7.911  1.1212 -0.6535  0.7303
   33CHL1   C24 2430   5.386   5.364   8.037  0.1340  0.3485  0.6671
   33CHL1  H24A 2431   5.300   5.425   8.001  1.5037  1.8276 -0.1520
   33CHL1  H24B 2432   5.344   5.266   8.068 -1.0769 -0.1680 -2.3431
   33CHL1   C25 2433   5.438   5.426   8.172 -0.1980  0.8697  0.1227
   33CHL1   H25 2434   5.514   5.504   8.147 -2.9117  3.1434 -1.3402
   33CHL1   C26 2435   5.327   5.475   8.262  0.0913  0.1036  0.0714
   33CHL1  H26A 2436   5.283   5.568   8.221 -1.4443 -0.7445 -0.2338
   33CHL1  H26B 2437   5.240   5.407   8.274  0.2615 -0.3378 -1.0475
   33CHL1  H26C 2438   5.381   5.500   8.355  0.8185  0.1170 -0.3432
   33CHL1   C27 2439   5.516   5.321   8.254 -0.2581 -0.8934  0.7267
   33CHL1  H27A 2440   5.456   5.248   8.312 -0.8386 -1.0193 -0.0272
   33CHL1  H27B 2441   5.593   5.266   8.195  0.8880  1.9247 -0.4828
   33CHL1  H27C 2442   5.565   5.368   8.342 -2.2973  0.4283  1.1681
   34CHL1    C3 2443   6.385   3.930   7.058  0.9140  1.0625 -0.0141
   34CHL1    H3 2444   6.411   3.822   7.067 -1.0151  0.6122  0.4697
   34CHL1    O3 2445   6.400   3.955   6.919  0.1248  0.1095 -0.2504
   34CHL1   H3' 2446   6.377   3.871   6.878  0.0179 -0.4346  0.9080
   34CHL1    C4 2447   6.240   3.942   7.103  0.3353  0.5358  0.7603
   34CHL1   H4A 2448   6.218   4.047   7.076 -5.5828 -0.6873  0.1543
   34CHL1   H4B 2449   6.173   3.878   7.042 -0.5903 -1.0001  3.3197
   34CHL1    C5 2450   6.228   3.913   7.256 -0.5915  0.1980  0.0093
   34CHL1    C6 2451   6.154   3.813   7.307  0.1522  0.1235  0.2521
   34CHL1    H6 2452   6.103   3.746   7.236 -0.5334 -0.8840  1.6826
   34CHL1    C7 2453   6.126   3.799   7.453 -0.6077  0.2067 -0.8162
   34CHL1   H7A 2454   6.016   3.791   7.459 -0.4643 -1.0335  0.4218
   34CHL1   H7B 2455   6.172   3.701   7.478  1.4579  1.2515 -0.4075
   34CHL1    C8 2456   6.175   3.912   7.542 -0.0305  0.1798  0.0714
   34CHL1    H8 2457   6.097   3.992   7.537  1.9460  2.1030 -0.9197
   34CHL1   C14 2458   6.194   3.863   7.679 -0.4919 -0.6923  0.1419
   34CHL1   H14 2459   6.269   3.781   7.674 -0.7969 -0.9967  0.6170
   34CHL1   C15 2460   6.076   3.793   7.752 -0.0368  0.4070 -0.2557
   34CHL1  H15A 2461   5.979   3.848   7.750 -0.2175  0.1340  0.9536
   34CHL1  H15B 2462   6.065   3.692   7.708  1.1481 -0.6151  1.7666
   34CHL1   C16 2463   6.124   3.786   7.900 -0.4581  0.3625  0.2847
   34CHL1  H16A 2464   6.042   3.815   7.970 -0.2848 -1.1187  1.1349
   34CHL1  H16B 2465   6.153   3.685   7.936 -0.1509 -0.1115 -1.2903
   34CHL1   C17 2466   6.245   3.881   7.910  0.1224 -0.1551  0.7579
   34CHL1   H17 2467   6.333   3.813   7.905  0.7473  0.4087  3.2581
   34CHL1   C13 2468   6.242   3.959   7.781 -0.5356 -0.6849  0.0790
   34CHL1   C18 2469   6.138   4.074   7.788  0.5753 -0.4070 -0.1817
   34CHL1  H18A 2470   6.170   4.149   7.863  0.2923  0.4715 -0.9326
   34CHL1  H18B 2471   6.126   4.128   7.692 -0.2175 -0.3559 -0.0520
   34CHL1  H18C 2472   6.035   4.043   7.814  0.0911  0.4767 -1.0509
   34CHL1   C12 2473   6.379   4.018   7.733 -0.3718  0.6347 -0.0807
   34CHL1  H12A 2474   6.410   4.097   7.804 -1.1533  0.1462  0.8154
   34CHL1  H12B 2475   6.446   3.930   7.741 -2.3837 -1.0323 -0.9891
   34CHL1   C11 2476   6.373   4.066   7.588 -0.0746  0.4917  0.0389
   34CHL1  H11A 2477   6.302   4.151   7.589 -0.1323  0.4422  0.1727
   34CHL1  H11B 2478   6.472   4.101   7.554 -0.9210  2.5897 -0.3522
   34CHL1    C9 2479   6.310   3.967   7.493 -0.0624  0.3907 -0.1548
   34CHL1    H9 2480   6.377   3.879   7.486 -0.5600  0.1325 -2.1491
   34CHL1   C10 2481   6.302   4.013   7.343 -0.5502  0.2507 -0.0937
   34CHL1   C19 2482   6.245   4.156   7.332  0.0686  0.2758  0.3395
   34CHL1  H19A 2483   6.308   4.230   7.385 -0.1997  0.0606  0.9595
   34CHL1  H19B 2484   6.228   4.184   7.226 -1.4140 -0.0448  0.4827
   34CHL1  H19C 2485   6.144   4.154   7.379 -0.8190  1.7994 -1.4302
   34CHL1    C1 2486   6.450   4.008   7.296  0.0418 -0.5708  0.2856
   34CHL1   H1A 2487   6.508   4.086   7.350 -0.3885 -1.6346  2.3133
   34CHL1   H1B 2488   6.500   3.914   7.328  2.3089  0.5136  0.0419
   34CHL1    C2 2489   6.473   4.021   7.142 -0.6969 -0.7142 -0.0069
   34CHL1   H2A 2490   6.578   3.995   7.119 -0.8634  0.2963 -1.9956
   34CHL1   H2B 2491   6.445   4.124   7.110 -1.5050 -0.8338  0.2818
   34CHL1   C20 2492   6.248   3.953   8.047 -0.0249 -0.1925 -0.7457
   34CHL1   H20 2493   6.155   4.013   8.039  2.0806  2.9818 -2.8933
   34CHL1   C21 2494   6.370   4.046   8.063 -0.4809 -0.4891  0.6872
   34CHL1  H21A 2495   6.374   4.134   7.994  1.8209 -1.6348 -0.7240
   34CHL1  H21B 2496   6.456   3.983   8.034  0.0600 -0.2989  1.8393
   34CHL1  H21C 2497   6.393   4.081   8.166  1.0164  1.9810 -0.4352
   34CHL1   C22 2498   6.230   3.868   8.173  0.1234  0.1619 -0.7228
   34CHL1  H22A 2499   6.226   3.935   8.262  0.7915 -0.5828 -0.1253
   34CHL1  H22B 2500   6.130   3.822   8.185  0.1545  0.7928  2.2942
   34CHL1   C23 2501   6.345   3.766   8.191 -0.0421  0.1790  0.0084
   34CHL1  H23A 2502   6.341   3.687   8.113 -0.2237 -1.2644  1.4539
   34CHL1  H23B 2503   6.440   3.822   8.201 -0.0142  0.0618  0.4017
   34CHL1   C24 2504   6.330   3.695   8.324 -1.0024 -0.8358  0.4079
   34CHL1  H24A 2505   6.324   3.778   8.397  0.6859  1.3443 -1.8452
   34CHL1  H24B 2506   6.241   3.629   8.335 -0.1995 -2.0413 -0.2403
   34CHL1   C25 2507   6.468   3.635   8.375 -0.2529  0.2284  0.0673
   34CHL1   H25 2508   6.540   3.719   8.381 -0.4502  0.4363 -0.4377
   34CHL1   C26 2509   6.461   3.571   8.511  0.7290  0.5470 -0.1380
   34CHL1  H26A 2510   6.453   3.645   8.593 -2.4498  0.6188 -0.4178
   34CHL1  H26B 2511   6.382   3.493   8.514  1.1740  0.1602  2.1494
   34CHL1  H26C 2512   6.556   3.519   8.534  0.8229  0.7518 -0.0650
   34CHL1   C27 2513   6.512   3.521   8.280 -0.9814  0.6149  0.4116
   34CHL1  H27A 2514   6.491   3.549   8.175  0.0149  2.2388  0.6207
   34CHL1  H27B 2515   6.619   3.504   8.304 -0.4663  1.1805 -1.4087
   34CHL1  H27C 2516   6.468   3.424   8.312  0.1510 -0.0495  0.0070
   35CHL1    C3 2517   3.232   5.053   7.111 -0.2361  0.3755 -0.3395
   35CHL1    H3 2518   3.129   5.009   7.109 -0.1370  0.1376 -0.1620
   35CHL1    O3 2519   3.287   5.052   6.985 -0.2871 -0.0037  0.1984
   35CHL1   H3' 2520   3.342   5.131   6.992  0.3076 -0.5569  1.9623
   35CHL1    C4 2521   3.217   5.204   7.162  0.9632 -0.1671 -0.0832
   35CHL1   H4A 2522   3.317   5.250   7.159  0.8606  0.0422 -0.3769
   35CHL1   H4B 2523   3.159   5.250   7.079 -0.5871 -0.8949  0.5751
   35CHL1    C5 2524   3.148   5.211   7.294 -0.2268 -0.6242  0.4384
   35CHL1    C6 2525   3.028   5.274   7.307  0.5952  0.4178 -0.2732
   35CHL1    H6 2526   2.976   5.321   7.222  0.8158  2.3367  0.6325
   35CHL1    C7 2527   2.954   5.284   7.437 -0.2065  0.6875  0.4144
   35CHL1   H7A 2528   2.904   5.381   7.456  1.1043  1.0519  2.0836
   35CHL1   H7B 2529   2.878   5.204   7.428 -0.5589  1.1920 -1.2382
   35CHL1    C8 2530   3.038   5.240   7.555 -0.0747 -0.1083  0.2829
   35CHL1    H8 2531   3.104   5.324   7.587  0.2405 -1.1651  2.4662
   35CHL1   C14 2532   2.942   5.207   7.673  0.0434  0.0490  0.2016
   35CHL1   H14 2533   2.880   5.123   7.635  1.4297 -0.9599  0.1342
   35CHL1   C15 2534   2.852   5.309   7.739  0.4340 -0.2784  0.4315
   35CHL1  H15A 2535   2.908   5.404   7.748 -0.1701 -0.0145  1.4707
   35CHL1  H15B 2536   2.770   5.333   7.668 -0.1623 -0.2751  1.1107
   35CHL1   C16 2537   2.797   5.249   7.864  0.1090  1.0559  0.0719
   35CHL1  H16A 2538   2.798   5.320   7.950  1.0249 -1.8032  2.5034
   35CHL1  H16B 2539   2.691   5.215   7.859 -0.1861  1.9913 -0.1221
   35CHL1   C17 2540   2.887   5.121   7.892 -0.3224 -0.1433  0.1777
   35CHL1   H17 2541   2.850   5.029   7.843 -0.3151  0.3779 -0.8410
   35CHL1   C13 2542   3.015   5.142   7.798 -0.0665 -0.6583  0.5901
   35CHL1   C18 2543   3.105   5.244   7.866  0.0719 -0.7267 -1.0373
   35CHL1  H18A 2544   3.168   5.296   7.790  0.6123 -0.9503 -0.7485
   35CHL1  H18B 2545   3.054   5.331   7.912  0.1959 -1.3405  0.2771
   35CHL1  H18C 2546   3.168   5.189   7.939  0.1201 -1.0643 -1.3326
   35CHL1   C12 2547   3.086   5.017   7.755 -0.6680  0.6744  0.3604
   35CHL1  H12A 2548   3.139   4.962   7.835  0.0644  2.7311  1.3213
   35CHL1  H12B 2549   3.004   4.953   7.715  0.6340 -2.9551  3.2639
   35CHL1   C11 2550   3.186   5.051   7.644  0.2682 -0.0121  0.4566
   35CHL1  H11A 2551   3.263   5.120   7.683 -1.6259  2.4332  0.0015
   35CHL1  H11B 2552   3.237   4.958   7.613 -0.0560 -0.8501  2.3385
   35CHL1    C9 2553   3.116   5.115   7.517  0.4108 -0.2570  0.0265
   35CHL1    H9 2554   3.039   5.044   7.479 -0.2977 -0.4013  1.7109
   35CHL1   C10 2555   3.220   5.131   7.402  0.1650  0.7085  0.0771
   35CHL1   C19 2556   3.343   5.222   7.439  0.4636  0.1115 -0.4739
   35CHL1  H19A 2557   3.392   5.259   7.346  1.5018  2.0943  0.8239
   35CHL1  H19B 2558   3.308   5.313   7.491 -2.1191 -0.4609 -1.1372
   35CHL1  H19C 2559   3.427   5.167   7.488 -0.5926  0.8702  2.2586
   35CHL1    C1 2560   3.271   4.989   7.350  0.3344  0.5611  0.4130
   35CHL1   H1A 2561   3.341   4.942   7.422  1.4787 -2.8937 -2.8205
   35CHL1   H1B 2562   3.181   4.923   7.354  0.2669  0.3956 -3.1204
   35CHL1    C2 2563   3.328   4.987   7.212 -0.2387  1.0111 -0.3270
   35CHL1   H2A 2564   3.337   4.878   7.188 -0.7069  0.9384 -0.1608
   35CHL1   H2B 2565   3.426   5.039   7.206 -1.9758  4.9198  2.9662
   35CHL1   C20 2566   2.912   5.103   8.039  0.1069 -0.0457  0.1086
   35CHL1   H20 2567   2.955   5.197   8.080  1.7863 -1.3132  1.3251
   35CHL1   C21 2568   3.009   4.989   8.068 -0.0315 -0.5358  0.0631
   35CHL1  H21A 2569   2.998   4.900   8.004 -1.3776 -1.2707  1.2895
   35CHL1  H21B 2570   2.980   4.954   8.170 -0.9785 -0.5297 -0.2031
   35CHL1  H21C 2571   3.111   5.032   8.058 -0.2861  0.0933  0.1296
   35CHL1   C22 2572   2.779   5.086   8.124  0.2603  0.1710  0.0517
   35CHL1  H22A 2573   2.699   5.154   8.087 -0.6127 -0.6307  0.4326
   35CHL1  H22B 2574   2.731   4.986   8.111 -1.5672  0.8503  1.4848
   35CHL1   C23 2575   2.802   5.100   8.274  0.3115 -0.1412 -0.4031
   35CHL1  H23A 2576   2.896   5.048   8.305  0.8307  1.2649  0.4308
   35CHL1  H23B 2577   2.820   5.207   8.299  0.3250 -0.0109 -0.9702
   35CHL1   C24 2578   2.693   5.041   8.368 -0.1214 -0.3550 -0.3643
   35CHL1  H24A 2579   2.727   5.074   8.469  0.2746 -0.6094 -0.4153
   35CHL1  H24B 2580   2.593   5.084   8.347  0.1234 -0.7913 -2.4368
   35CHL1   C25 2581   2.679   4.888   8.371  0.1461  0.4989  0.1386
   35CHL1   H25 2582   2.670   4.856   8.265 -0.3807 -2.6118  1.0619
   35CHL1   C26 2583   2.802   4.824   8.437  1.1073 -0.3570 -0.2111
   35CHL1  H26A 2584   2.806   4.878   8.534 -1.0313 -1.4665  0.5225
   35CHL1  H26B 2585   2.785   4.717   8.460  1.8312  0.3663  4.2591
   35CHL1  H26C 2586   2.894   4.833   8.376  0.0617  0.4234 -1.6972
   35CHL1   C27 2587   2.554   4.851   8.444  0.6467 -0.0659 -0.1140
   35CHL1  H27A 2588   2.577   4.893   8.544  0.2882 -1.0014  0.3741
   35CHL1  H27B 2589   2.536   4.741   8.449  0.4379  0.0468  2.1291
   35CHL1  H27C 2590   2.467   4.909   8.408 -0.1418 -0.3879  1.2097
   36CHL1    C3 2591   3.536   3.737   7.079  0.2556 -0.0810  0.1462
   36CHL1    H3 2592   3.471   3.652   7.109  0.0023  0.3056  0.7112
   36CHL1    O3 2593   3.581   3.720   6.946 -0.4075  0.1069 -0.2391
   36CHL1   H3' 2594   3.505   3.744   6.892 -2.9913 -1.0657  2.7384
   36CHL1    C4 2595   3.446   3.868   7.080 -0.4525  0.7432 -0.5768
   36CHL1   H4A 2596   3.493   3.940   7.009  1.5873 -1.5610 -1.6465
   36CHL1   H4B 2597   3.356   3.831   7.026 -0.2942 -0.0023 -0.3352
   36CHL1    C5 2598   3.411   3.933   7.214  0.2785 -0.6226  0.2800
   36CHL1    C6 2599   3.287   3.974   7.234 -0.1094 -0.2086 -0.1548
   36CHL1    H6 2600   3.213   3.969   7.153 -1.8041  3.4526  1.0355
   36CHL1    C7 2601   3.243   4.023   7.373  0.0567  0.0555  1.0151
   36CHL1   H7A 2602   3.184   4.117   7.372 -0.1580 -0.0277  2.8987
   36CHL1   H7B 2603   3.181   3.946   7.423 -0.7119 -0.0553 -0.1004
   36CHL1    C8 2604   3.360   4.056   7.475 -0.7411 -0.7176  0.0698
   36CHL1    H8 2605   3.406   4.153   7.447 -0.7697 -0.5158  0.7100
   36CHL1   C14 2606   3.303   4.052   7.611 -0.4383 -0.2099  0.4148
   36CHL1   H14 2607   3.278   3.946   7.632 -1.0169 -0.0835  0.3705
   36CHL1   C15 2608   3.168   4.131   7.637  0.3634 -0.3782  0.4727
   36CHL1  H15A 2609   3.178   4.228   7.584 -1.5201  0.3403  1.3769
   36CHL1  H15B 2610   3.087   4.063   7.601  0.8333 -1.4983  1.5064
   36CHL1   C16 2611   3.168   4.148   7.789 -0.1232 -0.3596  0.2208
   36CHL1  H16A 2612   3.159   4.255   7.817  1.0431 -0.2634  0.2390
   36CHL1  H16B 2613   3.073   4.099   7.821 -1.0416  1.3973  0.2458
   36CHL1   C17 2614   3.299   4.080   7.839 -0.2721  0.0982  0.7958
   36CHL1   H17 2615   3.278   3.973   7.860 -1.4456 -0.3335 -2.3884
   36CHL1   C13 2616   3.396   4.087   7.723 -0.1929  0.6662 -0.4952
   36CHL1   C18 2617   3.452   4.231   7.704  0.6211 -0.2279  0.5342
   36CHL1  H18A 2618   3.493   4.251   7.602  0.1911  0.4079  0.4833
   36CHL1  H18B 2619   3.372   4.304   7.727 -0.1335 -0.6991 -0.5655
   36CHL1  H18C 2620   3.530   4.236   7.783  1.2911  0.3884 -0.1446
   36CHL1   C12 2621   3.518   3.983   7.709  0.7426  0.2005 -0.0253
   36CHL1  H12A 2622   3.607   4.009   7.770  1.4330 -0.9972 -0.5066
   36CHL1  H12B 2623   3.486   3.880   7.736  0.8613  0.0522 -0.4394
   36CHL1   C11 2624   3.576   3.970   7.566 -0.9644 -0.1428 -0.2890
   36CHL1  H11A 2625   3.632   4.064   7.547 -0.6420 -0.7565 -2.4119
   36CHL1  H11B 2626   3.649   3.887   7.559 -0.4274  0.3971 -1.1155
   36CHL1    C9 2627   3.468   3.958   7.464  0.3939 -0.7172  0.5455
   36CHL1    H9 2628   3.418   3.863   7.493 -3.4117  1.2374  0.6221
   36CHL1   C10 2629   3.520   3.930   7.320 -0.0719  0.0183 -0.0871
   36CHL1   C19 2630   3.616   4.051   7.277 -0.2838  0.0974 -0.4904
   36CHL1  H19A 2631   3.661   4.028   7.178 -0.0505  0.6412 -0.5127
   36CHL1  H19B 2632   3.549   4.139   7.262 -0.3036  0.3082  0.8204
   36CHL1  H19C 2633   3.701   4.073   7.345  0.3140 -1.6887 -0.6574
   36CHL1    C1 2634   3.597   3.796   7.313 -0.1335 -0.0268  0.5819
   36CHL1   H1A 2635   3.682   3.796   7.384  0.6483 -0.3027 -0.3454
   36CHL1   H1B 2636   3.529   3.714   7.344  0.3159 -0.5663  0.1592
   36CHL1    C2 2637   3.653   3.754   7.176  0.0743 -0.1420 -0.3395
   36CHL1   H2A 2638   3.697   3.653   7.186 -0.6170 -0.6039 -1.8586
   36CHL1   H2B 2639   3.720   3.831   7.131 -0.4271  1.0849  0.9803
   36CHL1   C20 2640   3.352   4.142   7.968 -0.0274  0.1152 -0.3080
   36CHL1   H20 2641   3.391   4.246   7.963  0.4737 -0.0513  0.1214
   36CHL1   C21 2642   3.476   4.070   8.026 -0.1620  0.4616 -0.0045
   36CHL1  H21A 2643   3.455   3.962   8.038 -2.5789  0.8788 -0.3188
   36CHL1  H21B 2644   3.519   4.099   8.125  0.9589 -1.3070  0.0419
   36CHL1  H21C 2645   3.561   4.083   7.955 -0.5971  0.3118 -0.5566
   36CHL1   C22 2646   3.249   4.143   8.083 -0.2107  1.1727 -0.0662
   36CHL1  H22A 2647   3.289   4.180   8.180 -0.3066 -0.8003  0.7347
   36CHL1  H22B 2648   3.163   4.211   8.060 -1.9880 -0.8362  0.4678
   36CHL1   C23 2649   3.169   4.021   8.113  0.1825  0.6361 -0.1788
   36CHL1  H23A 2650   3.104   3.987   8.030 -2.4416  1.1659  1.6047
   36CHL1  H23B 2651   3.239   3.943   8.150  1.2712  2.2137  1.1748
   36CHL1   C24 2652   3.085   4.044   8.238 -0.1913  0.0486  0.1687
   36CHL1  H24A 2653   3.151   4.061   8.326  1.6145 -0.8103 -0.9888
   36CHL1  H24B 2654   3.017   4.132   8.229  1.6097  1.4508 -0.0426
   36CHL1   C25 2655   2.993   3.931   8.284 -0.8314 -0.5152  0.5454
   36CHL1   H25 2656   3.059   3.843   8.299 -1.3596 -1.3664 -1.7999
   36CHL1   C26 2657   2.918   3.962   8.415 -0.1140  0.0188  0.1890
   36CHL1  H26A 2658   2.998   3.979   8.490 -1.0068  0.8353  0.9580
   36CHL1  H26B 2659   2.858   4.054   8.397  0.6499  0.2382 -1.3606
   36CHL1  H26C 2660   2.859   3.870   8.433  0.5716  0.1489  3.2865
   36CHL1   C27 2661   2.895   3.889   8.172  0.4376 -0.3525  0.4473
   36CHL1  H27A 2662   2.832   3.972   8.134  0.5018 -2.5906 -4.9588
   36CHL1  H27B 2663   2.955   3.857   8.084 -0.0229  1.3739 -0.5170
   36CHL1  H27C 2664   2.836   3.800   8.204 -0.0705 -0.4606 -0.7596
   37CHL1    C3 2665   0.595   6.543   6.801  0.0942 -0.3338  0.7484
   37CHL1    H3 2666   0.576   6.434   6.796 -0.0914 -0.3141  0.9702
   37CHL1    O3 2667   0.637   6.596   6.675 -0.7812  0.2631  0.1262
   37CHL1   H3' 2668   0.584   6.543   6.614 -1.2518  1.4803 -0.5279
   37CHL1    C4 2669   0.461   6.611   6.829 -0.8204 -0.2057  0.1068
   37CHL1   H4A 2670   0.481   6.719   6.808 -0.0771 -0.6799 -1.7279
   37CHL1   H4B 2671   0.392   6.575   6.750 -0.7550 -1.6344  0.6855
   37CHL1    C5 2672   0.422   6.571   6.968 -0.2531  0.4025 -0.1770
   37CHL1    C6 2673   0.306   6.517   6.996 -0.8024 -0.0701 -0.0969
   37CHL1    H6 2674   0.233   6.510   6.915 -1.0702  2.1444 -0.0880
   37CHL1    C7 2675   0.241   6.490   7.129  0.5835 -0.5491 -0.0650
   37CHL1   H7A 2676   0.144   6.541   7.148  1.4673  0.9107  0.5821
   37CHL1   H7B 2677   0.237   6.379   7.122  2.6990 -0.9550  3.8959
   37CHL1    C8 2678   0.328   6.538   7.255 -0.1571 -0.0877  0.0849
   37CHL1    H8 2679   0.307   6.647   7.269 -0.9091 -0.0797 -0.9915
   37CHL1   C14 2680   0.296   6.459   7.383  0.6067 -0.1516 -0.3875
   37CHL1   H14 2681   0.328   6.353   7.373  1.5499  0.1059 -0.1681
   37CHL1   C15 2682   0.152   6.440   7.424  0.6273  0.0344  0.3288
   37CHL1  H15A 2683   0.087   6.529   7.410 -0.1496 -0.4659  0.7415
   37CHL1  H15B 2684   0.107   6.365   7.355 -2.2134  1.0755  0.9717
   37CHL1   C16 2685   0.165   6.384   7.568  0.5437  0.5066 -0.5543
   37CHL1  H16A 2686   0.094   6.421   7.645  1.5113  0.4663  0.3578
   37CHL1  H16B 2687   0.153   6.274   7.557 -1.0519  0.7322 -1.2575
   37CHL1   C17 2688   0.309   6.426   7.613 -0.2656 -0.5452  0.1480
   37CHL1   H17 2689   0.371   6.334   7.620 -1.8617 -1.7446 -1.0440
   37CHL1   C13 2690   0.374   6.515   7.501  0.8990 -0.4721 -0.2570
   37CHL1   C18 2691   0.347   6.668   7.528 -0.0149 -0.8624 -0.1781
   37CHL1  H18A 2692   0.240   6.684   7.554  0.4806 -0.7655  1.8290
   37CHL1  H18B 2693   0.412   6.686   7.616  1.5443 -1.8255 -1.0992
   37CHL1  H18C 2694   0.379   6.727   7.439  2.2937  1.3541  2.0553
   37CHL1   C12 2695   0.529   6.487   7.466  0.2649  0.1533  0.0204
   37CHL1  H12A 2696   0.594   6.520   7.550  2.8366 -0.6273 -1.5905
   37CHL1  H12B 2697   0.538   6.377   7.459  2.1420  0.2191  1.0814
   37CHL1   C11 2698   0.579   6.549   7.331 -0.6554  1.5751 -0.3614
   37CHL1  H11A 2699   0.594   6.657   7.350 -0.9167  1.8827 -1.8509
   37CHL1  H11B 2700   0.677   6.504   7.308 -1.1710  0.2141  0.0338
   37CHL1    C9 2701   0.474   6.527   7.217  0.4035 -0.3790  0.7988
   37CHL1    H9 2702   0.466   6.418   7.198 -1.4606 -0.2838  0.9533
   37CHL1   C10 2703   0.524   6.597   7.084  0.7476  0.2629 -0.8406
   37CHL1   C19 2704   0.527   6.747   7.101 -0.4556  0.3507 -0.3858
   37CHL1  H19A 2705   0.576   6.777   7.195  0.3518  3.0000 -1.6088
   37CHL1  H19B 2706   0.579   6.805   7.021  1.0608 -0.6676 -0.1611
   37CHL1  H19C 2707   0.426   6.791   7.117  0.0476  0.9670  1.1681
   37CHL1    C1 2708   0.664   6.543   7.051 -0.6682 -0.6084  0.0017
   37CHL1   H1A 2709   0.744   6.575   7.121 -1.6999 -1.5878  1.6648
   37CHL1   H1B 2710   0.666   6.433   7.065  1.8163 -0.5883  0.1118
   37CHL1    C2 2711   0.697   6.577   6.905 -0.4245  0.7814 -0.0355
   37CHL1   H2A 2712   0.793   6.528   6.878 -0.5525  1.6132 -2.0742
   37CHL1   H2B 2713   0.710   6.687   6.894  0.5864  0.6800  0.0955
   37CHL1   C20 2714   0.317   6.479   7.756  0.6761 -0.3373  0.1801
   37CHL1   H20 2715   0.273   6.581   7.763  2.9510  0.7155 -0.5355
   37CHL1   C21 2716   0.468   6.494   7.795  0.6198  0.2549 -0.1168
   37CHL1  H21A 2717   0.482   6.507   7.904  1.0104 -3.2931  0.3286
   37CHL1  H21B 2718   0.525   6.572   7.741  0.7572  1.0936  1.2236
   37CHL1  H21C 2719   0.509   6.392   7.776  1.1286  0.1536  1.4644
   37CHL1   C22 2720   0.240   6.398   7.872 -0.1234  0.2931 -0.2601
   37CHL1  H22A 2721   0.139   6.365   7.840 -1.1463  2.8638  0.1685
   37CHL1  H22B 2722   0.300   6.305   7.882  0.5078  0.8089  0.8639
   37CHL1   C23 2723   0.221   6.469   8.004  0.1727 -0.6156  0.2719
   37CHL1  H23A 2724   0.314   6.476   8.064  0.3832  2.7456 -0.3313
   37CHL1  H23B 2725   0.186   6.573   7.982 -0.5189 -1.1132 -1.0746
   37CHL1   C24 2726   0.107   6.414   8.096  0.2355 -0.1599 -0.5070
   37CHL1  H24A 2727   0.094   6.471   8.191 -2.8929 -1.2115 -0.2546
   37CHL1  H24B 2728   0.019   6.444   8.036 -0.9579 -0.8169  0.8602
   37CHL1   C25 2729   0.109   6.265   8.108  0.0333 -0.7249 -0.1088
   37CHL1   H25 2730   0.112   6.218   8.008 -1.4273 -1.1494  0.0324
   37CHL1   C26 2731   0.231   6.215   8.191 -0.2211 -0.2723 -1.4302
   37CHL1  H26A 2732   0.329   6.258   8.162 -0.2508  1.6066  1.0846
   37CHL1  H26B 2733   0.213   6.238   8.298  1.1645  0.0883 -1.2635
   37CHL1  H26C 2734   0.238   6.104   8.191 -1.8594 -0.4005  0.4559
   37CHL1   C27 2735  -0.015   6.223   8.189 -0.4530  0.1244  0.3116
   37CHL1  H27A 2736  -0.001   6.120   8.226 -0.3100 -0.0955 -0.3381
   37CHL1  H27B 2737  -0.020   6.280   8.284  0.8038  0.3549  0.2482
   37CHL1  H27C 2738  -0.110   6.231   8.131  0.2065 -3.9208 -1.4665
   38CHL1    C3 2739   3.678   0.136   6.778  0.1788 -1.2891 -0.9559
   38CHL1    H3 2740   3.617   0.061   6.833  0.9056 -0.9573  0.3145
   38CHL1    O3 2741   3.657   0.138   6.634  0.3430  0.6556  0.3708
   38CHL1   H3' 2742   3.733   0.178   6.592 -0.3332  0.7019 -0.8396
   38CHL1    C4 2743   3.629   0.277   6.826 -0.6970  0.2147 -0.3970
   38CHL1   H4A 2744   3.675   0.356   6.764  0.7683 -0.4465 -0.1590
   38CHL1   H4B 2745   3.519   0.286   6.814 -0.9403 -0.0473  1.4578
   38CHL1    C5 2746   3.670   0.298   6.970 -0.0240  0.4713  0.4681
   38CHL1    C6 2747   3.573   0.338   7.054 -0.5637 -0.0010 -0.0278
   38CHL1    H6 2748   3.470   0.348   7.018 -0.6058 -1.8078 -0.4942
   38CHL1    C7 2749   3.599   0.363   7.200 -0.3783 -0.3774  0.1292
   38CHL1   H7A 2750   3.549   0.458   7.227 -0.5587 -0.2854 -0.5292
   38CHL1   H7B 2751   3.554   0.281   7.261 -1.0267 -2.4061 -2.9245
   38CHL1    C8 2752   3.753   0.366   7.236 -0.2087  0.1843  0.2270
   38CHL1    H8 2753   3.792   0.462   7.195  0.3956  0.3605  1.1921
   38CHL1   C14 2754   3.780   0.362   7.386 -0.0205 -0.3112  0.8257
   38CHL1   H14 2755   3.753   0.259   7.416 -0.0011 -0.7741 -0.6783
   38CHL1   C15 2756   3.689   0.435   7.479 -0.2209 -0.1623 -1.0310
   38CHL1  H15A 2757   3.649   0.532   7.444  0.6887  0.2110 -1.0404
   38CHL1  H15B 2758   3.603   0.366   7.497  0.5173 -1.5331 -2.5725
   38CHL1   C16 2759   3.773   0.452   7.611 -0.4216  0.5521 -0.0234
   38CHL1  H16A 2760   3.771   0.563   7.623  0.9142  0.6658 -0.7687
   38CHL1  H16B 2761   3.726   0.404   7.699 -1.2934  1.6861  0.1525
   38CHL1   C17 2762   3.902   0.375   7.583 -0.8631 -0.1236 -0.0749
   38CHL1   H17 2763   3.884   0.270   7.617  2.8765 -0.0502  2.4753
   38CHL1   C13 2764   3.925   0.380   7.431  0.4770 -0.0833 -0.5125
   38CHL1   C18 2765   3.969   0.523   7.388 -0.0027 -0.3958  0.0070
   38CHL1  H18A 2766   3.967   0.529   7.277  1.0274  1.3151  0.0617
   38CHL1  H18B 2767   3.898   0.597   7.433  0.6195  0.6924 -0.7688
   38CHL1  H18C 2768   4.073   0.541   7.421 -0.1904 -4.8913  3.4457
   38CHL1   C12 2769   4.006   0.275   7.358 -0.0513 -0.2273 -0.7644
   38CHL1  H12A 2770   4.112   0.299   7.381 -0.0321 -0.1682 -0.9196
   38CHL1  H12B 2771   3.980   0.174   7.398  0.8868 -0.0324  0.3714
   38CHL1   C11 2772   3.987   0.269   7.205  0.0748 -0.3005  0.1557
   38CHL1  H11A 2773   4.032   0.355   7.151 -1.0394 -0.7113 -1.4801
   38CHL1  H11B 2774   4.037   0.175   7.172  2.5922  1.2454 -0.5320
   38CHL1    C9 2775   3.838   0.261   7.161  0.3441  0.2380  0.2596
   38CHL1    H9 2776   3.798   0.165   7.198 -1.4944  1.5471  1.7682
   38CHL1   C10 2777   3.820   0.264   7.011 -0.4688  0.1081  0.0895
   38CHL1   C19 2778   3.917   0.362   6.937  0.1197 -0.4651  0.2793
   38CHL1  H19A 2779   3.936   0.454   6.996 -1.4758 -0.4373  0.7561
   38CHL1  H19B 2780   4.015   0.310   6.927 -0.3671 -1.7482  1.9259
   38CHL1  H19C 2781   3.881   0.388   6.835 -0.2334  0.8925  0.7503
   38CHL1    C1 2782   3.854   0.119   6.957 -0.1931  0.7887 -0.2148
   38CHL1   H1A 2783   3.962   0.106   6.980 -0.7613 -0.1071  2.1016
   38CHL1   H1B 2784   3.801   0.046   7.021  1.1010  0.6611  0.7348
   38CHL1    C2 2785   3.827   0.100   6.807 -0.0405 -0.4653 -0.4428
   38CHL1   H2A 2786   3.837  -0.006   6.777  2.6340 -0.4723  0.4049
   38CHL1   H2B 2787   3.895   0.161   6.744  3.0104 -2.1358  1.1162
   38CHL1   C20 2788   4.029   0.403   7.659  0.2633  0.5815 -0.0264
   38CHL1   H20 2789   4.087   0.484   7.609 -0.4205  0.7596 -0.5383
   38CHL1   C21 2790   4.114   0.274   7.680  0.4957 -0.0616  0.2925
   38CHL1  H21A 2791   4.211   0.304   7.724  0.4652  2.2950 -1.1701
   38CHL1  H21B 2792   4.130   0.215   7.587  1.1501 -1.3546  1.2065
   38CHL1  H21C 2793   4.063   0.211   7.757 -2.8080  0.4392 -1.3884
   38CHL1   C22 2794   3.988   0.458   7.799 -0.2156  0.1926 -0.0118
   38CHL1  H22A 2795   3.935   0.555   7.792  0.2836  0.3927 -1.0093
   38CHL1  H22B 2796   3.916   0.388   7.848 -0.4491  1.1495  1.0200
   38CHL1   C23 2797   4.113   0.472   7.891 -0.2729  0.1240  0.3847
   38CHL1  H23A 2798   4.139   0.364   7.900 -1.5999 -0.3726 -1.3962
   38CHL1  H23B 2799   4.192   0.528   7.837  0.5221  0.3584  1.7591
   38CHL1   C24 2800   4.077   0.508   8.031 -0.1871  0.2867  0.5889
   38CHL1  H24A 2801   4.031   0.609   8.033  0.6752  0.7564 -1.6472
   38CHL1  H24B 2802   4.000   0.433   8.060 -0.6797 -0.6695 -2.9515
   38CHL1   C25 2803   4.196   0.501   8.132 -0.6860 -0.2531 -0.3645
   38CHL1   H25 2804   4.280   0.556   8.083  1.6885 -0.7556  2.9305
   38CHL1   C26 2805   4.156   0.574   8.264  0.1279  0.4497 -0.2762
   38CHL1  H26A 2806   4.247   0.582   8.328  0.1578 -1.4538 -0.0631
   38CHL1  H26B 2807   4.135   0.676   8.226  1.0992  0.4263 -0.8809
   38CHL1  H26C 2808   4.065   0.540   8.319 -0.4214  1.7832 -0.3428
   38CHL1   C27 2809   4.249   0.362   8.169  0.0723 -0.2918 -0.3773
   38CHL1  H27A 2810   4.291   0.315   8.077 -0.5082  0.2399 -0.9189
   38CHL1  H27B 2811   4.332   0.364   8.243 -1.1049 -2.0085  1.0325
   38CHL1  H27C 2812   4.172   0.294   8.213  1.0562 -1.3524 -0.2592
   39CHL1    C3 2813   3.370   6.461   6.826 -0.3572 -0.4189  0.1796
   39CHL1    H3 2814   3.415   6.369   6.869 -0.4121 -1.1060 -1.2029
   39CHL1    O3 2815   3.340   6.420   6.693 -0.2898 -0.3832 -0.1227
   39CHL1   H3' 2816   3.420   6.385   6.652 -0.2794  1.5343 -1.7508
   39CHL1    C4 2817   3.245   6.501   6.902  0.2738 -0.1452  0.3914
   39CHL1   H4A 2818   3.201   6.588   6.848 -0.2957 -0.7314 -0.1070
   39CHL1   H4B 2819   3.169   6.420   6.889 -0.2327 -0.1286  3.0136
   39CHL1    C5 2820   3.263   6.536   7.044 -0.8340 -0.1234 -0.2043
   39CHL1    C6 2821   3.206   6.469   7.145  0.1683 -0.5259  0.7208
   39CHL1    H6 2822   3.149   6.378   7.120 -1.7822  1.1285 -1.1306
   39CHL1    C7 2823   3.223   6.494   7.289 -0.3360 -0.0396 -0.3603
   39CHL1   H7A 2824   3.127   6.506   7.345  0.1914 -2.3792  1.1275
   39CHL1   H7B 2825   3.279   6.409   7.334 -1.6821 -0.8486 -0.1633
   39CHL1    C8 2826   3.311   6.625   7.315  0.8121  0.2447  0.0964
   39CHL1    H8 2827   3.241   6.710   7.299  0.6624  0.1891  0.4495
   39CHL1   C14 2828   3.367   6.612   7.458 -0.0786 -0.0889 -0.6472
   39CHL1   H14 2829   3.434   6.524   7.459 -1.1599 -0.9189 -1.3512
   39CHL1   C15 2830   3.261   6.596   7.565 -0.4828 -0.2062 -0.3341
   39CHL1  H15A 2831   3.172   6.661   7.550 -1.6066 -1.1706  1.9070
   39CHL1  H15B 2832   3.238   6.488   7.584  1.4811 -0.3392  1.4424
   39CHL1   C16 2833   3.334   6.641   7.699 -0.0879 -0.2123 -0.4002
   39CHL1  H16A 2834   3.285   6.724   7.754  0.6494  0.2965 -0.5060
   39CHL1  H16B 2835   3.350   6.549   7.759 -4.6212 -2.0707 -1.7617
   39CHL1   C17 2836   3.479   6.700   7.650  0.4432 -0.3125  0.3209
   39CHL1   H17 2837   3.546   6.612   7.639  1.0705  0.0829  0.9367
   39CHL1   C13 2838   3.450   6.736   7.504 -0.1520  0.4132  0.9511
   39CHL1   C18 2839   3.375   6.868   7.502  0.2387 -0.2670  0.3026
   39CHL1  H18A 2840   3.333   6.884   7.400 -0.9973  0.0023  0.8357
   39CHL1  H18B 2841   3.289   6.858   7.573  0.5601 -0.8230  0.6231
   39CHL1  H18C 2842   3.442   6.952   7.528  1.0361 -1.3045  1.7057
   39CHL1   C12 2843   3.575   6.729   7.409 -0.0975 -0.3041  0.3749
   39CHL1  H12A 2844   3.642   6.813   7.435 -0.2983 -0.2767  0.8127
   39CHL1  H12B 2845   3.627   6.634   7.432  0.5839 -0.4421 -1.6437
   39CHL1   C11 2846   3.533   6.738   7.262 -0.6283  0.5000 -0.3703
   39CHL1  H11A 2847   3.491   6.840   7.250 -1.3163  0.6465  2.8428
   39CHL1  H11B 2848   3.620   6.725   7.193  0.3011  0.8446  0.7175
   39CHL1    C9 2849   3.423   6.640   7.215  0.3596  0.0443 -0.0516
   39CHL1    H9 2850   3.482   6.546   7.229  1.2168  0.4502 -0.8837
   39CHL1   C10 2851   3.373   6.642   7.063  0.0326 -0.5456 -0.0016
   39CHL1   C19 2852   3.313   6.787   7.037  0.0661 -0.7292  0.6923
   39CHL1  H19A 2853   3.273   6.807   6.936  2.9890 -0.6930 -0.4891
   39CHL1  H19B 2854   3.234   6.813   7.111 -1.6245 -0.4610 -1.1708
   39CHL1  H19C 2855   3.396   6.857   7.060  0.4164 -0.5061 -1.1909
   39CHL1    C1 2856   3.499   6.612   6.969  0.2474 -0.7869 -0.6440
   39CHL1   H1A 2857   3.562   6.703   6.967 -0.1333 -0.4895  0.5092
   39CHL1   H1B 2858   3.553   6.530   7.020  0.2021 -1.5713 -1.8238
   39CHL1    C2 2859   3.478   6.578   6.828  0.3634  0.7557 -0.6078
   39CHL1   H2A 2860   3.572   6.546   6.778 -0.1047  0.3405 -1.2211
   39CHL1   H2B 2861   3.437   6.666   6.774 -0.5498  1.0402  0.5449
   39CHL1   C20 2862   3.539   6.804   7.745 -0.3853  0.1969 -0.6377
   39CHL1   H20 2863   3.472   6.892   7.757  2.2972  2.4385 -1.6504
   39CHL1   C21 2864   3.668   6.867   7.697  0.1649  0.4491  0.5918
   39CHL1  H21A 2865   3.709   6.937   7.773  1.0630  0.4064  0.1613
   39CHL1  H21B 2866   3.653   6.928   7.605 -1.7755  1.1432  1.3496
   39CHL1  H21C 2867   3.749   6.794   7.676 -0.1221  0.3247 -0.1100
   39CHL1   C22 2868   3.567   6.758   7.889  0.6336 -0.0320 -0.2739
   39CHL1  H22A 2869   3.477   6.699   7.919  1.1684 -0.8722 -0.2965
   39CHL1  H22B 2870   3.644   6.678   7.894  0.8642  0.2896  1.7461
   39CHL1   C23 2871   3.595   6.873   7.983  0.2781  0.2785 -0.0078
   39CHL1  H23A 2872   3.700   6.905   7.970  0.8736 -1.8209 -0.5906
   39CHL1  H23B 2873   3.522   6.954   7.962  1.5751  1.0169 -1.7649
   39CHL1   C24 2874   3.585   6.840   8.133 -0.2074  0.3128  0.5200
   39CHL1  H24A 2875   3.478   6.822   8.154  0.0244  0.9300  2.3811
   39CHL1  H24B 2876   3.645   6.749   8.154  1.3913  0.6101 -2.5789
   39CHL1   C25 2877   3.640   6.952   8.227 -0.1633 -0.7201  0.4791
   39CHL1   H25 2878   3.730   6.993   8.177 -0.2226  1.8040  2.3827
   39CHL1   C26 2879   3.532   7.060   8.250 -0.1660  0.3313 -0.2947
   39CHL1  H26A 2880   3.573   7.145   8.310 -0.4775  0.8144 -0.7601
   39CHL1  H26B 2881   3.512   7.103   8.150  0.6199  0.3166 -0.4628
   39CHL1  H26C 2882   3.438   7.022   8.295  0.9554 -0.1318  1.7716
   39CHL1   C27 2883   3.676   6.885   8.367 -0.2055  0.5245  0.1479
   39CHL1  H27A 2884   3.599   6.808   8.391  0.8548 -0.5722  0.0690
   39CHL1  H27B 2885   3.762   6.819   8.345  0.8615  0.6010  3.7747
   39CHL1  H27C 2886   3.692   6.955   8.451  2.9672 -0.8785  0.7912
   40CHL1    C3 2887   6.182   5.452   6.735  0.1570 -1.2580 -0.3006
   40CHL1    H3 2888   6.090   5.393   6.759  0.6544 -1.4971  1.0611
   40CHL1    O3 2889   6.198   5.471   6.596 -1.2981 -0.3716  0.7730
   40CHL1   H3' 2890   6.294   5.475   6.593 -1.3490  2.0861  1.0223
   40CHL1    C4 2891   6.171   5.586   6.803  0.5958 -0.3517 -0.2151
   40CHL1   H4A 2892   6.265   5.637   6.770 -1.0228  1.1355 -2.6417
   40CHL1   H4B 2893   6.090   5.647   6.759  0.0325 -1.2597 -0.4434
   40CHL1    C5 2894   6.152   5.589   6.951  0.6506 -0.1766  0.5443
   40CHL1    C6 2895   6.048   5.646   7.018 -0.3091  0.4089  0.0947
   40CHL1    H6 2896   5.975   5.710   6.967  0.1967  0.7704 -0.1819
   40CHL1    C7 2897   6.040   5.653   7.166  0.3455 -0.2791 -0.5366
   40CHL1   H7A 2898   6.014   5.757   7.197  0.7371  0.0082 -1.1705
   40CHL1   H7B 2899   5.952   5.596   7.202  0.5641 -1.3047 -1.6325
   40CHL1    C8 2900   6.156   5.590   7.250 -0.0113  0.6117  0.6979
   40CHL1    H8 2901   6.231   5.670   7.270 -0.6102  1.0545  1.1732
   40CHL1   C14 2902   6.104   5.555   7.388 -0.9519  0.1363  0.2812
   40CHL1   H14 2903   6.027   5.476   7.373 -0.1941 -0.8625  1.5531
   40CHL1   C15 2904   6.030   5.666   7.456 -0.3488  0.1376  0.1921
   40CHL1  H15A 2905   6.086   5.761   7.445  0.5575 -0.4267 -0.1234
   40CHL1  H15B 2906   5.930   5.683   7.411  0.0552  0.3406 -0.6436
   40CHL1   C16 2907   6.022   5.608   7.597 -0.1536  0.1079 -0.3418
   40CHL1  H16A 2908   6.068   5.670   7.677 -3.5287  0.9080  1.0392
   40CHL1  H16B 2909   5.920   5.582   7.630 -0.9568  0.7957 -2.2084
   40CHL1   C17 2910   6.121   5.476   7.605  0.0325 -0.0654  0.7222
   40CHL1   H17 2911   6.056   5.387   7.596  1.4280 -0.9057 -1.4708
   40CHL1   C13 2912   6.204   5.488   7.475  0.0928 -0.0600 -0.0594
   40CHL1   C18 2913   6.318   5.590   7.505  0.6454 -0.5887 -0.1588
   40CHL1  H18A 2914   6.363   5.625   7.410 -0.2860 -0.6089 -0.6132
   40CHL1  H18B 2915   6.282   5.678   7.563  1.2327 -0.8677  0.6367
   40CHL1  H18C 2916   6.400   5.540   7.561  0.5654 -0.0174  0.4796
   40CHL1   C12 2917   6.258   5.360   7.404 -0.1352  1.1031 -0.5941
   40CHL1  H12A 2918   6.343   5.318   7.462 -2.1748 -0.9247  1.0071
   40CHL1  H12B 2919   6.172   5.290   7.404 -0.0783  0.9890 -2.3926
   40CHL1   C11 2920   6.314   5.388   7.254  0.4090  0.2826  0.4776
   40CHL1  H11A 2921   6.409   5.446   7.265  2.3469 -2.1817 -2.5440
   40CHL1  H11B 2922   6.324   5.284   7.219 -3.9875  0.5960 -1.9769
   40CHL1    C9 2923   6.209   5.467   7.167  0.0406  0.2446 -0.5783
   40CHL1    H9 2924   6.120   5.401   7.155  1.4665 -1.3913 -2.7582
   40CHL1   C10 2925   6.249   5.491   7.020  0.1215  0.1123 -0.0609
   40CHL1   C19 2926   6.381   5.571   7.025 -0.2944 -0.1620 -0.0120
   40CHL1  H19A 2927   6.467   5.514   7.065  2.8229  2.7473 -2.2758
   40CHL1  H19B 2928   6.414   5.600   6.923  1.3722 -2.5683 -0.1897
   40CHL1  H19C 2929   6.354   5.659   7.088  1.5624  0.4168 -0.0011
   40CHL1    C1 2930   6.286   5.360   6.940  0.7178 -0.1110  0.1097
   40CHL1   H1A 2931   6.377   5.310   6.980  1.7685  1.3874 -0.3553
   40CHL1   H1B 2932   6.196   5.298   6.958 -1.1759  1.9244 -2.0462
   40CHL1    C2 2933   6.295   5.373   6.786 -0.4631 -0.3745  0.1545
   40CHL1   H2A 2934   6.294   5.265   6.757  1.1742 -1.1406  2.7439
   40CHL1   H2B 2935   6.391   5.421   6.757 -0.0275 -0.8995  0.6842
   40CHL1   C20 2936   6.176   5.451   7.743  0.3116 -0.5583  0.1340
   40CHL1   H20 2937   6.238   5.537   7.774 -1.0831  1.0988 -1.5447
   40CHL1   C21 2938   6.257   5.327   7.741  0.0355 -0.5478 -0.4805
   40CHL1  H21A 2939   6.197   5.250   7.688 -3.1143 -0.0655  2.2262
   40CHL1  H21B 2940   6.279   5.293   7.844  0.2349 -3.3441 -1.4009
   40CHL1  H21C 2941   6.356   5.335   7.691  0.6830 -0.6939  0.7565
   40CHL1   C22 2942   6.063   5.432   7.848  0.5336  0.1739  0.7745
   40CHL1  H22A 2943   5.989   5.515   7.852 -0.7681 -0.7102 -3.0019
   40CHL1  H22B 2944   6.002   5.344   7.819  0.8794  1.3528 -3.9347
   40CHL1   C23 2945   6.105   5.413   7.996  0.3029 -0.7618  0.1141
   40CHL1  H23A 2946   6.158   5.316   8.000  2.7055  0.4848 -0.4607
   40CHL1  H23B 2947   6.166   5.495   8.039  0.7935 -0.8974 -0.3303
   40CHL1   C24 2948   5.971   5.403   8.083 -0.5884  0.1723  0.1691
   40CHL1  H24A 2949   5.915   5.494   8.054 -1.1707 -0.3352 -0.2984
   40CHL1  H24B 2950   5.918   5.314   8.043 -0.4306 -0.6350  1.7002
   40CHL1   C25 2951   5.982   5.401   8.230 -0.2996 -0.5226 -0.0451
   40CHL1   H25 2952   6.053   5.481   8.263 -0.2337 -0.0541 -1.2837
   40CHL1   C26 2953   5.847   5.452   8.299 -0.4047  1.0860  0.4889
   40CHL1  H26A 2954   5.865   5.453   8.409 -3.4479  0.3535  1.0137
   40CHL1  H26B 2955   5.818   5.554   8.265  2.0914  1.7281  0.1464
   40CHL1  H26C 2956   5.767   5.377   8.284  1.2690 -0.5315 -0.6776
   40CHL1   C27 2957   6.022   5.265   8.292 -0.2442 -0.2132 -0.6880
   40CHL1  H27A 2958   6.124   5.222   8.282 -0.8345 -1.5727 -0.9011
   40CHL1  H27B 2959   5.977   5.252   8.393  1.2100  0.2891  0.0334
   40CHL1  H27C 2960   5.968   5.187   8.235  0.7502 -2.8839  1.9092
   41CHL1    C3 2961   0.276   5.524   6.872  0.2252 -0.2034 -0.5382
   41CHL1    H3 2962   0.337   5.612   6.902 -0.9594  0.2520  0.5938
   41CHL1    O3 2963   0.310   5.494   6.737  0.0125 -0.5204  1.0295
   41CHL1   H3' 2964   0.303   5.402   6.713  2.4065 -0.2446 -0.9016
   41CHL1    C4 2965   0.310   5.399   6.963 -0.4776 -0.2829  0.2182
   41CHL1   H4A 2966   0.257   5.306   6.931 -1.1043  0.4699 -0.9828
   41CHL1   H4B 2967   0.419   5.382   6.955 -0.6836 -1.1961 -0.9189
   41CHL1    C5 2968   0.273   5.419   7.110  0.9001  0.5010  0.6341
   41CHL1    C6 2969   0.354   5.387   7.213  0.4874  0.0580 -0.1824
   41CHL1    H6 2970   0.451   5.339   7.191  0.5242 -1.3013  2.7510
   41CHL1    C7 2971   0.318   5.388   7.353 -0.0199  0.6573  0.8584
   41CHL1   H7A 2972   0.366   5.306   7.411  0.4714 -0.4733 -1.1037
   41CHL1   H7B 2973   0.370   5.480   7.387  0.7951  0.3393  0.4801
   41CHL1    C8 2974   0.160   5.397   7.374 -0.3219  0.1463  0.4949
   41CHL1    H8 2975   0.109   5.298   7.365 -2.0856  0.9644  1.3488
   41CHL1   C14 2976   0.133   5.438   7.522 -0.1652 -0.1408 -1.2874
   41CHL1   H14 2977   0.180   5.538   7.535  1.7859 -1.0455 -1.2546
   41CHL1   C15 2978   0.207   5.354   7.629  0.1169  0.1804  0.3756
   41CHL1  H15A 2979   0.169   5.250   7.617  1.0298 -0.3385  1.8587
   41CHL1  H15B 2980   0.318   5.356   7.627  0.0965  0.5864 -0.3831
   41CHL1   C16 2981   0.138   5.409   7.752  0.3082  0.6025 -0.4387
   41CHL1  H16A 2982   0.097   5.319   7.804  1.4294  0.5363  0.3549
   41CHL1  H16B 2983   0.211   5.463   7.816 -0.6355  1.7126 -0.2982
   41CHL1   C17 2984   0.025   5.507   7.714  0.5694  0.1809  0.1906
   41CHL1   H17 2985   0.067   5.610   7.714  0.8934  0.0481  0.1707
   41CHL1   C13 2986  -0.002   5.471   7.564  0.3217  0.3734 -0.1582
   41CHL1   C18 2987  -0.094   5.348   7.567  0.3525 -0.0144  0.0796
   41CHL1  H18A 2988  -0.103   5.290   7.473 -2.0686 -1.1854  0.9904
   41CHL1  H18B 2989  -0.064   5.274   7.644  0.7275 -0.4942 -0.5221
   41CHL1  H18C 2990  -0.195   5.386   7.594  0.5515  0.6340 -0.0866
   41CHL1   C12 2991  -0.053   5.578   7.465  0.1421 -0.0074  0.2497
   41CHL1  H12A 2992  -0.155   5.605   7.498  0.1721 -2.7460  2.8235
   41CHL1  H12B 2993   0.010   5.667   7.485  0.4818  0.3971 -2.3552
   41CHL1   C11 2994  -0.042   5.539   7.321 -0.0579  0.3330  0.1202
   41CHL1  H11A 2995  -0.108   5.450   7.313 -1.1915  1.0801  1.0652
   41CHL1  H11B 2996  -0.084   5.621   7.260  0.0281  0.7776  0.6559
   41CHL1    C9 2997   0.105   5.503   7.276  0.0057  0.6756 -0.5380
   41CHL1    H9 2998   0.168   5.593   7.291  0.0186  0.8577 -1.6235
   41CHL1   C10 2999   0.131   5.462   7.125  0.4330 -0.5500 -0.6870
   41CHL1   C19 3000   0.039   5.345   7.096 -0.0441 -0.3191 -0.2664
   41CHL1  H19A 3001   0.030   5.323   6.988 -2.0993 -1.7317  0.1715
   41CHL1  H19B 3002   0.059   5.252   7.153  0.9025 -0.3161 -0.5730
   41CHL1  H19C 3003  -0.065   5.375   7.118  0.0221 -0.3062  0.0344
   41CHL1    C1 3004   0.089   5.586   7.038  0.1275 -0.1642 -0.5568
   41CHL1   H1A 3005  -0.021   5.602   7.045 -0.0367 -1.1802 -0.7438
   41CHL1   H1B 3006   0.139   5.671   7.088 -0.3534 -0.7345  0.9123
   41CHL1    C2 3007   0.134   5.572   6.891  0.4780  0.1455  0.5511
   41CHL1   H2A 3008   0.118   5.661   6.827  0.1815  0.3365  0.8968
   41CHL1   H2B 3009   0.079   5.490   6.838  3.0342  0.9310 -3.5928
   41CHL1   C20 3010  -0.081   5.512   7.820  0.0529  0.2550 -0.0303
   41CHL1   H20 3011  -0.134   5.414   7.824  1.0037 -0.2697 -0.2016
   41CHL1   C21 3012  -0.188   5.620   7.788 -0.0879 -0.3548 -0.2131
   41CHL1  H21A 3013  -0.283   5.590   7.836 -0.6081  1.2909 -0.1682
   41CHL1  H21B 3014  -0.193   5.638   7.678  3.2005  1.1981 -0.1810
   41CHL1  H21C 3015  -0.161   5.713   7.843 -2.0816  0.7831 -1.1021
   41CHL1   C22 3016  -0.017   5.536   7.953 -0.4674  0.0606 -0.1616
   41CHL1  H22A 3017   0.065   5.466   7.977 -0.7212  0.9200  3.4831
   41CHL1  H22B 3018   0.020   5.640   7.959 -1.5546  0.3736  1.5416
   41CHL1   C23 3019  -0.109   5.542   8.073 -0.7664  0.3660  0.6006
   41CHL1  H23A 3020  -0.205   5.589   8.042 -0.3927 -0.3889 -1.8667
   41CHL1  H23B 3021  -0.127   5.436   8.101  1.9299 -0.6076 -1.1427
   41CHL1   C24 3022  -0.050   5.616   8.193 -0.7720 -0.7550 -0.6519
   41CHL1  H24A 3023  -0.113   5.619   8.284  0.5595  0.4697  0.2423
   41CHL1  H24B 3024   0.038   5.563   8.233 -3.6445 -2.2735  4.0855
   41CHL1   C25 3025  -0.014   5.765   8.184 -0.3913 -0.0724  0.3194
   41CHL1   H25 3026   0.066   5.780   8.109  0.1143  0.1532  0.9036
   41CHL1   C26 3027  -0.136   5.844   8.133 -0.0035 -0.6486 -0.0137
   41CHL1  H26A 3028  -0.177   5.806   8.037 -0.9657  0.2912  0.0151
   41CHL1  H26B 3029  -0.227   5.837   8.197 -0.5856 -2.2861 -0.9942
   41CHL1  H26C 3030  -0.126   5.954   8.125  0.4747 -0.8625 -2.7811
   41CHL1   C27 3031   0.025   5.814   8.326 -0.1971 -0.2053  0.2662
   41CHL1  H27A 3032   0.117   5.759   8.354 -0.9471 -1.8969 -0.5255
   41CHL1  H27B 3033   0.032   5.925   8.321  2.3871 -0.3105  0.7312
   41CHL1  H27C 3034  -0.065   5.798   8.390 -0.0299 -1.1008  0.2798
   42CHL1    C3 3035   1.054   2.753   6.986  0.6358 -0.7902  0.3924
   42CHL1    H3 3036   1.163   2.742   6.969  0.1445 -1.3998 -2.5521
   42CHL1    O3 3037   0.990   2.766   6.856  0.3452  0.3335  0.0070
   42CHL1   H3' 3038   0.991   2.679   6.816 -0.6191  2.0412 -3.9769
   42CHL1    C4 3039   0.999   2.627   7.056  0.2280 -0.1297 -0.6716
   42CHL1   H4A 3040   0.889   2.643   7.062 -0.1220 -1.5186 -2.9331
   42CHL1   H4B 3041   1.023   2.530   7.007 -2.7963 -2.0189  1.4328
   42CHL1    C5 3042   1.055   2.616   7.201  0.5517 -0.0692 -0.5157
   42CHL1    C6 3043   1.111   2.504   7.248  0.4648 -0.3699 -0.1150
   42CHL1    H6 3044   1.134   2.416   7.186 -2.5630 -1.3110  0.0335
   42CHL1    C7 3045   1.151   2.475   7.386 -0.1547 -0.2133  0.3659
   42CHL1   H7A 3046   1.105   2.380   7.424 -0.9718  1.3877  3.6242
   42CHL1   H7B 3047   1.261   2.467   7.399  0.2975  2.6708 -1.4135
   42CHL1    C8 3048   1.103   2.586   7.482 -0.6587  0.6089 -0.2052
   42CHL1    H8 3049   1.008   2.564   7.536 -0.2987  0.8664  0.5455
   42CHL1   C14 3050   1.198   2.582   7.604 -0.2582  0.2660  0.5761
   42CHL1   H14 3051   1.296   2.612   7.560 -1.1205  0.9977 -0.8714
   42CHL1   C15 3052   1.223   2.457   7.688  0.2960  0.4794 -0.1826
   42CHL1  H15A 3053   1.133   2.413   7.734  0.5026  1.5235  1.2590
   42CHL1  H15B 3054   1.274   2.370   7.641 -1.5830 -1.2473  0.9284
   42CHL1   C16 3055   1.299   2.507   7.811 -1.0798  1.0445 -0.0851
   42CHL1  H16A 3056   1.251   2.458   7.898  0.8228 -0.7815 -0.0195
   42CHL1  H16B 3057   1.407   2.482   7.806 -1.6107 -1.5156  0.2798
   42CHL1   C17 3058   1.287   2.658   7.814 -0.6352  0.2304 -0.5997
   42CHL1   H17 3059   1.382   2.687   7.764 -1.8317 -0.2440 -3.2101
   42CHL1   C13 3060   1.172   2.692   7.713 -0.1791  0.2201 -0.4350
   42CHL1   C18 3061   1.033   2.668   7.792 -0.2944 -0.7337  0.4141
   42CHL1  H18A 3062   0.944   2.688   7.728 -0.2375  4.6898  1.7835
   42CHL1  H18B 3063   1.029   2.566   7.835 -0.4562 -1.3673 -1.0568
   42CHL1  H18C 3064   1.021   2.740   7.875  2.5743  1.6280 -1.1215
   42CHL1   C12 3065   1.169   2.833   7.653 -0.0506 -0.7900  1.0522
   42CHL1  H12A 3066   1.135   2.903   7.731 -0.0710 -0.1319  0.4556
   42CHL1  H12B 3067   1.271   2.871   7.631  0.2480  0.9292  5.1204
   42CHL1   C11 3068   1.079   2.838   7.527 -0.4947  0.0921  0.2139
   42CHL1  H11A 3069   0.980   2.816   7.571  0.7098 -1.0539  2.4464
   42CHL1  H11B 3070   1.081   2.937   7.477  1.1973  0.5043  1.0352
   42CHL1    C9 3071   1.118   2.731   7.417  0.8950  0.0704  0.2904
   42CHL1    H9 3072   1.223   2.745   7.381  0.0235  2.2896 -1.5292
   42CHL1   C10 3073   1.032   2.745   7.288  0.4212 -0.0258 -0.1887
   42CHL1   C19 3074   0.880   2.761   7.328 -0.2154 -0.0333  0.4681
   42CHL1  H19A 3075   0.854   2.861   7.367  0.9827 -0.4907  2.5132
   42CHL1  H19B 3076   0.825   2.761   7.231  1.0470 -3.1340 -0.3107
   42CHL1  H19C 3077   0.839   2.687   7.400  1.6777  0.0214  1.6237
   42CHL1    C1 3078   1.086   2.869   7.208  0.4623 -0.2371 -0.2825
   42CHL1   H1A 3079   1.061   2.958   7.268 -2.0541 -0.8415 -0.3600
   42CHL1   H1B 3080   1.196   2.870   7.198  0.2798 -0.5127 -2.6413
   42CHL1    C2 3081   1.024   2.878   7.070  0.2222  0.0397 -0.0182
   42CHL1   H2A 3082   1.058   2.968   7.015  5.5543 -0.5548  1.9991
   42CHL1   H2B 3083   0.913   2.889   7.076  0.1157  0.7224 -2.6383
   42CHL1   C20 3084   1.288   2.703   7.962 -0.1533  0.0557  0.5428
   42CHL1   H20 3085   1.196   2.664   8.009  0.2782 -2.7248 -0.8369
   42CHL1   C21 3086   1.287   2.851   7.981 -0.3633  0.4415  0.6778
   42CHL1  H21A 3087   1.379   2.890   7.932 -2.0143  2.5084 -0.9157
   42CHL1  H21B 3088   1.292   2.883   8.087  0.7697 -1.8257  1.3245
   42CHL1  H21C 3089   1.199   2.900   7.933 -1.8394 -0.5054  2.3589
   42CHL1   C22 3090   1.409   2.640   8.044  0.5100 -0.1563 -0.7973
   42CHL1  H22A 3091   1.399   2.530   8.043  0.8412 -0.1996  0.3503
   42CHL1  H22B 3092   1.500   2.676   7.990  0.4721  1.0631 -0.0810
   42CHL1   C23 3093   1.417   2.671   8.192 -0.6998  0.1622 -0.1249
   42CHL1  H23A 3094   1.435   2.778   8.216 -0.3071  0.7229 -2.8024
   42CHL1  H23B 3095   1.318   2.638   8.230  0.4309  0.0074  2.8622
   42CHL1   C24 3096   1.525   2.588   8.267 -0.4921  0.0951 -0.0569
   42CHL1  H24A 3097   1.561   2.500   8.209  1.6560  0.6048  0.4842
   42CHL1  H24B 3098   1.615   2.652   8.275  2.3288 -3.8021  0.3667
   42CHL1   C25 3099   1.472   2.541   8.397 -0.4393  0.0616 -0.7893
   42CHL1   H25 3100   1.424   2.624   8.453 -1.2505 -0.7236 -0.3100
   42CHL1   C26 3101   1.378   2.423   8.386  0.4721 -0.5177  0.1303
   42CHL1  H26A 3102   1.332   2.389   8.481 -0.5465 -1.7948 -0.7943
   42CHL1  H26B 3103   1.297   2.431   8.310 -0.3199 -4.8077  0.3693
   42CHL1  H26C 3104   1.427   2.329   8.352 -2.0530 -1.9416  0.3279
   42CHL1   C27 3105   1.596   2.496   8.487  0.4945  0.2043 -0.0451
   42CHL1  H27A 3106   1.664   2.580   8.513  3.9851 -2.6165  0.3222
   42CHL1  H27B 3107   1.666   2.433   8.429  0.9668 -0.7135  1.4930
   42CHL1  H27C 3108   1.562   2.458   8.586  0.9258 -0.0357  0.0109
   43CHL1    C3 3109   1.230   0.070   6.857 -0.4515  0.4104 -0.5861
   43CHL1    H3 3110   1.181   0.159   6.903 -0.2365 -0.6060  1.6861
   43CHL1    O3 3111   1.285   0.084   6.732  0.3474  0.3460  0.2450
   43CHL1   H3' 3112   1.307  -0.006   6.707  0.0451  0.0358  1.0776
   43CHL1    C4 3113   1.345   0.036   6.955  0.6170 -0.2528 -0.0822
   43CHL1   H4A 3114   1.402  -0.051   6.917  4.4911  2.0235  0.3048
   43CHL1   H4B 3115   1.414   0.123   6.959 -0.7522  0.8184  1.0931
   43CHL1    C5 3116   1.309   0.006   7.101  0.8502  0.1933 -0.3310
   43CHL1    C6 3117   1.362   0.064   7.209 -0.4943  0.3538 -1.1539
   43CHL1    H6 3118   1.433   0.148   7.209  0.1255 -0.0936  1.8049
   43CHL1    C7 3119   1.340   0.022   7.353 -0.1144 -0.7132 -0.1557
   43CHL1   H7A 3120   1.436   0.015   7.410  0.5207  1.3999 -0.8934
   43CHL1   H7B 3121   1.278   0.102   7.399 -0.2233  0.0950 -1.6794
   43CHL1    C8 3122   1.251  -0.110   7.365 -0.0020  0.1146 -0.0587
   43CHL1    H8 3123   1.318  -0.195   7.340  0.7331  1.2214 -1.9716
   43CHL1   C14 3124   1.179  -0.104   7.504 -0.4432  0.0877  0.0723
   43CHL1   H14 3125   1.092  -0.035   7.492 -0.6778 -0.0211  1.1281
   43CHL1   C15 3126   1.244  -0.054   7.625  0.3277  0.5313  0.1351
   43CHL1  H15A 3127   1.340  -0.110   7.632  0.0424  0.2411  1.7819
   43CHL1  H15B 3128   1.260   0.056   7.622  0.0553  0.5299 -2.0451
   43CHL1   C16 3129   1.167  -0.096   7.746  0.0195 -0.0681 -0.0561
   43CHL1  H16A 3130   1.227  -0.171   7.802 -0.5727 -0.9263 -0.5558
   43CHL1  H16B 3131   1.136  -0.018   7.819 -3.5942 -1.4595 -0.0028
   43CHL1   C17 3132   1.048  -0.177   7.682 -0.4346 -0.5766 -0.0949
   43CHL1   H17 3133   0.971  -0.097   7.674 -0.1023 -0.2315  0.1346
   43CHL1   C13 3134   1.097  -0.233   7.539 -0.3357  0.1390 -0.4673
   43CHL1   C18 3135   1.194  -0.348   7.563  0.8021 -0.3260  0.9229
   43CHL1  H18A 3136   1.243  -0.377   7.468  0.7121  0.4638  0.6269
   43CHL1  H18B 3137   1.262  -0.305   7.639 -0.8867  1.6450  1.3894
   43CHL1  H18C 3138   1.152  -0.444   7.599 -0.0197 -0.3184  0.0074
   43CHL1   C12 3139   1.000  -0.254   7.419 -0.0328 -0.2138  0.7036
   43CHL1  H12A 3140   0.934  -0.341   7.437 -0.3455  0.3141  2.1969
   43CHL1  H12B 3141   0.937  -0.162   7.424 -0.5354 -0.4872 -0.4495
   43CHL1   C11 3142   1.062  -0.254   7.276 -0.1568  0.1369  0.1161
   43CHL1  H11A 3143   1.114  -0.351   7.270  0.9449  0.5081  2.6581
   43CHL1  H11B 3144   0.979  -0.248   7.203  0.7500  0.2995 -0.9195
   43CHL1    C9 3145   1.143  -0.123   7.255  0.6427 -0.6853 -0.6528
   43CHL1    H9 3146   1.069  -0.043   7.274  0.2544 -0.6509 -2.1767
   43CHL1   C10 3147   1.196  -0.108   7.107  0.4784 -0.5291  0.3178
   43CHL1   C19 3148   1.263  -0.231   7.053  0.3192  0.0771 -0.5504
   43CHL1  H19A 3149   1.191  -0.315   7.063  0.8181 -0.3931 -0.8841
   43CHL1  H19B 3150   1.296  -0.231   6.948  2.7666 -2.0839  0.1898
   43CHL1  H19C 3151   1.344  -0.260   7.124 -0.5926 -1.5562 -0.1485
   43CHL1    C1 3152   1.082  -0.067   7.012  0.2150 -0.2104  0.7816
   43CHL1   H1A 3153   1.001  -0.143   7.010 -0.3823  0.4314  0.3465
   43CHL1   H1B 3154   1.024   0.018   7.054 -1.1922 -0.2834 -0.9246
   43CHL1    C2 3155   1.123  -0.037   6.867  0.0050 -0.2855 -0.5709
   43CHL1   H2A 3156   1.034   0.001   6.812 -0.3617  0.7036  0.6677
   43CHL1   H2B 3157   1.150  -0.134   6.821  0.5523 -0.5410  0.2868
   43CHL1   C20 3158   0.979  -0.273   7.771  0.3058 -0.5896  0.2121
   43CHL1   H20 3159   1.046  -0.359   7.789 -0.2017 -0.7681  1.2716
   43CHL1   C21 3160   0.852  -0.324   7.708  0.5526  0.1611 -0.3118
   43CHL1  H21A 3161   0.794  -0.377   7.787  0.0645 -0.6098 -1.1680
   43CHL1  H21B 3162   0.872  -0.403   7.633 -1.2709  1.4465 -2.2208
   43CHL1  H21C 3163   0.793  -0.239   7.667 -0.8861  0.0915  1.5310
   43CHL1   C22 3164   0.949  -0.206   7.908  0.6229  0.6035  0.2205
   43CHL1  H22A 3165   1.042  -0.161   7.948 -0.7054  2.0596  1.7430
   43CHL1  H22B 3166   0.876  -0.122   7.905 -1.5485 -1.1733  1.1639
   43CHL1   C23 3167   0.899  -0.303   8.013  0.0510  0.2398  0.1328
   43CHL1  H23A 3168   0.792  -0.331   7.995  0.6475 -0.9404 -1.8000
   43CHL1  H23B 3169   0.968  -0.390   8.002 -1.2962 -0.6473 -1.7449
   43CHL1   C24 3170   0.908  -0.250   8.152 -0.1662 -0.0326  0.1565
   43CHL1  H24A 3171   1.013  -0.228   8.181  0.2397  0.5833 -1.7212
   43CHL1  H24B 3172   0.857  -0.153   8.165 -0.7650 -0.2459 -0.5521
   43CHL1   C25 3173   0.837  -0.349   8.248 -0.2300  0.5051 -0.8033
   43CHL1   H25 3174   0.855  -0.307   8.350 -0.5069 -0.7883 -0.2141
   43CHL1   C26 3175   0.679  -0.343   8.235  0.3764  0.4408 -0.6571
   43CHL1  H26A 3176   0.644  -0.238   8.244 -0.8371 -0.0581  0.8686
   43CHL1  H26B 3177   0.634  -0.370   8.137 -0.6875  0.5676 -0.2144
   43CHL1  H26C 3178   0.632  -0.397   8.320  0.9716  2.4692  0.9885
   43CHL1   C27 3179   0.902  -0.492   8.248 -1.0126  0.4243  0.0736
   43CHL1  H27A 3180   0.921  -0.517   8.141 -0.0800  2.0612 -0.1712
   43CHL1  H27B 3181   1.004  -0.482   8.290 -0.2882 -0.7012 -1.3602
   43CHL1  H27C 3182   0.848  -0.571   8.303 -2.4181  0.3859 -1.3132
   44CHL1    C3 3183   1.122   5.384   6.805 -0.0490 -0.2285  0.4128
   44CHL1    H3 3184   1.029   5.444   6.815 -0.0942 -0.2678  0.2323
   44CHL1    O3 3185   1.158   5.356   6.672  0.9099  0.3922  0.4388
   44CHL1   H3' 3186   1.234   5.299   6.688  0.4582 -0.5056 -0.6125
   44CHL1    C4 3187   1.229   5.473   6.867 -0.2879 -0.5260 -0.6804
   44CHL1   H4A 3188   1.331   5.432   6.853 -1.2893 -3.2983 -0.2541
   44CHL1   H4B 3189   1.231   5.566   6.807 -1.3923 -0.7770 -1.1264
   44CHL1    C5 3190   1.207   5.487   7.010 -0.2302  0.7776  0.8034
   44CHL1    C6 3191   1.202   5.608   7.062  0.7741 -0.5850  0.1503
   44CHL1    H6 3192   1.210   5.689   6.988 -1.0933  0.8518  1.4970
   44CHL1    C7 3193   1.200   5.648   7.207 -0.0519 -0.6736  0.4438
   44CHL1   H7A 3194   1.274   5.725   7.240  1.1613 -1.5016 -0.2830
   44CHL1   H7B 3195   1.103   5.698   7.222  0.0204  0.2023 -1.7604
   44CHL1    C8 3196   1.208   5.519   7.293 -0.3632  0.5686  0.1016
   44CHL1    H8 3197   1.316   5.505   7.315 -0.1085  1.1932 -0.7141
   44CHL1   C14 3198   1.152   5.554   7.430 -0.4594  0.2292  0.6908
   44CHL1   H14 3199   1.047   5.584   7.411  0.3200  2.0768 -0.8332
   44CHL1   C15 3200   1.223   5.673   7.506 -0.2703  0.6610  0.6941
   44CHL1  H15A 3201   1.328   5.667   7.471  0.4048  1.0612  2.6155
   44CHL1  H15B 3202   1.172   5.767   7.476  1.1786  0.2903 -3.1395
   44CHL1   C16 3203   1.201   5.633   7.653 -0.0859 -0.5180  0.6938
   44CHL1  H16A 3204   1.305   5.613   7.687  0.8484  3.0331  0.1634
   44CHL1  H16B 3205   1.160   5.714   7.716  0.5554 -0.5251  1.1307
   44CHL1   C17 3206   1.099   5.506   7.653 -0.4225 -0.0089 -0.1531
   44CHL1   H17 3207   1.001   5.548   7.624 -1.1665 -0.9013  1.0374
   44CHL1   C13 3208   1.150   5.431   7.528 -0.6011 -0.0306  0.0525
   44CHL1   C18 3209   1.295   5.378   7.547 -0.2719  0.6401  1.1861
   44CHL1  H18A 3210   1.340   5.359   7.448 -2.5133 -0.5501  0.3490
   44CHL1  H18B 3211   1.368   5.443   7.599  0.5617 -0.1461  1.0021
   44CHL1  H18C 3212   1.299   5.278   7.596  2.2211 -0.1346 -0.5297
   44CHL1   C12 3213   1.058   5.317   7.472  0.2759 -0.2915 -0.4871
   44CHL1  H12A 3214   1.087   5.234   7.541 -2.7709  0.4890  1.8458
   44CHL1  H12B 3215   0.950   5.340   7.467  0.4140  0.1898 -1.2249
   44CHL1   C11 3216   1.103   5.283   7.333 -0.1807 -0.6044 -0.3468
   44CHL1  H11A 3217   1.188   5.212   7.344 -0.6015 -1.0981 -0.2768
   44CHL1  H11B 3218   1.022   5.221   7.290 -0.6228 -2.5207  3.0090
   44CHL1    C9 3219   1.130   5.399   7.235  0.0764 -0.5449 -0.5970
   44CHL1    H9 3220   1.027   5.435   7.216  0.3571  0.0866 -0.9480
   44CHL1   C10 3221   1.180   5.366   7.091  0.3687  0.0433 -0.1385
   44CHL1   C19 3222   1.320   5.288   7.105 -0.8021  0.0700  0.1783
   44CHL1  H19A 3223   1.391   5.333   7.177 -0.1187 -0.5136 -0.1240
   44CHL1  H19B 3224   1.298   5.186   7.143  3.8244 -0.9745  0.4392
   44CHL1  H19C 3225   1.365   5.269   7.005 -2.1755 -4.2469  0.3014
   44CHL1    C1 3226   1.075   5.271   7.026 -0.1356 -0.1706 -0.3326
   44CHL1   H1A 3227   1.081   5.173   7.078  1.3279  0.3513  0.5027
   44CHL1   H1B 3228   0.971   5.304   7.045 -0.0174  0.6265 -1.0178
   44CHL1    C2 3229   1.100   5.247   6.876 -0.3988 -0.2485  0.0879
   44CHL1   H2A 3230   1.017   5.197   6.822 -0.5885 -1.0893  1.1362
   44CHL1   H2B 3231   1.188   5.180   6.869 -0.6998 -0.7233  0.7566
   44CHL1   C20 3232   1.088   5.428   7.785  0.6895 -0.3620 -0.6230
   44CHL1   H20 3233   1.181   5.369   7.798  0.1278 -0.9416  0.8990
   44CHL1   C21 3234   0.965   5.334   7.779 -0.1798 -0.7167  0.8747
   44CHL1  H21A 3235   0.881   5.403   7.760  1.4768  1.7361  2.1810
   44CHL1  H21B 3236   0.939   5.291   7.878 -4.6168 -2.3562 -0.8726
   44CHL1  H21C 3237   0.960   5.250   7.707 -0.3651 -1.1326  1.3669
   44CHL1   C22 3238   1.072   5.526   7.898 -0.5205 -0.0115  0.0954
   44CHL1  H22A 3239   1.071   5.474   7.996 -2.1673  0.3792  0.2970
   44CHL1  H22B 3240   1.158   5.597   7.898  0.3320 -1.0116  2.5266
   44CHL1   C23 3241   0.950   5.624   7.895  0.0170 -0.3151 -0.3244
   44CHL1  H23A 3242   0.951   5.675   7.797  2.8582  0.6877  0.1686
   44CHL1  H23B 3243   0.856   5.568   7.915  0.0378 -0.4620 -0.6464
   44CHL1   C24 3244   0.963   5.730   8.010 -0.7065 -0.3373  0.0970
   44CHL1  H24A 3245   1.063   5.778   8.021 -2.0909  2.5702  0.4905
   44CHL1  H24B 3246   0.891   5.811   7.982 -2.5373 -1.2745  1.9842
   44CHL1   C25 3247   0.936   5.675   8.153 -0.2566 -0.2185  0.0197
   44CHL1   H25 3248   1.006   5.592   8.175  0.6149  0.6484  0.6001
   44CHL1   C26 3249   0.969   5.783   8.255 -0.7078  0.2755 -0.8218
   44CHL1  H26A 3250   0.920   5.878   8.223  0.5891  1.3623  0.3512
   44CHL1  H26B 3251   0.937   5.756   8.358  0.0891 -1.1496 -0.9471
   44CHL1  H26C 3252   1.079   5.795   8.254 -0.5738 -0.7772  1.0266
   44CHL1   C27 3253   0.785   5.629   8.182  0.0433 -0.6256 -0.6249
   44CHL1  H27A 3254   0.756   5.537   8.127  1.3450 -0.0280 -2.3608
   44CHL1  H27B 3255   0.759   5.596   8.285 -0.5737 -0.0222 -0.5882
   44CHL1  H27C 3256   0.721   5.719   8.171 -2.2617 -2.0543  0.6584
   45CHL1    C3 3257   1.318   3.534   6.807  0.9541 -0.0732 -0.1205
   45CHL1    H3 3258   1.207   3.536   6.815  0.8114  0.7177 -2.1327
   45CHL1    O3 3259   1.354   3.489   6.669 -0.7070 -0.0740  0.4596
   45CHL1   H3' 3260   1.450   3.481   6.665 -0.7446  0.3794 -4.2842
   45CHL1    C4 3261   1.384   3.667   6.840 -0.0771 -0.3410  0.3017
   45CHL1   H4A 3262   1.493   3.660   6.821 -0.3888  2.3924 -3.0353
   45CHL1   H4B 3263   1.346   3.738   6.763  2.4828  0.4903 -0.2269
   45CHL1    C5 3264   1.361   3.709   6.981 -0.6647 -0.5340  0.2356
   45CHL1    C6 3265   1.312   3.831   7.013 -1.1685 -0.1215 -0.0825
   45CHL1    H6 3266   1.276   3.898   6.934  3.2354  0.0960 -2.0587
   45CHL1    C7 3267   1.291   3.880   7.157  0.3692 -0.8383 -0.4111
   45CHL1   H7A 3268   1.335   3.982   7.162  0.1013 -0.7952  1.4574
   45CHL1   H7B 3269   1.184   3.880   7.188  0.6186  3.4857  0.7212
   45CHL1    C8 3270   1.378   3.794   7.260 -0.2742 -0.3974  0.2999
   45CHL1    H8 3271   1.484   3.822   7.240 -0.7844  0.9163 -0.6031
   45CHL1   C14 3272   1.342   3.833   7.402  0.1870 -0.5054 -0.1642
   45CHL1   H14 3273   1.239   3.796   7.418  0.1623 -0.3885 -0.0463
   45CHL1   C15 3274   1.346   3.980   7.449  0.3738  0.0450  0.0071
   45CHL1  H15A 3275   1.431   4.041   7.413  1.8502  1.3097  5.1896
   45CHL1  H15B 3276   1.256   4.033   7.410 -0.7811 -1.2227  0.9049
   45CHL1   C16 3277   1.350   3.969   7.598 -0.5800 -0.1779  0.1744
   45CHL1  H16A 3278   1.430   4.039   7.631  2.5070 -4.0122  1.2826
   45CHL1  H16B 3279   1.248   3.992   7.635 -0.8441 -0.3448 -0.4480
   45CHL1   C17 3280   1.374   3.820   7.634  0.1223 -0.3744  0.1776
   45CHL1   H17 3281   1.277   3.775   7.663  0.7036 -0.5526  1.8991
   45CHL1   C13 3282   1.424   3.747   7.504 -0.3959  0.2721 -0.3895
   45CHL1   C18 3283   1.581   3.760   7.494  0.4153 -0.3574 -0.0061
   45CHL1  H18A 3284   1.640   3.696   7.563 -0.8054 -0.3161  1.0805
   45CHL1  H18B 3285   1.619   3.732   7.393  0.4713  1.7343 -0.5931
   45CHL1  H18C 3286   1.614   3.865   7.508 -0.8648 -0.1645  1.6057
   45CHL1   C12 3287   1.366   3.605   7.485 -0.3967 -0.2093 -0.2059
   45CHL1  H12A 3288   1.414   3.532   7.553  0.3620  0.0700 -0.4370
   45CHL1  H12B 3289   1.259   3.605   7.515 -0.1680 -0.8186  0.6214
   45CHL1   C11 3290   1.405   3.552   7.351  0.4549 -0.4791  0.1117
   45CHL1  H11A 3291   1.515   3.541   7.352  0.4983  0.0120  1.8764
   45CHL1  H11B 3292   1.364   3.450   7.333  0.1075 -1.0031  3.4495
   45CHL1    C9 3293   1.358   3.649   7.236 -0.0056  0.3556 -0.1419
   45CHL1    H9 3294   1.247   3.643   7.234  0.0156  0.2147 -0.8998
   45CHL1   C10 3295   1.405   3.609   7.095  0.4233 -0.3377  0.2900
   45CHL1   C19 3296   1.565   3.614   7.093 -0.0812  0.6613  0.1711
   45CHL1  H19A 3297   1.610   3.583   6.997 -0.8836  0.8207 -0.2648
   45CHL1  H19B 3298   1.600   3.718   7.111  1.5652  0.0846  0.3234
   45CHL1  H19C 3299   1.603   3.548   7.174 -6.2545  0.3730  3.1448
   45CHL1    C1 3300   1.348   3.468   7.052  0.1344 -0.2673  0.4661
   45CHL1   H1A 3301   1.382   3.379   7.110  1.0261 -0.5077 -0.4154
   45CHL1   H1B 3302   1.238   3.478   7.064  0.2027  0.7674  0.2880
   45CHL1    C2 3303   1.374   3.427   6.907  1.2268 -0.1207 -0.3300
   45CHL1   H2A 3304   1.322   3.331   6.884 -1.2539  0.9108  0.7678
   45CHL1   H2B 3305   1.483   3.425   6.885  1.5139  2.6270  0.6434
   45CHL1   C20 3306   1.453   3.803   7.763  0.1808  0.5236  0.0688
   45CHL1   H20 3307   1.557   3.836   7.743 -0.1601  0.3069 -2.2007
   45CHL1   C21 3308   1.451   3.657   7.815 -0.4856 -0.2890  1.0458
   45CHL1  H21A 3309   1.516   3.642   7.904 -1.0060  2.0520  1.8714
   45CHL1  H21B 3310   1.495   3.589   7.739  1.5327 -0.5462  2.4070
   45CHL1  H21C 3311   1.351   3.615   7.842 -1.0588 -0.3708 -1.1521
   45CHL1   C22 3312   1.404   3.895   7.885  0.5079 -0.0855  0.2851
   45CHL1  H22A 3313   1.464   3.868   7.974  0.3452 -2.9871 -0.4242
   45CHL1  H22B 3314   1.427   4.002   7.870  0.6027 -0.2426 -0.7290
   45CHL1   C23 3315   1.253   3.893   7.929 -0.6361  0.1423  0.3917
   45CHL1  H23A 3316   1.194   3.937   7.845 -0.6112  0.4216  0.5216
   45CHL1  H23B 3317   1.209   3.791   7.933  1.2967 -0.7588 -0.8589
   45CHL1   C24 3318   1.218   3.968   8.065  0.1489 -0.3192 -0.2511
   45CHL1  H24A 3319   1.274   3.918   8.146  0.2531 -1.1360 -0.8190
   45CHL1  H24B 3320   1.252   4.073   8.048  0.1263 -0.6739 -2.7932
   45CHL1   C25 3321   1.070   3.964   8.105 -0.4022 -0.3457 -0.0613
   45CHL1   H25 3322   1.039   3.857   8.106  0.6197 -0.6341  2.8059
   45CHL1   C26 3323   1.044   4.027   8.240  0.4548 -0.2008 -0.5083
   45CHL1  H26A 3324   0.937   4.018   8.269 -0.1210  0.7433 -2.2646
   45CHL1  H26B 3325   1.103   3.965   8.311  1.5040  0.9616 -0.3376
   45CHL1  H26C 3326   1.081   4.132   8.242 -0.0510  0.0032 -1.5930
   45CHL1   C27 3327   0.980   4.037   8.005 -0.4075  0.2839 -1.1956
   45CHL1  H27A 3328   1.010   4.144   8.002  0.2382  0.1178 -0.5645
   45CHL1  H27B 3329   1.007   3.999   7.904  0.5685 -0.9666 -0.4804
   45CHL1  H27C 3330   0.873   4.011   8.021  0.0849  0.0657  1.9617
   46CHL1    C3 3331   1.925   4.784   7.052 -0.1669  0.4405 -0.5910
   46CHL1    H3 3332   1.923   4.895   7.050  0.6164  0.4423 -1.2977
   46CHL1    O3 3333   1.937   4.745   6.918 -0.0653  0.0683  0.0284
   46CHL1   H3' 3334   1.993   4.668   6.913 -2.7165 -1.7947 -3.1524
   46CHL1    C4 3335   2.046   4.731   7.133  0.1560 -0.2362  0.7502
   46CHL1   H4A 3336   2.062   4.623   7.113 -1.3057 -0.3340  0.0372
   46CHL1   H4B 3337   2.136   4.785   7.097 -0.1526  0.3489  0.8601
   46CHL1    C5 3338   2.031   4.745   7.283 -0.6840  0.0720 -0.3650
   46CHL1    C6 3339   2.134   4.796   7.358  0.1899 -0.1575 -0.4564
   46CHL1    H6 3340   2.220   4.838   7.304  1.1331  0.6469  1.6267
   46CHL1    C7 3341   2.121   4.805   7.504 -0.1204 -0.7585  0.3526
   46CHL1   H7A 3342   2.202   4.757   7.563 -1.3223  1.0845  3.6174
   46CHL1   H7B 3343   2.120   4.913   7.529  1.3200 -0.8886  1.0397
   46CHL1    C8 3344   2.007   4.733   7.570  0.3211  0.0157  0.1334
   46CHL1    H8 3345   2.034   4.626   7.579  2.6191  0.2740 -2.9478
   46CHL1   C14 3346   1.994   4.797   7.712  0.4918 -0.0343  0.2697
   46CHL1   H14 3347   1.986   4.906   7.693  3.5659 -0.2225 -2.4548
   46CHL1   C15 3348   2.104   4.789   7.813 -0.4671  0.3826  0.5815
   46CHL1  H15A 3349   2.135   4.682   7.814  2.0335  1.0540 -0.7089
   46CHL1  H15B 3350   2.174   4.866   7.774  0.6405 -1.5930 -1.4233
   46CHL1   C16 3351   2.043   4.822   7.947 -1.7002  0.3714  0.7125
   46CHL1  H16A 3352   2.078   4.737   8.010 -0.7882 -0.5884 -1.0603
   46CHL1  H16B 3353   2.077   4.923   7.979  0.6427 -0.3463  0.6198
   46CHL1   C17 3354   1.890   4.822   7.923  0.5894  0.3134  0.2930
   46CHL1   H17 3355   1.865   4.928   7.902  0.5663  0.0492 -1.0151
   46CHL1   C13 3356   1.869   4.751   7.783  1.1335  0.3353  0.0863
   46CHL1   C18 3357   1.864   4.592   7.799 -0.0961 -0.2261 -0.2376
   46CHL1  H18A 3358   1.779   4.557   7.862 -0.0520 -0.1249 -0.1225
   46CHL1  H18B 3359   1.859   4.543   7.700 -1.0252  0.3993 -0.5010
   46CHL1  H18C 3360   1.958   4.556   7.847  0.2660  2.6876  1.3655
   46CHL1   C12 3361   1.751   4.800   7.697 -0.3957  0.5270  0.0594
   46CHL1  H12A 3362   1.650   4.780   7.739  0.2324 -1.0358  0.8961
   46CHL1  H12B 3363   1.763   4.910   7.688 -0.1518  0.4738 -0.3079
   46CHL1   C11 3364   1.745   4.741   7.557  0.5672  0.4934  0.1963
   46CHL1  H11A 3365   1.737   4.630   7.564 -0.7397  0.5371 -0.5509
   46CHL1  H11B 3366   1.659   4.782   7.500  1.0293 -2.1166 -2.5387
   46CHL1    C9 3367   1.888   4.767   7.485 -0.2578  0.0037 -0.3904
   46CHL1    H9 3368   1.891   4.877   7.472 -0.6618 -0.2971 -3.4280
   46CHL1   C10 3369   1.889   4.703   7.340  0.0565  0.2680  0.1250
   46CHL1   C19 3370   1.875   4.548   7.340  0.2104 -0.1494 -0.5599
   46CHL1  H19A 3371   1.767   4.521   7.335  0.6168 -2.0002  0.3521
   46CHL1  H19B 3372   1.901   4.502   7.242 -3.3780  0.1767 -1.7577
   46CHL1  H19C 3373   1.912   4.492   7.429 -1.5718 -0.3089  0.1009
   46CHL1    C1 3374   1.784   4.760   7.245  0.5034  0.3072 -0.7848
   46CHL1   H1A 3375   1.684   4.731   7.284  2.1757 -0.3907  3.1893
   46CHL1   H1B 3376   1.794   4.870   7.248  0.7332  0.2601  2.0654
   46CHL1    C2 3377   1.790   4.730   7.097 -0.2211  0.5128 -0.6544
   46CHL1   H2A 3378   1.703   4.774   7.043  0.4092  2.9064  0.2258
   46CHL1   H2B 3379   1.799   4.622   7.071 -1.1119  0.0872  0.7369
   46CHL1   C20 3380   1.812   4.775   8.050 -0.1754  0.3130  1.0503
   46CHL1   H20 3381   1.836   4.668   8.067 -0.7237 -0.3913 -2.1939
   46CHL1   C21 3382   1.659   4.796   8.026 -0.4647 -1.1564 -0.3304
   46CHL1  H21A 3383   1.606   4.769   8.121  2.2885  1.2126  1.9681
   46CHL1  H21B 3384   1.617   4.735   7.943 -1.8352 -0.9533  0.1871
   46CHL1  H21C 3385   1.636   4.898   7.990 -4.3312 -1.5311  0.8549
   46CHL1   C22 3386   1.850   4.852   8.186 -0.3193 -0.5322  0.4828
   46CHL1  H22A 3387   1.960   4.857   8.198 -0.0984 -2.0710 -0.8528
   46CHL1  H22B 3388   1.823   4.960   8.187 -1.2841 -0.7426 -0.8913
   46CHL1   C23 3389   1.792   4.779   8.318  0.9780 -0.9109  0.0076
   46CHL1  H23A 3390   1.682   4.781   8.309  0.8518  0.7221  1.6018
   46CHL1  H23B 3391   1.821   4.673   8.329 -1.3188 -1.3677  1.8049
   46CHL1   C24 3392   1.834   4.857   8.439 -0.0754  0.0014 -0.2968
   46CHL1  H24A 3393   1.942   4.845   8.458  0.8291  1.6463 -4.0313
   46CHL1  H24B 3394   1.815   4.966   8.426  0.3470 -0.3301 -4.5122
   46CHL1   C25 3395   1.757   4.802   8.567 -0.2228  0.2950  0.2065
   46CHL1   H25 3396   1.661   4.773   8.521 -0.6760  1.3435  0.4848
   46CHL1   C26 3397   1.835   4.676   8.630 -0.1539 -0.3234  0.8754
   46CHL1  H26A 3398   1.792   4.657   8.731 -0.0355 -1.7185  0.6707
   46CHL1  H26B 3399   1.836   4.587   8.563  1.0614 -1.0870  1.9025
   46CHL1  H26C 3400   1.941   4.697   8.652 -0.7300  0.5006  2.9624
   46CHL1   C27 3401   1.738   4.914   8.669  0.3979 -0.1118 -0.0680
   46CHL1  H27A 3402   1.695   5.004   8.619  1.8223  0.3545 -0.4758
   46CHL1  H27B 3403   1.677   4.873   8.752 -2.4977  0.2259 -1.9357
   46CHL1  H27C 3404   1.842   4.924   8.708  1.3268  0.7824 -2.6606
   47CHL1    C3 3405   1.153   4.847   6.667 -0.3954  0.1715  0.8375
   47CHL1    H3 3406   1.170   4.957   6.677 -0.7057  0.3859 -0.7833
   47CHL1    O3 3407   1.154   4.819   6.529  0.2019  0.6048 -0.1171
   47CHL1   H3' 3408   1.154   4.723   6.525 -0.6022  0.6303 -1.0220
   47CHL1    C4 3409   1.275   4.779   6.729 -0.2221 -0.4050  0.8460
   47CHL1   H4A 3410   1.262   4.669   6.717 -2.2665  0.1930 -3.3108
   47CHL1   H4B 3411   1.361   4.819   6.672 -0.4789  0.2452  0.9152
   47CHL1    C5 3412   1.287   4.815   6.877  0.3049 -0.6989 -0.3451
   47CHL1    C6 3413   1.394   4.880   6.923  0.1534 -0.1307  0.3382
   47CHL1    H6 3414   1.485   4.882   6.861  0.4324  2.6533  0.7859
   47CHL1    C7 3415   1.404   4.917   7.067 -0.5161  0.1640  0.1278
   47CHL1   H7A 3416   1.504   4.884   7.100  0.0598  1.2857 -0.4770
   47CHL1   H7B 3417   1.397   5.028   7.069  0.4035  0.2171  1.0790
   47CHL1    C8 3418   1.304   4.851   7.164  0.0726  0.4775  0.6351
   47CHL1    H8 3419   1.332   4.744   7.180 -3.0088 -0.6722 -1.1336
   47CHL1   C14 3420   1.313   4.920   7.300  0.3870 -0.1881 -0.9832
   47CHL1   H14 3421   1.283   5.025   7.283  2.1434  0.4223 -0.4760
   47CHL1   C15 3422   1.443   4.940   7.372  0.0461 -0.0058  0.3287
   47CHL1  H15A 3423   1.506   4.849   7.364  0.1784  0.1737 -0.7916
   47CHL1  H15B 3424   1.502   5.024   7.329  0.1031 -1.3653 -2.3969
   47CHL1   C16 3425   1.398   4.955   7.518 -0.3211 -0.2325 -0.3240
   47CHL1  H16A 3426   1.434   4.872   7.583  0.2668 -0.8968 -1.4786
   47CHL1  H16B 3427   1.439   5.052   7.553 -2.8007  1.1527 -1.1818
   47CHL1   C17 3428   1.245   4.947   7.518  0.5031 -0.3215  0.4297
   47CHL1   H17 3429   1.210   5.050   7.498 -0.1478 -0.5543  0.3559
   47CHL1   C13 3430   1.216   4.858   7.399  0.5859 -0.1878  0.0801
   47CHL1   C18 3431   1.251   4.711   7.435 -0.0749  0.2973  0.1056
   47CHL1  H18A 3432   1.349   4.690   7.483  0.6464  0.5917 -1.2315
   47CHL1  H18B 3433   1.176   4.676   7.509 -0.8900  0.8845 -0.4260
   47CHL1  H18C 3434   1.237   4.649   7.345 -2.1001 -0.6466  1.0347
   47CHL1   C12 3435   1.068   4.864   7.343 -0.4587  0.3982 -0.7914
   47CHL1  H12A 3436   0.996   4.804   7.404  0.6485 -1.1020 -0.9120
   47CHL1  H12B 3437   1.032   4.968   7.348 -1.2948  0.1406 -1.4567
   47CHL1   C11 3438   1.060   4.800   7.204 -0.6545 -0.1626 -0.5949
   47CHL1  H11A 3439   1.074   4.690   7.214 -0.9214 -0.2313 -0.9458
   47CHL1  H11B 3440   0.956   4.813   7.165 -0.5750  3.3494  0.2255
   47CHL1    C9 3441   1.169   4.851   7.107 -0.4974 -0.6249  0.1883
   47CHL1    H9 3442   1.146   4.958   7.089 -1.7951 -0.9774 -0.3109
   47CHL1   C10 3443   1.159   4.781   6.968  0.7616  0.6718 -0.3924
   47CHL1   C19 3444   1.152   4.627   6.990  1.2758  0.1056  0.3518
   47CHL1  H19A 3445   1.052   4.607   7.032  1.3172 -0.8162  0.0340
   47CHL1  H19B 3446   1.158   4.560   6.901  1.7066 -1.1373  1.3074
   47CHL1  H19C 3447   1.221   4.593   7.070 -0.1184 -0.6518  1.2457
   47CHL1    C1 3448   1.033   4.832   6.891 -0.6632 -0.4037  0.5867
   47CHL1   H1A 3449   0.935   4.792   6.926 -1.3650  0.9462  0.1895
   47CHL1   H1B 3450   1.033   4.942   6.904  2.2009 -0.3489  0.2997
   47CHL1    C2 3451   1.028   4.804   6.738 -0.3549  0.2297  0.2257
   47CHL1   H2A 3452   0.942   4.856   6.690  0.0011  0.8058  0.2075
   47CHL1   H2B 3453   1.004   4.696   6.734  1.8759 -0.2392 -0.9398
   47CHL1   C20 3454   1.190   4.911   7.656  0.4948  0.2732 -0.4113
   47CHL1   H20 3455   1.218   4.805   7.670 -2.0744 -0.0547  2.7872
   47CHL1   C21 3456   1.041   4.918   7.665 -0.9535 -0.9826  0.2263
   47CHL1  H21A 3457   1.025   5.027   7.656  2.8936 -0.3099  0.8070
   47CHL1  H21B 3458   0.993   4.885   7.759  0.4176 -1.9026  0.6119
   47CHL1  H21C 3459   0.990   4.853   7.590  1.1034 -1.3799 -0.8808
   47CHL1   C22 3460   1.263   4.989   7.768 -0.8611 -0.5012 -0.4815
   47CHL1  H22A 3461   1.373   4.976   7.760 -0.8707 -0.3397 -0.8681
   47CHL1  H22B 3462   1.255   5.099   7.761 -1.5501 -0.5339 -0.2298
   47CHL1   C23 3463   1.223   4.951   7.908 -0.2155  0.6466  0.0056
   47CHL1  H23A 3464   1.134   5.008   7.942 -0.1414  0.3338  0.7215
   47CHL1  H23B 3465   1.210   4.841   7.916  1.9768  0.5461  2.8961
   47CHL1   C24 3466   1.321   4.993   8.014 -0.1406 -0.2174 -0.0074
   47CHL1  H24A 3467   1.291   4.945   8.110  2.6219 -0.5549  0.7177
   47CHL1  H24B 3468   1.423   4.958   7.988  0.1511  0.3726  0.3298
   47CHL1   C25 3469   1.338   5.145   8.034  0.4159 -0.4290  0.0817
   47CHL1   H25 3470   1.300   5.199   7.945 -1.5404 -0.2261  1.0254
   47CHL1   C26 3471   1.242   5.192   8.152  0.5254  0.0029  0.6951
   47CHL1  H26A 3472   1.255   5.142   8.250 -1.3982 -0.6179  0.6535
   47CHL1  H26B 3473   1.263   5.301   8.150 -1.5033  0.3906 -1.0697
   47CHL1  H26C 3474   1.138   5.166   8.123  0.8349  0.4098 -0.7870
   47CHL1   C27 3475   1.489   5.188   8.064  0.4631 -0.4483 -0.9019
   47CHL1  H27A 3476   1.530   5.143   8.157 -1.2379  0.6128  0.3924
   47CHL1  H27B 3477   1.555   5.168   7.976 -0.0499  0.9390 -1.6085
   47CHL1  H27C 3478   1.494   5.298   8.080  1.5553 -0.5875 -0.1466
   48CHL1    C3 3479   5.365   0.803   6.275  0.3519 -0.4670 -1.0136
   48CHL1    H3 3480   5.452   0.744   6.312  0.4190  2.1401  3.2602
   48CHL1    O3 3481   5.398   0.825   6.141 -0.0636 -0.1257 -0.1706
   48CHL1   H3' 3482   5.332   0.880   6.098 -0.0417 -0.7866 -1.0438
   48CHL1    C4 3483   5.240   0.719   6.287 -0.1287 -0.5454 -0.5819
   48CHL1   H4A 3484   5.144   0.754   6.244  0.2563 -0.8084 -1.6737
   48CHL1   H4B 3485   5.251   0.625   6.229  1.8582 -0.6488 -0.0942
   48CHL1    C5 3486   5.207   0.699   6.438 -0.2809 -0.2912  0.4169
   48CHL1    C6 3487   5.179   0.573   6.482 -0.1138 -0.0627  0.1096
   48CHL1    H6 3488   5.186   0.492   6.408  0.6155 -1.6582  1.8949
   48CHL1    C7 3489   5.162   0.537   6.628  0.7227 -0.1812 -0.1286
   48CHL1   H7A 3490   5.076   0.469   6.643 -1.3223  1.7086 -2.7807
   48CHL1   H7B 3491   5.248   0.481   6.671 -0.0957  1.0302  3.2664
   48CHL1    C8 3492   5.149   0.660   6.721  0.1416 -0.2585  0.4422
   48CHL1    H8 3493   5.045   0.698   6.717 -0.4953 -2.0270 -0.8826
   48CHL1   C14 3494   5.168   0.619   6.863  0.2233  0.2497  0.1574
   48CHL1   H14 3495   5.275   0.590   6.873 -0.4402 -2.5958 -0.6641
   48CHL1   C15 3496   5.092   0.498   6.925  0.1240  0.6634 -0.0313
   48CHL1  H15A 3497   4.985   0.498   6.893  0.4340  1.6325 -1.1157
   48CHL1  H15B 3498   5.128   0.397   6.897  1.3290  0.8204  0.9306
   48CHL1   C16 3499   5.109   0.511   7.076 -0.3734 -0.2894  0.0855
   48CHL1  H16A 3500   5.016   0.478   7.128 -1.0591  0.4777 -0.6491
   48CHL1  H16B 3501   5.188   0.443   7.115 -1.4584 -1.2653  0.5873
   48CHL1   C17 3502   5.156   0.658   7.090 -0.0330  0.0156 -0.5110
   48CHL1   H17 3503   5.265   0.643   7.098 -0.1237  0.1031  0.9179
   48CHL1   C13 3504   5.140   0.737   6.956 -0.4738  0.1565  0.5261
   48CHL1   C18 3505   4.995   0.791   6.948  0.1632  0.2089 -0.0066
   48CHL1  H18A 3506   4.986   0.865   7.030 -0.7388  2.4774 -2.0851
   48CHL1  H18B 3507   4.965   0.838   6.852 -3.1445  1.2990  1.4897
   48CHL1  H18C 3508   4.925   0.707   6.971  2.5305 -2.4913 -2.1844
   48CHL1   C12 3509   5.248   0.842   6.934  0.1044  0.0225  0.8230
   48CHL1  H12A 3510   5.225   0.920   7.009 -1.0644 -1.1410  1.6972
   48CHL1  H12B 3511   5.344   0.789   6.953 -0.0324 -0.6649 -0.3757
   48CHL1   C11 3512   5.226   0.893   6.791  0.7351 -0.2080  0.1966
   48CHL1  H11A 3513   5.135   0.956   6.788  1.3875  0.6751 -3.2714
   48CHL1  H11B 3514   5.305   0.969   6.778  0.2007  0.6787  1.9881
   48CHL1    C9 3515   5.236   0.778   6.684  0.7741  0.7454 -0.2098
   48CHL1    H9 3516   5.342   0.746   6.690  0.5656  0.2150  0.5932
   48CHL1   C10 3517   5.215   0.817   6.535  0.0098 -0.0849  0.0333
   48CHL1   C19 3518   5.086   0.896   6.525  0.2338 -0.2353 -0.0693
   48CHL1  H19A 3519   5.005   0.837   6.573  0.5244 -0.3020  0.3468
   48CHL1  H19B 3520   5.082   0.995   6.576 -0.5754 -0.2998 -0.0091
   48CHL1  H19C 3521   5.063   0.912   6.418 -1.6358 -1.6452  0.0881
   48CHL1    C1 3522   5.335   0.912   6.497 -0.0967 -0.4187  0.3267
   48CHL1   H1A 3523   5.330   1.018   6.530  0.6447  0.4174 -2.1378
   48CHL1   H1B 3524   5.426   0.875   6.549  0.5337 -0.7736 -1.0152
   48CHL1    C2 3525   5.360   0.937   6.349  0.1872  0.1258  0.7084
   48CHL1   H2A 3526   5.458   0.989   6.337  1.3292 -2.1319 -0.1015
   48CHL1   H2B 3527   5.288   1.007   6.302  0.9773 -0.3102 -1.1924
   48CHL1   C20 3528   5.125   0.721   7.228  0.5693  0.7041  0.4436
   48CHL1   H20 3529   5.123   0.832   7.220  1.7568  0.7621  0.8532
   48CHL1   C21 3530   5.236   0.674   7.331 -0.8424 -0.2678 -0.3303
   48CHL1  H21A 3531   5.217   0.704   7.436  0.0659  0.3532 -0.3345
   48CHL1  H21B 3532   5.323   0.727   7.287 -0.9565 -1.2527 -1.7643
   48CHL1  H21C 3533   5.248   0.564   7.322  0.0580 -0.0234 -2.4559
   48CHL1   C22 3534   4.984   0.690   7.294 -0.1869  0.2698  0.7916
   48CHL1  H22A 3535   4.903   0.737   7.233 -1.5467 -0.4597  2.0037
   48CHL1  H22B 3536   4.976   0.580   7.304 -0.6341  0.2510  0.2691
   48CHL1   C23 3537   4.963   0.758   7.438  0.4676 -0.1880 -0.0260
   48CHL1  H23A 3538   4.993   0.682   7.514  0.3494  0.3163  0.5342
   48CHL1  H23B 3539   5.033   0.844   7.441 -0.2468  0.4856 -1.9412
   48CHL1   C24 3540   4.813   0.788   7.467  0.2211 -0.4465  0.4114
   48CHL1  H24A 3541   4.764   0.822   7.373  1.6728  0.2132 -0.1139
   48CHL1  H24B 3542   4.768   0.689   7.485 -1.3267  0.1735  0.0329
   48CHL1   C25 3543   4.785   0.872   7.590 -0.2096 -0.2672  0.2784
   48CHL1   H25 3544   4.844   0.965   7.577  2.2794 -1.7354  0.9053
   48CHL1   C26 3545   4.638   0.927   7.588 -0.0104 -0.7038  0.0234
   48CHL1  H26A 3546   4.611   0.973   7.685  3.0411 -2.3385  1.7057
   48CHL1  H26B 3547   4.613   0.993   7.502 -1.5329 -0.6584  0.4802
   48CHL1  H26C 3548   4.577   0.835   7.571  2.0546 -2.2914  0.9418
   48CHL1   C27 3549   4.826   0.813   7.721  0.0915  0.0079  0.1336
   48CHL1  H27A 3550   4.797   0.706   7.729 -0.7461  0.0975 -1.5238
   48CHL1  H27B 3551   4.936   0.801   7.720 -0.3800 -5.7964 -1.4559
   48CHL1  H27C 3552   4.790   0.875   7.805  1.6623  2.9877 -1.3141
   49CHL1    C3 3553   3.621   1.267   6.687  1.0660 -0.2553  0.2332
   49CHL1    H3 3554   3.562   1.361   6.678  2.1926  0.4227 -0.1515
   49CHL1    O3 3555   3.597   1.194   6.564  0.5993  0.4556  0.0425
   49CHL1   H3' 3556   3.628   1.248   6.491  2.6257  0.5892  0.9859
   49CHL1    C4 3557   3.774   1.291   6.702  0.1513 -0.6109 -0.6551
   49CHL1   H4A 3558   3.824   1.193   6.681 -1.5667 -1.7364  0.3883
   49CHL1   H4B 3559   3.817   1.362   6.629  2.1634 -1.1919 -0.0820
   49CHL1    C5 3560   3.814   1.338   6.847  0.0468  0.3132  0.3850
   49CHL1    C6 3561   3.893   1.446   6.864 -0.4478 -1.0975 -0.4524
   49CHL1    H6 3562   3.940   1.501   6.780 -0.1789 -2.4956 -1.2245
   49CHL1    C7 3563   3.915   1.510   7.001 -0.7189 -0.7840  0.2114
   49CHL1   H7A 3564   4.022   1.539   6.994  0.0501 -3.6830 -0.8199
   49CHL1   H7B 3565   3.857   1.601   7.024 -0.6370 -0.6172 -0.2293
   49CHL1    C8 3566   3.895   1.411   7.116  0.2966  0.3081  0.2870
   49CHL1    H8 3567   3.979   1.338   7.114  0.0050 -0.0338  0.4561
   49CHL1   C14 3568   3.898   1.483   7.249 -0.3784 -0.8302  0.2738
   49CHL1   H14 3569   3.816   1.555   7.230 -0.7638 -1.4987 -0.6599
   49CHL1   C15 3570   4.022   1.567   7.272 -0.4565 -0.6612  0.9030
   49CHL1  H15A 3571   4.101   1.510   7.219  0.8220  0.4920  1.5523
   49CHL1  H15B 3572   4.007   1.663   7.219  1.3888 -1.3042 -0.8355
   49CHL1   C16 3573   4.022   1.575   7.421 -0.9442 -0.1841  0.5624
   49CHL1  H16A 3574   4.116   1.522   7.450 -0.5250  0.0733 -0.3045
   49CHL1  H16B 3575   4.025   1.681   7.455  2.3329 -0.0028 -0.1004
   49CHL1   C17 3576   3.896   1.500   7.484  0.6947  0.0345 -0.1631
   49CHL1   H17 3577   3.814   1.575   7.488  0.4473 -0.0381 -2.7948
   49CHL1   C13 3578   3.876   1.394   7.372 -0.3218  0.0098 -0.3396
   49CHL1   C18 3579   3.990   1.292   7.372 -0.2182  0.5265 -0.5438
   49CHL1  H18A 3580   3.989   1.220   7.287  0.5305  1.3177 -1.2361
   49CHL1  H18B 3581   4.095   1.328   7.376  0.2014 -0.7319 -0.0542
   49CHL1  H18C 3582   3.970   1.225   7.458 -1.0593 -1.3603 -2.1684
   49CHL1   C12 3583   3.741   1.313   7.356  0.6897 -0.5213 -0.0097
   49CHL1  H12A 3584   3.742   1.237   7.436 -0.9226 -1.1333 -0.5421
   49CHL1  H12B 3585   3.651   1.378   7.362 -0.7449 -2.1682 -2.6317
   49CHL1   C11 3586   3.729   1.238   7.222 -0.1019 -0.1954 -0.5837
   49CHL1  H11A 3587   3.796   1.150   7.223  0.4457  0.2090 -1.3266
   49CHL1  H11B 3588   3.623   1.204   7.217  0.0472 -1.0059  1.2420
   49CHL1    C9 3589   3.764   1.332   7.100  0.4688  0.9316 -0.3697
   49CHL1    H9 3590   3.689   1.414   7.095  0.6033  1.1114  0.5297
   49CHL1   C10 3591   3.752   1.260   6.962  0.5242  0.3309 -0.1572
   49CHL1   C19 3592   3.819   1.115   6.959 -0.2171 -0.1801 -0.2119
   49CHL1  H19A 3593   3.927   1.126   6.984 -0.5665  0.1168  1.2043
   49CHL1  H19B 3594   3.780   1.051   7.041 -1.0352 -1.1498 -1.3457
   49CHL1  H19C 3595   3.807   1.074   6.856  1.0797  0.2255 -0.5338
   49CHL1    C1 3596   3.598   1.237   6.943  0.2880  0.3984 -0.1947
   49CHL1   H1A 3597   3.561   1.164   7.018  2.2466 -3.3460 -2.7263
   49CHL1   H1B 3598   3.547   1.333   6.967  1.8040  0.3178  3.6233
   49CHL1    C2 3599   3.561   1.186   6.798 -0.2327 -0.0254  0.4269
   49CHL1   H2A 3600   3.450   1.183   6.784  0.0438 -0.7301 -1.7183
   49CHL1   H2B 3601   3.587   1.078   6.793  2.5094  0.5258  2.2699
   49CHL1   C20 3602   3.921   1.451   7.639 -0.0438  0.5332  0.0207
   49CHL1   H20 3603   4.021   1.403   7.649  0.9723  2.6113  0.1220
   49CHL1   C21 3604   3.820   1.344   7.672  0.8036 -1.0257 -0.5397
   49CHL1  H21A 3605   3.831   1.304   7.775  0.8805  1.3478  0.4059
   49CHL1  H21B 3606   3.840   1.260   7.602  2.0719 -0.8588 -0.3865
   49CHL1  H21C 3607   3.713   1.373   7.659  0.2590 -1.5105  2.4043
   49CHL1   C22 3608   3.908   1.578   7.737 -0.2974  0.6212  0.2737
   49CHL1  H22A 3609   3.971   1.657   7.692  1.8741 -0.3967  1.4569
   49CHL1  H22B 3610   3.799   1.598   7.731 -0.2628  1.0318  1.0790
   49CHL1   C23 3611   3.950   1.557   7.882  0.0031  0.0969  1.4428
   49CHL1  H23A 3612   3.935   1.656   7.930  1.7469  0.4089  1.3925
   49CHL1  H23B 3613   3.878   1.485   7.925 -2.1975  0.4257 -1.5189
   49CHL1   C24 3614   4.096   1.516   7.917  0.5041  0.1618 -0.6492
   49CHL1  H24A 3615   4.113   1.416   7.872 -1.5557 -0.1104 -0.8770
   49CHL1  H24B 3616   4.173   1.579   7.868 -0.0205  0.2030 -1.4376
   49CHL1   C25 3617   4.125   1.499   8.060 -0.2137  0.6479  0.3570
   49CHL1   H25 3618   4.067   1.412   8.098  1.1474 -0.9000 -1.0100
   49CHL1   C26 3619   4.270   1.454   8.099  0.2619  0.2607 -0.1496
   49CHL1  H26A 3620   4.290   1.363   8.038 -0.1563 -0.0597  0.1940
   49CHL1  H26B 3621   4.335   1.535   8.060 -1.0068  1.5373  0.3301
   49CHL1  H26C 3622   4.272   1.438   8.209 -1.0777 -1.6688 -0.3914
   49CHL1   C27 3623   4.101   1.619   8.150  0.4432  0.6445  0.3549
   49CHL1  H27A 3624   3.992   1.639   8.157  0.4307  0.9819 -0.7651
   49CHL1  H27B 3625   4.140   1.593   8.251 -1.8229  2.1804  1.6861
   49CHL1  H27C 3626   4.152   1.704   8.100  0.4252  0.6213  0.2976
   50CHL1    C3 3627   4.166   3.172   6.815  0.3628  0.1222  0.4120
   50CHL1    H3 3628   4.121   3.264   6.857  2.2502  1.6719 -0.8918
   50CHL1    O3 3629   4.134   3.157   6.681 -0.3604  0.1588 -0.4498
   50CHL1   H3' 3630   4.039   3.174   6.675 -0.5244 -0.6166 -0.0705
   50CHL1    C4 3631   4.315   3.168   6.839  0.3232  0.4664 -0.4180
   50CHL1   H4A 3632   4.361   3.074   6.802  1.5308  0.7015  0.4583
   50CHL1   H4B 3633   4.359   3.245   6.772  0.9572  0.1718 -0.3349
   50CHL1    C5 3634   4.344   3.174   6.987 -0.3229  0.2742  0.1891
   50CHL1    C6 3635   4.414   3.273   7.032 -0.2605  0.3799 -0.0078
   50CHL1    H6 3636   4.442   3.351   6.960 -4.1218  1.4961 -0.4486
   50CHL1    C7 3637   4.453   3.295   7.178  0.3665 -0.1175  0.7757
   50CHL1   H7A 3638   4.557   3.329   7.197 -0.2971  1.4840  1.5734
   50CHL1   H7B 3639   4.385   3.374   7.217  0.2843  0.9583 -1.4867
   50CHL1    C8 3640   4.430   3.152   7.252  0.2625 -0.3733 -0.6611
   50CHL1    H8 3641   4.508   3.085   7.210  1.5524  0.3638  0.5016
   50CHL1   C14 3642   4.438   3.168   7.400  0.7602  0.7165 -0.2585
   50CHL1   H14 3643   4.359   3.236   7.437 -0.0050 -0.7037  0.7602
   50CHL1   C15 3644   4.565   3.237   7.446 -0.3163  0.2447 -0.0954
   50CHL1  H15A 3645   4.651   3.196   7.390 -0.1164 -0.2330  0.5510
   50CHL1  H15B 3646   4.553   3.345   7.422  0.9505  0.1473 -1.1935
   50CHL1   C16 3647   4.576   3.209   7.595  0.5695  0.3874 -0.0160
   50CHL1  H16A 3648   4.679   3.171   7.612  0.5262  0.0174 -0.5470
   50CHL1  H16B 3649   4.560   3.296   7.661  0.2312  1.4130 -1.4301
   50CHL1   C17 3650   4.477   3.096   7.617 -0.1246 -0.0815 -1.2172
   50CHL1   H17 3651   4.384   3.144   7.652  0.8898  0.4938  0.7658
   50CHL1   C13 3652   4.436   3.041   7.479  0.0309  0.5434  0.4128
   50CHL1   C18 3653   4.542   2.937   7.439  0.3265  0.1136 -0.0845
   50CHL1  H18A 3654   4.519   2.843   7.493 -1.5480  3.1399  4.6924
   50CHL1  H18B 3655   4.544   2.916   7.330  0.4510  0.8657 -0.2326
   50CHL1  H18C 3656   4.644   2.979   7.457  0.2934 -0.6710  2.0047
   50CHL1   C12 3657   4.291   2.991   7.465 -0.1623  0.1372  0.1720
   50CHL1  H12A 3658   4.276   2.897   7.522  0.8621 -1.1356 -1.5954
   50CHL1  H12B 3659   4.226   3.070   7.508 -0.0063  0.3401  0.0355
   50CHL1   C11 3660   4.258   2.970   7.317 -0.0119 -0.7113 -0.0958
   50CHL1  H11A 3661   4.318   2.879   7.295  1.5570 -0.1502  1.7710
   50CHL1  H11B 3662   4.151   2.946   7.297 -0.2725 -0.3685  0.8674
   50CHL1    C9 3663   4.294   3.092   7.224  0.0384 -0.0789  0.5014
   50CHL1    H9 3664   4.219   3.168   7.254  0.4443  0.8731 -0.8459
   50CHL1   C10 3665   4.274   3.065   7.075  0.6206 -0.0851 -0.0317
   50CHL1   C19 3666   4.335   2.931   7.046 -1.0511  0.7771  0.6654
   50CHL1  H19A 3667   4.289   2.843   7.097  0.2647  0.5807  1.5334
   50CHL1  H19B 3668   4.333   2.899   6.940  3.1467 -2.7442  1.4906
   50CHL1  H19C 3669   4.441   2.924   7.078  0.0759 -3.3885 -3.4398
   50CHL1    C1 3670   4.118   3.072   7.038  0.2242  0.0375 -0.2537
   50CHL1   H1A 3671   4.058   2.993   7.088  2.2776 -1.2202  0.2801
   50CHL1   H1B 3672   4.080   3.173   7.063  0.8505  0.3591 -0.5953
   50CHL1    C2 3673   4.093   3.062   6.883 -0.3777 -0.7173  0.0016
   50CHL1   H2A 3674   3.982   3.059   6.880 -0.3369 -3.3379 -0.3249
   50CHL1   H2B 3675   4.125   2.959   6.855  2.3517 -0.0746  0.5836
   50CHL1   C20 3676   4.518   2.997   7.729 -0.6101 -0.4674  0.2356
   50CHL1   H20 3677   4.600   2.928   7.699  0.7903  1.8443 -1.4153
   50CHL1   C21 3678   4.397   2.910   7.768  0.0442  0.8406  0.1935
   50CHL1  H21A 3679   4.364   2.838   7.691 -1.2229 -0.2147  1.6964
   50CHL1  H21B 3680   4.303   2.964   7.791  0.1132  1.4800 -0.9704
   50CHL1  H21C 3681   4.417   2.852   7.860  1.5689  0.9458 -0.0576
   50CHL1   C22 3682   4.577   3.069   7.851 -0.0863  0.3358  0.9115
   50CHL1  H22A 3683   4.598   2.986   7.921 -2.1164 -0.7964  0.2199
   50CHL1  H22B 3684   4.675   3.113   7.825  1.7999 -3.0874  1.9437
   50CHL1   C23 3685   4.478   3.170   7.909 -0.1313 -0.5821  0.5677
   50CHL1  H23A 3686   4.433   3.236   7.832  0.9735 -0.8660 -0.3328
   50CHL1  H23B 3687   4.392   3.107   7.938  0.2543 -1.0435  0.7096
   50CHL1   C24 3688   4.517   3.253   8.025 -0.2295  0.7116 -0.1201
   50CHL1  H24A 3689   4.566   3.183   8.096 -3.3930 -3.7269 -2.0828
   50CHL1  H24B 3690   4.591   3.330   7.994 -1.3568  1.8097 -0.1602
   50CHL1   C25 3691   4.403   3.332   8.097 -0.3373  0.3409 -0.0648
   50CHL1   H25 3692   4.345   3.368   8.010  1.1283 -0.8504 -1.5661
   50CHL1   C26 3693   4.312   3.246   8.181  0.0008  1.4375  0.1082
   50CHL1  H26A 3694   4.278   3.158   8.123 -0.9998  0.6782  1.8312
   50CHL1  H26B 3695   4.359   3.208   8.275  1.1634 -0.2335 -1.1226
   50CHL1  H26C 3696   4.218   3.296   8.211  0.0135  0.8939  1.0736
   50CHL1   C27 3697   4.461   3.444   8.177  0.6819  0.7246  0.0328
   50CHL1  H27A 3698   4.494   3.522   8.105  2.4743  0.2763  0.3446
   50CHL1  H27B 3699   4.386   3.500   8.237 -1.6813 -0.7317 -1.4486
   50CHL1  H27C 3700   4.548   3.413   8.239  0.6365  0.5916  0.0319
   51CHL1    C3 3701   4.287   1.803   6.747 -0.0709  0.0989  0.2595
   51CHL1    H3 3702   4.244   1.906   6.747 -0.4228 -0.0305 -1.6972
   51CHL1    O3 3703   4.274   1.743   6.617 -0.0444  0.5871 -0.0918
   51CHL1   H3' 3704   4.179   1.745   6.604  0.1147  3.1343 -1.0506
   51CHL1    C4 3705   4.434   1.821   6.786 -0.4602 -0.0188  0.7824
   51CHL1   H4A 3706   4.483   1.724   6.766  1.0748  1.4319 -2.8406
   51CHL1   H4B 3707   4.485   1.893   6.718 -1.3949  0.5087  0.6303
   51CHL1    C5 3708   4.450   1.864   6.938 -0.7836 -0.0237  0.4393
   51CHL1    C6 3709   4.521   1.978   6.967  0.5065  1.1001  0.1180
   51CHL1    H6 3710   4.578   2.026   6.887 -1.4406 -0.7485 -2.4587
   51CHL1    C7 3711   4.556   2.030   7.106  0.8186 -0.0875  0.0749
   51CHL1   H7A 3712   4.661   2.064   7.119  0.6786  0.3864 -0.0044
   51CHL1   H7B 3713   4.487   2.110   7.140  0.0215 -1.7379  2.4267
   51CHL1    C8 3714   4.514   1.924   7.216 -0.1139 -0.0689  0.4162
   51CHL1    H8 3715   4.589   1.842   7.221  0.8365  0.7220 -0.5444
   51CHL1   C14 3716   4.496   1.994   7.351 -0.6285  0.1281 -0.1064
   51CHL1   H14 3717   4.414   2.067   7.341 -1.7845 -0.9322  1.3842
   51CHL1   C15 3718   4.612   2.088   7.394 -0.3857  0.3233  0.4029
   51CHL1  H15A 3719   4.708   2.036   7.372 -0.0607  0.6475  1.0191
   51CHL1  H15B 3720   4.605   2.188   7.347 -0.9748  0.4910  0.8497
   51CHL1   C16 3721   4.601   2.092   7.551 -0.1417  0.3197 -0.1140
   51CHL1  H16A 3722   4.692   2.047   7.595 -0.1706  1.1126  0.8008
   51CHL1  H16B 3723   4.586   2.196   7.589 -1.9301  0.4305 -1.0539
   51CHL1   C17 3724   4.474   2.006   7.590 -0.0413 -0.3841  0.1168
   51CHL1   H17 3725   4.391   2.078   7.575 -0.1400 -0.5421 -0.1049
   51CHL1   C13 3726   4.468   1.904   7.474 -0.4305  0.7287 -0.6395
   51CHL1   C18 3727   4.592   1.805   7.490 -0.0050  0.7485 -0.5004
   51CHL1  H18A 3728   4.586   1.745   7.584  1.8227 -1.6709 -1.8712
   51CHL1  H18B 3729   4.567   1.730   7.413  1.1335 -0.9864  0.7779
   51CHL1  H18C 3730   4.691   1.840   7.454  0.7666  0.6765  1.4647
   51CHL1   C12 3731   4.339   1.828   7.447 -0.1935  0.0311 -0.0667
   51CHL1  H12A 3732   4.330   1.741   7.516  1.0707  0.4679  0.6632
   51CHL1  H12B 3733   4.257   1.901   7.457 -2.3312 -2.1505 -1.0606
   51CHL1   C11 3734   4.328   1.768   7.304  0.1574 -0.1344 -0.2530
   51CHL1  H11A 3735   4.389   1.676   7.310  1.9167  0.9823 -0.8558
   51CHL1  H11B 3736   4.220   1.746   7.287 -0.2576  0.8624  1.0031
   51CHL1    C9 3737   4.380   1.858   7.182  0.1826 -0.5532  0.0493
   51CHL1    H9 3738   4.307   1.941   7.182 -0.1845 -0.8565 -1.6306
   51CHL1   C10 3739   4.370   1.788   7.042  0.2741  0.4163  0.1365
   51CHL1   C19 3740   4.428   1.649   7.052  0.6392 -0.3973  0.4822
   51CHL1  H19A 3741   4.363   1.591   7.121  0.7130 -0.9359  0.1111
   51CHL1  H19B 3742   4.433   1.602   6.951  1.8618 -0.4425  0.5475
   51CHL1  H19C 3743   4.533   1.657   7.088  1.4225 -2.5358 -1.2044
   51CHL1    C1 3744   4.231   1.778   6.995  0.2820 -0.7615  0.1871
   51CHL1   H1A 3745   4.169   1.718   7.065  1.2436 -1.9505  0.0359
   51CHL1   H1B 3746   4.182   1.878   6.993 -2.9187 -2.2633  0.3774
   51CHL1    C2 3747   4.212   1.722   6.855  0.9617 -0.3250  0.0282
   51CHL1   H2A 3748   4.104   1.728   6.828  0.6317 -0.2589  1.2998
   51CHL1   H2B 3749   4.243   1.617   6.840 -0.6223 -0.3488 -3.4708
   51CHL1   C20 3750   4.472   1.947   7.726  0.1546  0.1581 -0.0956
   51CHL1   H20 3751   4.545   1.863   7.720 -0.2377 -0.2126  0.3192
   51CHL1   C21 3752   4.328   1.899   7.771  0.7962  0.5002  0.3739
   51CHL1  H21A 3753   4.331   1.852   7.872  2.4532  3.1915  1.6411
   51CHL1  H21B 3754   4.287   1.827   7.698 -0.1730  0.7818  0.6360
   51CHL1  H21C 3755   4.269   1.993   7.778  1.3311  0.8895 -0.2503
   51CHL1   C22 3756   4.538   2.041   7.829 -1.0709 -0.7391  0.2652
   51CHL1  H22A 3757   4.633   2.091   7.800  0.0490 -1.2554  2.9889
   51CHL1  H22B 3758   4.461   2.121   7.840 -0.3375  0.1116 -0.5881
   51CHL1   C23 3759   4.546   1.985   7.969  0.1761 -0.9060  0.2278
   51CHL1  H23A 3760   4.443   1.983   8.010 -0.7983 -0.9822 -2.1639
   51CHL1  H23B 3761   4.595   1.886   7.952  0.5371 -0.9347  1.3617
   51CHL1   C24 3762   4.614   2.075   8.065 -0.1515 -0.0041 -0.4807
   51CHL1  H24A 3763   4.707   2.115   8.020  0.6818 -1.6840 -0.2760
   51CHL1  H24B 3764   4.562   2.168   8.098  0.1570 -0.4725  1.3792
   51CHL1   C25 3765   4.639   2.015   8.213 -0.0988 -0.3897  0.0614
   51CHL1   H25 3766   4.670   1.909   8.204  1.1093 -0.2090  1.9708
   51CHL1   C26 3767   4.739   2.106   8.301 -0.9104 -0.1151  0.1323
   51CHL1  H26A 3768   4.690   2.194   8.348 -0.5666  0.8812 -1.3557
   51CHL1  H26B 3769   4.789   2.047   8.381 -0.1478 -0.2070 -0.4070
   51CHL1  H26C 3770   4.816   2.132   8.225  1.7465 -1.8637  2.1144
   51CHL1   C27 3771   4.505   1.995   8.287  0.0081 -0.2312 -0.5240
   51CHL1  H27A 3772   4.445   2.088   8.299 -0.7797 -0.6973 -0.8270
   51CHL1  H27B 3773   4.444   1.919   8.234 -0.0947 -2.0495  2.0995
   51CHL1  H27C 3774   4.516   1.972   8.395  1.1342  3.3081  0.1895
   52CHL1    C3 3775   6.223   3.492   6.969  0.5136  0.4120 -0.4781
   52CHL1    H3 3776   6.196   3.599   6.980  0.7089  0.5031 -0.8541
   52CHL1    O3 3777   6.228   3.463   6.832 -0.6838 -0.3728  0.2315
   52CHL1   H3' 3778   6.231   3.367   6.832 -0.2536 -0.4026 -2.6073
   52CHL1    C4 3779   6.353   3.441   7.033 -0.5095  0.2149  0.2178
   52CHL1   H4A 3780   6.362   3.337   6.994 -0.8223  1.2638 -2.6948
   52CHL1   H4B 3781   6.441   3.494   6.992 -0.5410  1.6331  1.9151
   52CHL1    C5 3782   6.357   3.463   7.187  0.3419 -1.1371  0.1345
   52CHL1    C6 3783   6.446   3.540   7.251 -0.1516 -0.4620  0.0938
   52CHL1    H6 3784   6.537   3.581   7.204  0.6802 -1.3240  0.9325
   52CHL1    C7 3785   6.451   3.537   7.395 -0.2946 -0.1618  0.2038
   52CHL1   H7A 3786   6.558   3.519   7.418 -0.4565 -1.6522 -0.2006
   52CHL1   H7B 3787   6.422   3.636   7.436  0.8729 -0.1148  0.9392
   52CHL1    C8 3788   6.359   3.436   7.465  0.5456  0.3064  0.2081
   52CHL1    H8 3789   6.420   3.344   7.471 -0.2257 -0.1214  1.4109
   52CHL1   C14 3790   6.337   3.470   7.611  1.0566 -0.5448  0.6814
   52CHL1   H14 3791   6.293   3.572   7.616  1.5708 -0.1325 -2.5857
   52CHL1   C15 3792   6.463   3.478   7.696 -0.3493 -0.8628  0.4497
   52CHL1  H15A 3793   6.529   3.395   7.664 -0.0162  0.0440 -1.2383
   52CHL1  H15B 3794   6.528   3.567   7.684 -1.0452 -0.2106  1.4129
   52CHL1   C16 3795   6.412   3.470   7.841  0.4207  0.0111 -0.5582
   52CHL1  H16A 3796   6.469   3.409   7.914  0.8288  0.0619 -0.8298
   52CHL1  H16B 3797   6.407   3.570   7.889 -1.0076  0.7803 -2.2333
   52CHL1   C17 3798   6.262   3.423   7.826 -0.0362 -0.1839 -0.2899
   52CHL1   H17 3799   6.206   3.519   7.820  0.0142 -0.1839 -0.8256
   52CHL1   C13 3800   6.253   3.365   7.687 -0.4272 -0.1450 -0.5973
   52CHL1   C18 3801   6.320   3.224   7.687 -0.1880  0.6276 -0.3785
   52CHL1  H18A 3802   6.265   3.154   7.753  1.0438  1.6125  1.7202
   52CHL1  H18B 3803   6.343   3.186   7.585  0.5663 -0.6219  0.2623
   52CHL1  H18C 3804   6.417   3.225   7.739 -0.3039  2.3280 -0.1762
   52CHL1   C12 3805   6.112   3.360   7.619  0.1527  0.5883 -0.1332
   52CHL1  H12A 3806   6.041   3.287   7.664  0.7008 -0.0546 -0.3150
   52CHL1  H12B 3807   6.069   3.462   7.611 -1.1195 -0.1502 -3.2119
   52CHL1   C11 3808   6.125   3.322   7.468 -0.1540  0.6114  0.1319
   52CHL1  H11A 3809   6.160   3.217   7.467  2.4780  1.4348  0.5000
   52CHL1  H11B 3810   6.027   3.319   7.417 -1.0817 -0.8590  1.9531
   52CHL1    C9 3811   6.226   3.411   7.398 -0.1097 -0.5257  0.5988
   52CHL1    H9 3812   6.170   3.506   7.407 -1.2495 -1.1261 -0.0113
   52CHL1   C10 3813   6.240   3.382   7.243 -1.0333 -0.3745 -0.0525
   52CHL1   C19 3814   6.266   3.219   7.229  0.0830 -0.6968  1.2154
   52CHL1  H19A 3815   6.300   3.193   7.127  0.5449  2.6525  0.4658
   52CHL1  H19B 3816   6.350   3.204   7.300  1.2408  1.1465  0.2851
   52CHL1  H19C 3817   6.177   3.158   7.252 -0.1482 -1.6762 -2.0378
   52CHL1    C1 3818   6.106   3.421   7.184 -0.8060  0.2249 -0.2425
   52CHL1   H1A 3819   6.028   3.348   7.216 -0.9011 -0.2601 -1.5481
   52CHL1   H1B 3820   6.079   3.520   7.226  1.2313  0.2539  1.0697
   52CHL1    C2 3821   6.112   3.409   7.029  0.4823 -0.6218 -0.3665
   52CHL1   H2A 3822   6.016   3.445   6.986  1.1849 -0.2665 -1.6904
   52CHL1   H2B 3823   6.133   3.305   6.997 -2.4391 -0.8574 -1.6344
   52CHL1   C20 3824   6.195   3.342   7.936 -0.0937 -0.1440  0.0384
   52CHL1   H20 3825   6.124   3.270   7.890  2.2373 -1.7772 -1.1241
   52CHL1   C21 3826   6.103   3.432   8.017 -0.8655 -0.2344  0.1108
   52CHL1  H21A 3827   6.036   3.381   8.090  0.1806 -0.4669  0.9318
   52CHL1  H21B 3828   6.039   3.497   7.955 -0.5090  0.8768  0.8902
   52CHL1  H21C 3829   6.177   3.499   8.066 -0.8838  1.6273 -2.3403
   52CHL1   C22 3830   6.292   3.266   8.028 -0.0083 -0.1888 -0.0873
   52CHL1  H22A 3831   6.380   3.227   7.972  0.7019  0.6571  0.4181
   52CHL1  H22B 3832   6.342   3.332   8.103 -0.8703  2.3480 -1.6901
   52CHL1   C23 3833   6.232   3.146   8.103  0.2821 -0.2088 -0.5296
   52CHL1  H23A 3834   6.311   3.097   8.163  0.7712 -1.3563 -2.0716
   52CHL1  H23B 3835   6.156   3.178   8.178  0.2307 -3.1420  0.7571
   52CHL1   C24 3836   6.164   3.046   8.018  0.6925 -0.2045  0.1271
   52CHL1  H24A 3837   6.090   3.087   7.946  0.6921 -1.4610 -0.6041
   52CHL1  H24B 3838   6.241   3.002   7.951  0.3467 -1.5220  0.5801
   52CHL1   C25 3839   6.101   2.923   8.090  0.1683 -0.4003  0.1056
   52CHL1   H25 3840   6.054   2.857   8.013  1.9286 -0.2736 -1.1069
   52CHL1   C26 3841   6.205   2.844   8.174  0.3834  0.5236 -0.3569
   52CHL1  H26A 3842   6.281   2.800   8.105  1.0820 -0.8124  1.2317
   52CHL1  H26B 3843   6.244   2.900   8.262 -0.8047  0.4457  0.2271
   52CHL1  H26C 3844   6.148   2.768   8.232 -2.1761  1.5075 -1.4809
   52CHL1   C27 3845   5.989   2.959   8.182  1.0908  0.5710  0.0995
   52CHL1  H27A 3846   5.918   3.015   8.118  1.3471  1.3762  0.5173
   52CHL1  H27B 3847   5.937   2.868   8.218  0.5010  0.4100 -1.1644
   52CHL1  H27C 3848   6.021   3.017   8.271  2.8696 -0.3380  0.0865
   53CHL1    C3 3849   2.227   6.287   6.929 -0.5919 -0.2391  0.0809
   53CHL1    H3 3850   2.133   6.235   6.955 -0.2922 -0.8020  0.0530
   53CHL1    O3 3851   2.244   6.287   6.791  0.2509  0.1389 -0.1710
   53CHL1   H3' 3852   2.293   6.207   6.772  0.7052  0.2831  0.3926
   53CHL1    C4 3853   2.209   6.434   6.969 -0.4505  0.1473  0.1924
   53CHL1   H4A 3854   2.297   6.485   6.926  0.0826  2.0231  3.3884
   53CHL1   H4B 3855   2.112   6.460   6.921  0.1017 -0.8478 -1.5010
   53CHL1    C5 3856   2.213   6.466   7.114  0.3696  0.5239 -0.7733
   53CHL1    C6 3857   2.125   6.549   7.170  1.3444  0.5853 -0.1729
   53CHL1    H6 3858   2.054   6.596   7.100  0.9278  0.3136  0.0607
   53CHL1    C7 3859   2.116   6.581   7.317 -0.3554 -0.0897  0.0900
   53CHL1   H7A 3860   2.120   6.692   7.325  1.1974 -0.0703 -0.6703
   53CHL1   H7B 3861   2.033   6.523   7.361 -0.0362  0.2380  1.1347
   53CHL1    C8 3862   2.257   6.549   7.386  0.7862  1.0208 -0.7507
   53CHL1    H8 3863   2.324   6.634   7.359  4.2013 -0.9668  0.9835
   53CHL1   C14 3864   2.232   6.544   7.537 -0.4401 -0.9134  0.3887
   53CHL1   H14 3865   2.170   6.452   7.549 -0.0249 -1.0492  1.4953
   53CHL1   C15 3866   2.149   6.650   7.605  0.2787 -0.4270 -0.1413
   53CHL1  H15A 3867   2.145   6.747   7.552  0.5840 -1.1911 -1.5645
   53CHL1  H15B 3868   2.044   6.612   7.604 -0.1341  0.6568  0.9862
   53CHL1   C16 3869   2.202   6.648   7.752 -0.4797  0.3366  0.9761
   53CHL1  H16A 3870   2.250   6.744   7.778  0.0101 -0.1364  1.8467
   53CHL1  H16B 3871   2.126   6.649   7.834 -0.0674  1.9033  1.3451
   53CHL1   C17 3872   2.301   6.522   7.764 -0.0486 -0.2339  0.4393
   53CHL1   H17 3873   2.234   6.434   7.776 -0.9524  0.5275  1.0900
   53CHL1   C13 3874   2.361   6.517   7.621 -1.1415  0.5907  0.9692
   53CHL1   C18 3875   2.463   6.631   7.589 -0.2882 -1.0111 -0.8635
   53CHL1  H18A 3876   2.511   6.622   7.490  1.5818  3.0520 -0.4243
   53CHL1  H18B 3877   2.409   6.728   7.601  1.7149  0.2617 -1.8905
   53CHL1  H18C 3878   2.540   6.620   7.668  2.0625  3.3013 -2.3823
   53CHL1   C12 3879   2.409   6.380   7.579  1.1044  0.0715 -0.5904
   53CHL1  H12A 3880   2.505   6.361   7.631 -0.0367 -1.9214  0.8681
   53CHL1  H12B 3881   2.333   6.309   7.619  0.8004  0.3194 -0.7212
   53CHL1   C11 3882   2.436   6.368   7.427  0.3378  0.1473  0.1564
   53CHL1  H11A 3883   2.533   6.418   7.403  2.0791 -2.2094  2.0362
   53CHL1  H11B 3884   2.449   6.260   7.404 -1.3505  0.1074 -0.7238
   53CHL1    C9 3885   2.311   6.416   7.346 -0.1748 -0.6881 -0.2586
   53CHL1    H9 3886   2.240   6.339   7.381  1.2150 -2.0184 -0.2932
   53CHL1   C10 3887   2.329   6.400   7.190  0.1283  0.3335  0.5561
   53CHL1   C19 3888   2.453   6.478   7.142 -0.1932 -0.8932  0.1186
   53CHL1  H19A 3889   2.540   6.436   7.197  0.7960  1.3269  0.2698
   53CHL1  H19B 3890   2.477   6.456   7.035  0.4888 -1.6006  0.4080
   53CHL1  H19C 3891   2.448   6.584   7.173  1.1348 -0.9928  0.6922
   53CHL1    C1 3892   2.343   6.247   7.142  0.2599  0.2811 -0.2883
   53CHL1   H1A 3893   2.428   6.203   7.197  0.7390  0.7089 -0.6877
   53CHL1   H1B 3894   2.258   6.195   7.191  0.5584  0.1899  0.1385
   53CHL1    C2 3895   2.344   6.227   6.995 -0.2500 -0.1172  0.1918
   53CHL1   H2A 3896   2.353   6.119   6.972 -1.7640 -0.0131 -0.9551
   53CHL1   H2B 3897   2.433   6.268   6.943  0.2090 -0.6121  0.5860
   53CHL1   C20 3898   2.403   6.518   7.879  0.5515  0.6279 -0.1117
   53CHL1   H20 3899   2.495   6.568   7.845  0.4522  0.6792 -0.3027
   53CHL1   C21 3900   2.421   6.375   7.908 -0.0670  0.0613  0.4568
   53CHL1  H21A 3901   2.328   6.336   7.955 -0.6802 -0.6371 -1.2813
   53CHL1  H21B 3902   2.501   6.359   7.982  1.2915 -0.5859 -1.1122
   53CHL1  H21C 3903   2.437   6.309   7.820  0.9192 -0.9510  1.3801
   53CHL1   C22 3904   2.362   6.595   8.006  0.5426  0.3451  0.0984
   53CHL1  H22A 3905   2.333   6.698   7.977  0.6646 -0.0359 -1.4078
   53CHL1  H22B 3906   2.274   6.546   8.054  0.1793  1.8587  1.0219
   53CHL1   C23 3907   2.486   6.610   8.109 -0.0169 -0.0941  0.1270
   53CHL1  H23A 3908   2.513   6.506   8.139 -1.7508 -1.2533 -2.2345
   53CHL1  H23B 3909   2.570   6.656   8.052  2.1495 -1.9324  1.7008
   53CHL1   C24 3910   2.432   6.696   8.221  0.1469  0.1971  0.0535
   53CHL1  H24A 3911   2.343   6.642   8.260  1.7774 -2.3077  0.4528
   53CHL1  H24B 3912   2.508   6.694   8.302 -0.6767 -2.6832  0.8421
   53CHL1   C25 3913   2.387   6.843   8.191 -0.1462  0.7692  0.4947
   53CHL1   H25 3914   2.296   6.845   8.127 -0.2488  1.0036  0.6463
   53CHL1   C26 3915   2.347   6.888   8.330 -0.7949  0.5028  0.1710
   53CHL1  H26A 3916   2.329   6.997   8.321 -1.5640  0.4784  1.4015
   53CHL1  H26B 3917   2.254   6.842   8.369 -0.7382 -1.2362 -1.6486
   53CHL1  H26C 3918   2.428   6.870   8.404  0.5853  2.7352 -0.7393
   53CHL1   C27 3919   2.498   6.926   8.130  0.0874 -0.0257 -0.3299
   53CHL1  H27A 3920   2.534   6.869   8.042  1.2877  1.9246 -1.1076
   53CHL1  H27B 3921   2.462   7.026   8.100  1.1337  0.5951  0.4391
   53CHL1  H27C 3922   2.588   6.940   8.195  0.0728 -0.3512 -0.2352
   54CHL1    C3 3923   3.113   1.518   6.976  0.1247  0.6908  0.5452
   54CHL1    H3 3924   3.007   1.502   7.004 -0.6232  1.6461 -1.6609
   54CHL1    O3 3925   3.128   1.586   6.855  0.1415  0.0837  0.5232
   54CHL1   H3' 3926   3.207   1.552   6.811  2.4182  0.8101  3.8126
   54CHL1    C4 3927   3.179   1.594   7.093  0.1979  0.1365  0.4928
   54CHL1   H4A 3928   3.284   1.601   7.055  0.2461  0.1856  0.6370
   54CHL1   H4B 3929   3.136   1.696   7.094 -1.3614 -0.4033 -3.1233
   54CHL1    C5 3930   3.181   1.531   7.228  0.2088 -0.3803 -0.5524
   54CHL1    C6 3931   3.130   1.591   7.333  0.1108 -0.5865 -0.0434
   54CHL1    H6 3932   3.077   1.687   7.333 -1.3378 -1.3738  0.2678
   54CHL1    C7 3933   3.133   1.532   7.475  0.2541  0.2598  0.8875
   54CHL1   H7A 3934   3.167   1.612   7.544  0.3521  2.1322 -1.2526
   54CHL1   H7B 3935   3.033   1.487   7.496  0.7864 -1.6401 -0.5001
   54CHL1    C8 3936   3.236   1.419   7.484  0.6357  0.7261  0.4006
   54CHL1    H8 3937   3.342   1.451   7.475  1.2769 -1.7558 -1.6396
   54CHL1   C14 3938   3.209   1.331   7.599 -0.3513  0.3951 -0.0959
   54CHL1   H14 3939   3.104   1.301   7.583 -0.2905  0.5581 -0.8528
   54CHL1   C15 3940   3.206   1.402   7.734  0.0024  0.6271  0.1080
   54CHL1  H15A 3941   3.295   1.467   7.742  1.3334 -1.4241  2.6497
   54CHL1  H15B 3942   3.117   1.469   7.739 -1.1561 -0.6826 -2.0627
   54CHL1   C16 3943   3.212   1.293   7.841 -0.1259 -0.8349 -0.7044
   54CHL1  H16A 3944   3.289   1.325   7.914  0.2616  1.0596 -1.9119
   54CHL1  H16B 3945   3.119   1.279   7.901  0.2288 -1.1059 -0.2123
   54CHL1   C17 3946   3.255   1.159   7.761  0.9045 -0.3500 -0.3313
   54CHL1   H17 3947   3.159   1.104   7.750  0.9129 -0.5568  0.5683
   54CHL1   C13 3948   3.300   1.209   7.624  0.6695  0.7607  0.7676
   54CHL1   C18 3949   3.445   1.236   7.636 -0.2705 -0.4698  0.1377
   54CHL1  H18A 3950   3.488   1.306   7.561  1.6211 -0.2506  1.3634
   54CHL1  H18B 3951   3.457   1.283   7.736 -1.8767  1.3713 -0.5084
   54CHL1  H18C 3952   3.500   1.140   7.622  0.1657 -0.5243  2.0832
   54CHL1   C12 3953   3.276   1.112   7.502 -0.1017 -1.1271  0.0106
   54CHL1  H12A 3954   3.338   1.019   7.506 -0.8440 -1.6771 -0.9184
   54CHL1  H12B 3955   3.168   1.090   7.499 -0.5003  0.6616  0.7702
   54CHL1   C11 3956   3.307   1.190   7.374  0.2065 -1.1076  0.3639
   54CHL1  H11A 3957   3.415   1.215   7.384  0.0427 -0.3271  0.2482
   54CHL1  H11B 3958   3.288   1.124   7.287 -0.5757 -1.2050  0.6012
   54CHL1    C9 3959   3.222   1.319   7.367  1.1296 -0.0084 -0.2322
   54CHL1    H9 3960   3.116   1.284   7.363  0.7247  0.8311  2.3201
   54CHL1   C10 3961   3.247   1.395   7.232  0.5664  0.2156  0.0879
   54CHL1   C19 3962   3.397   1.420   7.205  0.2533  0.2230  0.2185
   54CHL1  H19A 3963   3.424   1.473   7.300  2.7055  1.9847 -1.3724
   54CHL1  H19B 3964   3.440   1.318   7.205 -2.1338 -0.8097  2.5624
   54CHL1  H19C 3965   3.422   1.470   7.109 -1.5950  0.0441 -0.3631
   54CHL1    C1 3966   3.182   1.311   7.110 -0.2679  0.0838 -0.0105
   54CHL1   H1A 3967   3.228   1.210   7.106  0.2628  0.2396  1.7721
   54CHL1   H1B 3968   3.074   1.298   7.133  0.1003 -0.8236  1.2662
   54CHL1    C2 3969   3.179   1.378   6.969 -0.1718  0.9633 -0.2861
   54CHL1   H2A 3970   3.136   1.312   6.891  1.9563 -0.3329 -0.4022
   54CHL1   H2B 3971   3.280   1.379   6.923  1.2056 -0.4971  2.5664
   54CHL1   C20 3972   3.341   1.056   7.844  0.0850 -0.1051  0.2762
   54CHL1   H20 3973   3.446   1.090   7.851  0.2380 -0.3804 -0.6829
   54CHL1   C21 3974   3.340   0.922   7.772 -0.0414  0.9915 -0.4315
   54CHL1  H21A 3975   3.387   0.851   7.844 -0.4075  1.0872 -0.0967
   54CHL1  H21B 3976   3.396   0.926   7.676 -0.5639 -0.7625 -0.8177
   54CHL1  H21C 3977   3.239   0.884   7.750 -0.3131  0.7264  1.2078
   54CHL1   C22 3978   3.290   1.035   7.990  0.2438 -0.1348 -0.4375
   54CHL1  H22A 3979   3.290   1.136   8.036 -1.3937 -0.4788  0.3801
   54CHL1  H22B 3980   3.186   0.997   7.988 -0.7535  2.3775  0.8674
   54CHL1   C23 3981   3.374   0.949   8.080  0.5339 -0.3369 -1.1267
   54CHL1  H23A 3982   3.374   0.842   8.049 -1.6685 -1.5710  2.8667
   54CHL1  H23B 3983   3.479   0.985   8.068 -0.3210  3.6305  2.1121
   54CHL1   C24 3984   3.336   0.950   8.228  0.5446 -0.1134 -0.3906
   54CHL1  H24A 3985   3.357   1.050   8.274 -0.8069 -0.4827  1.0849
   54CHL1  H24B 3986   3.226   0.936   8.231  0.6961 -1.5841 -1.4072
   54CHL1   C25 3987   3.398   0.823   8.304 -0.2715  0.2112 -0.8379
   54CHL1   H25 3988   3.370   0.734   8.245  1.9447 -0.6493 -0.6233
   54CHL1   C26 3989   3.544   0.843   8.331  0.2022 -0.2059 -0.1684
   54CHL1  H26A 3990   3.578   0.768   8.406  1.9381  0.8429  0.1302
   54CHL1  H26B 3991   3.607   0.834   8.240 -0.1713  0.8432 -0.5359
   54CHL1  H26C 3992   3.561   0.947   8.367  0.6798 -0.4536  0.3303
   54CHL1   C27 3993   3.330   0.821   8.442 -0.4402  0.2462  0.5839
   54CHL1  H27A 3994   3.336   0.920   8.494  0.5119 -0.7124  2.3519
   54CHL1  H27B 3995   3.221   0.807   8.430 -0.5467  0.4837  1.2279
   54CHL1  H27C 3996   3.367   0.737   8.505 -1.0816 -1.2305 -0.9887
   55CHL1    C3 3997   2.066   2.726   6.997  0.1028  0.8106  0.5236
   55CHL1    H3 3998   2.155   2.792   6.982 -0.5763  1.2357 -1.7899
   55CHL1    O3 3999   1.989   2.745   6.881 -0.0985 -0.0541  0.1921
   55CHL1   H3' 4000   1.899   2.715   6.892  1.3025 -3.7480  2.8953
   55CHL1    C4 4001   2.125   2.584   7.010  0.9458  0.0152  0.0182
   55CHL1   H4A 4002   2.044   2.512   6.985  0.9190 -0.2120  0.7495
   55CHL1   H4B 4003   2.195   2.563   6.927  1.4663  0.0216  0.4556
   55CHL1    C5 4004   2.178   2.566   7.150 -0.0943  0.6007 -0.6462
   55CHL1    C6 4005   2.299   2.523   7.168 -0.6559  0.4215  0.0541
   55CHL1    H6 4006   2.364   2.504   7.081  0.8082 -0.7488  1.3753
   55CHL1    C7 4007   2.366   2.504   7.305  0.0857 -0.2026  0.1459
   55CHL1   H7A 4008   2.424   2.410   7.306  2.0522  0.9632  2.1748
   55CHL1   H7B 4009   2.437   2.588   7.322 -1.5548  1.5891 -1.6080
   55CHL1    C8 4010   2.268   2.498   7.424 -0.5242  0.0162 -0.9174
   55CHL1    H8 4011   2.214   2.402   7.412 -1.9799  0.8765 -1.3875
   55CHL1   C14 4012   2.343   2.502   7.550 -0.5209 -0.4949  0.2144
   55CHL1   H14 4013   2.386   2.605   7.546 -0.1540 -0.6505  0.0906
   55CHL1   C15 4014   2.456   2.401   7.579 -0.8880 -0.0261  0.1206
   55CHL1  H15A 4015   2.420   2.296   7.569 -2.3869  0.5372 -0.5993
   55CHL1  H15B 4016   2.541   2.415   7.509 -0.5073  0.5070  0.6817
   55CHL1   C16 4017   2.484   2.444   7.724  0.1348 -0.0356 -0.0993
   55CHL1  H16A 4018   2.482   2.344   7.773  2.1057 -0.1653 -0.2504
   55CHL1  H16B 4019   2.591   2.473   7.727  0.1838 -0.2454  0.2661
   55CHL1   C17 4020   2.370   2.534   7.779  0.2605  1.6815  0.5626
   55CHL1   H17 4021   2.413   2.636   7.773  1.4536  1.1847  0.6126
   55CHL1   C13 4022   2.262   2.512   7.672  0.0468  0.8226 -0.3062
   55CHL1   C18 4023   2.187   2.384   7.713  0.0551 -0.4465 -0.5491
   55CHL1  H18A 4024   2.113   2.417   7.788  0.2395  1.0688 -1.0061
   55CHL1  H18B 4025   2.137   2.341   7.624  0.9465 -0.6767 -0.9480
   55CHL1  H18C 4026   2.262   2.310   7.747 -1.5698 -1.5881  0.5951
   55CHL1   C12 4027   2.155   2.627   7.656 -0.3747 -0.7408 -0.1414
   55CHL1  H12A 4028   2.088   2.615   7.744 -1.6702  0.0691 -1.0042
   55CHL1  H12B 4029   2.204   2.727   7.654 -2.8901  0.5944  1.4457
   55CHL1   C11 4030   2.072   2.616   7.526  0.6303 -0.1485  0.1044
   55CHL1  H11A 4031   2.012   2.523   7.535 -2.1469  1.6913  1.3541
   55CHL1  H11B 4032   2.003   2.702   7.515  3.5178  1.9110 -2.5867
   55CHL1    C9 4033   2.167   2.609   7.409 -0.8323  0.2731 -0.2601
   55CHL1    H9 4034   2.221   2.706   7.411  1.8585 -1.1108 -1.9461
   55CHL1   C10 4035   2.098   2.607   7.270 -0.5757  0.4768  0.1158
   55CHL1   C19 4036   1.984   2.509   7.276 -0.3680  0.1350 -0.4531
   55CHL1  H19A 4037   2.026   2.411   7.306 -2.0614 -0.1627  1.0780
   55CHL1  H19B 4038   1.906   2.532   7.352  1.7064  0.3268  1.6415
   55CHL1  H19C 4039   1.925   2.494   7.183  0.3352 -0.5916 -0.7824
   55CHL1    C1 4040   2.040   2.748   7.246  0.1338 -0.2620  0.4269
   55CHL1   H1A 4041   1.961   2.772   7.320  1.3775  0.0258  1.6863
   55CHL1   H1B 4042   2.114   2.831   7.246 -0.9288  0.7107 -0.4441
   55CHL1    C2 4043   1.975   2.768   7.109  0.2537  0.4826 -0.0657
   55CHL1   H2A 4044   1.939   2.873   7.107  0.3817  0.5249 -0.2188
   55CHL1   H2B 4045   1.881   2.709   7.103  1.3436 -1.2937 -0.0424
   55CHL1   C20 4046   2.347   2.517   7.926 -0.5269  0.1172 -0.0436
   55CHL1   H20 4047   2.290   2.427   7.958 -1.4828  0.8868  0.4385
   55CHL1   C21 4048   2.263   2.630   7.970 -0.0593  0.1294 -0.2040
   55CHL1  H21A 4049   2.248   2.622   8.080  1.1168 -1.1747 -0.1151
   55CHL1  H21B 4050   2.162   2.630   7.924 -0.8532  0.5929  1.4933
   55CHL1  H21C 4051   2.307   2.729   7.948  1.3770 -0.2422  0.8955
   55CHL1   C22 4052   2.478   2.518   8.017 -0.6353 -0.0071 -0.7386
   55CHL1  H22A 4053   2.538   2.427   7.995 -1.0151 -0.1931 -1.0173
   55CHL1  H22B 4054   2.535   2.606   7.979 -1.5824  1.1090  0.3931
   55CHL1   C23 4055   2.464   2.533   8.171 -0.7268  0.6863  0.0816
   55CHL1  H23A 4056   2.437   2.639   8.192  0.7912  0.8264  1.4308
   55CHL1  H23B 4057   2.388   2.466   8.216 -0.2231 -1.7669 -2.5692
   55CHL1   C24 4058   2.594   2.491   8.236  0.2579  0.1658  0.2590
   55CHL1  H24A 4059   2.625   2.389   8.204  0.3130 -0.0328  0.9479
   55CHL1  H24B 4060   2.679   2.555   8.203  0.4948  0.6363  1.7692
   55CHL1   C25 4061   2.601   2.507   8.391  0.1393  0.0538  0.3717
   55CHL1   H25 4062   2.598   2.617   8.409  0.7689  0.1896 -0.3320
   55CHL1   C26 4063   2.485   2.444   8.475  0.4782  0.3136  0.3585
   55CHL1  H26A 4064   2.396   2.510   8.467 -2.2789 -3.2987  0.0680
   55CHL1  H26B 4065   2.466   2.342   8.436  0.1337  0.5341 -0.0501
   55CHL1  H26C 4066   2.514   2.437   8.582  3.0832 -0.5213 -0.3590
   55CHL1   C27 4067   2.743   2.452   8.425 -0.1972  0.1565 -0.0166
   55CHL1  H27A 4068   2.817   2.530   8.400 -1.6615  2.5357  2.7745
   55CHL1  H27B 4069   2.753   2.418   8.530 -1.2558 -0.2321 -0.0399
   55CHL1  H27C 4070   2.766   2.373   8.350 -0.4601  0.3969 -0.3476
   56CHL1    C3 4071   1.998   1.323   6.912  0.2875  0.3149 -0.1406
   56CHL1    H3 4072   2.060   1.414   6.924  1.2043 -0.4135  0.8086
   56CHL1    O3 4073   1.962   1.300   6.777 -1.3399  0.7291  0.4445
   56CHL1   H3' 4074   1.898   1.229   6.766 -1.3166  0.5317  1.5415
   56CHL1    C4 4075   2.085   1.202   6.974  0.1675  0.5801 -0.1002
   56CHL1   H4A 4076   2.037   1.106   6.946  0.1867  0.6317 -0.3127
   56CHL1   H4B 4077   2.184   1.194   6.924  0.6837 -0.3553  1.0597
   56CHL1    C5 4078   2.105   1.221   7.126  0.1366 -0.9104 -0.7770
   56CHL1    C6 4079   2.221   1.227   7.193  0.1666  0.5996  0.0026
   56CHL1    H6 4080   2.311   1.207   7.133  0.0280 -1.4851  0.4844
   56CHL1    C7 4081   2.235   1.254   7.335 -0.0313  0.3418 -0.7390
   56CHL1   H7A 4082   2.321   1.196   7.375  0.9113  1.3777 -1.2382
   56CHL1   H7B 4083   2.241   1.363   7.358 -0.0746  0.2509 -0.2880
   56CHL1    C8 4084   2.109   1.211   7.418 -0.1509  0.8478 -0.2276
   56CHL1    H8 4085   2.102   1.100   7.427 -0.7853  0.7619 -1.7069
   56CHL1   C14 4086   2.118   1.264   7.563  0.5189 -0.0456  0.5696
   56CHL1   H14 4087   2.123   1.374   7.549  0.7457  0.0106  1.0719
   56CHL1   C15 4088   2.243   1.232   7.648 -1.0614 -0.2280  0.0073
   56CHL1  H15A 4089   2.249   1.121   7.649 -2.8102 -0.3550 -0.8245
   56CHL1  H15B 4090   2.338   1.276   7.611 -0.2870  0.1036  2.3176
   56CHL1   C16 4091   2.199   1.280   7.786  0.5729 -0.0313  0.6023
   56CHL1  H16A 4092   2.215   1.203   7.864 -1.2330 -0.2851  0.7587
   56CHL1  H16B 4093   2.260   1.371   7.800  1.1979 -0.4625  0.6865
   56CHL1   C17 4094   2.052   1.331   7.777 -0.0410 -0.0696  0.2282
   56CHL1   H17 4095   2.061   1.440   7.760  1.0491 -0.3628 -1.1564
   56CHL1   C13 4096   2.001   1.255   7.653 -0.5184 -0.0359  0.4399
   56CHL1   C18 4097   1.979   1.106   7.687 -0.6076 -0.0044  0.4668
   56CHL1  H18A 4098   1.897   1.077   7.756 -1.2695 -0.4085 -0.4808
   56CHL1  H18B 4099   1.948   1.053   7.595 -1.2163 -0.3244  0.8584
   56CHL1  H18C 4100   2.071   1.059   7.729 -0.8992 -0.8484  0.1660
   56CHL1   C12 4101   1.880   1.313   7.583 -0.8734 -0.1128 -0.5746
   56CHL1  H12A 4102   1.787   1.297   7.642 -0.1551  1.3199  0.9664
   56CHL1  H12B 4103   1.899   1.421   7.569  1.2291 -0.3727  0.0935
   56CHL1   C11 4104   1.866   1.255   7.440  0.0258  0.3301 -0.3120
   56CHL1  H11A 4105   1.847   1.147   7.457  1.8662 -0.4758 -3.2139
   56CHL1  H11B 4106   1.780   1.301   7.386  0.3892  1.3331 -0.0437
   56CHL1    C9 4107   1.992   1.274   7.351 -0.3564 -0.0333 -0.4521
   56CHL1    H9 4108   2.019   1.382   7.352  1.2588 -0.4256 -0.4489
   56CHL1   C10 4109   1.971   1.233   7.198 -0.3279 -0.8091 -0.0861
   56CHL1   C19 4110   1.898   1.095   7.185  0.3269 -0.3009  0.0379
   56CHL1  H19A 4111   1.958   1.017   7.236 -1.6642 -2.3468 -0.6510
   56CHL1  H19B 4112   1.795   1.100   7.226  0.2208  1.9147 -0.4042
   56CHL1  H19C 4113   1.886   1.069   7.078  0.2955  2.3229 -0.6236
   56CHL1    C1 4114   1.888   1.352   7.141 -0.0838  0.1776  0.0745
   56CHL1   H1A 4115   1.788   1.349   7.189 -0.1109  1.6079  0.1539
   56CHL1   H1B 4116   1.921   1.453   7.174 -0.6780 -0.0388  1.3400
   56CHL1    C2 4117   1.867   1.345   6.985 -0.1872 -0.4837 -0.1193
   56CHL1   H2A 4118   1.819   1.435   6.940  1.6268 -0.3632 -1.8785
   56CHL1   H2B 4119   1.803   1.257   6.962 -0.5613  0.4426 -2.7774
   56CHL1   C20 4120   1.981   1.315   7.907  0.5879 -0.5920 -0.0747
   56CHL1   H20 4121   1.991   1.209   7.938  2.9985 -0.6480 -0.9424
   56CHL1   C21 4122   1.834   1.352   7.896 -0.0916 -0.3645  0.4293
   56CHL1  H21A 4123   1.784   1.373   7.993 -0.4271 -0.3118  0.2423
   56CHL1  H21B 4124   1.776   1.274   7.843 -1.4836  1.3807 -0.6696
   56CHL1  H21C 4125   1.832   1.445   7.836 -0.7609  0.3887  1.5812
   56CHL1   C22 4126   2.037   1.402   8.023 -0.4971 -0.7030 -0.5653
   56CHL1  H22A 4127   2.144   1.374   8.028 -0.3285  0.0378  0.1254
   56CHL1  H22B 4128   2.035   1.508   7.991 -1.8174 -0.9666 -1.4047
   56CHL1   C23 4129   1.977   1.414   8.165 -0.4604  0.5023  0.8782
   56CHL1  H23A 4130   1.874   1.455   8.162 -1.4297 -1.9241  0.0019
   56CHL1  H23B 4131   1.954   1.310   8.198  0.2792 -0.3707 -1.2589
   56CHL1   C24 4132   2.069   1.492   8.259  0.0467  0.4595 -0.1946
   56CHL1  H24A 4133   2.157   1.428   8.281 -0.1197  0.4589  0.5015
   56CHL1  H24B 4134   2.098   1.583   8.202 -0.9910  0.1178 -1.2787
   56CHL1   C25 4135   1.995   1.529   8.392  0.2081 -0.0502  0.8143
   56CHL1   H25 4136   1.891   1.560   8.368  0.6936  0.4660 -0.6953
   56CHL1   C26 4137   1.989   1.412   8.483  0.5214  0.3677 -0.2693
   56CHL1  H26A 4138   2.091   1.379   8.510  0.7674  0.8531 -0.5919
   56CHL1  H26B 4139   1.943   1.325   8.432 -2.2657  0.9759  1.1225
   56CHL1  H26C 4140   1.931   1.447   8.571 -0.3044 -0.2972 -0.5489
   56CHL1   C27 4141   2.076   1.645   8.459  0.3754  0.5534 -0.0403
   56CHL1  H27A 4142   2.071   1.738   8.399 -1.2384  0.8589  0.5391
   56CHL1  H27B 4143   2.044   1.660   8.564  0.8446  1.0415  0.0342
   56CHL1  H27C 4144   2.183   1.618   8.468  0.6755  2.0937  1.2037
   57SAPC     N 4145   2.270   5.113  10.886 -0.3964 -0.1166 -0.7620
   57SAPC   C12 4146   2.358   5.000  10.836 -0.1472 -0.4105  0.2117
   57SAPC  H12A 4147   2.354   4.923  10.912  0.5054  1.6194  2.3464
   57SAPC  H12B 4148   2.455   5.046  10.839  0.8699 -2.4921 -0.0405
   57SAPC   C13 4149   2.299   5.126  11.031 -0.6472  0.0108  0.4490
   57SAPC  H13A 4150   2.260   5.040  11.085  0.0079  0.0149  0.9337
   57SAPC  H13B 4151   2.406   5.129  11.048 -0.4930  0.4203 -0.5494
   57SAPC  H13C 4152   2.251   5.213  11.072 -0.0246 -0.2162  1.6963
   57SAPC   C14 4153   2.312   5.241  10.814  0.2334  0.6530 -0.3178
   57SAPC  H14A 4154   2.419   5.257  10.817  0.2308  0.5782  0.1272
   57SAPC  H14B 4155   2.287   5.227  10.710  1.5864 -3.2737 -0.1958
   57SAPC  H14C 4156   2.260   5.326  10.856 -2.0681  0.1985 -2.1805
   57SAPC   C15 4157   2.134   5.091  10.861  0.1508  0.4381  0.7837
   57SAPC  H15A 4158   2.101   5.012  10.926 -1.3781 -0.6920 -1.3302
   57SAPC  H15B 4159   2.065   5.174  10.868  0.2571  0.6760 -0.7487
   57SAPC  H15C 4160   2.117   5.044  10.765  0.8327  0.7610  0.4955
   57SAPC   C11 4161   2.319   4.939  10.699 -0.6390  0.9125  0.3624
   57SAPC  H11A 4162   2.409   4.891  10.656 -3.4061 -1.3921 -3.0984
   57SAPC  H11B 4163   2.291   5.009  10.618 -1.3483 -0.3323 -0.4774
   57SAPC     P 4164   2.248   4.696  10.758 -0.2449  0.3988  0.3051
   57SAPC   O13 4165   2.354   4.707  10.867  0.8010  0.1201  0.0909
   57SAPC   O14 4166   2.114   4.635  10.782  0.0743 -0.6578 -0.5439
   57SAPC   O12 4167   2.213   4.845  10.706  0.2601 -0.3529 -0.3733
   57SAPC   O11 4168   2.319   4.621  10.642 -0.1334  0.1534 -0.3687
   57SAPC    C1 4169   2.250   4.560  10.537 -0.5258 -0.0024  0.4211
   57SAPC    HA 4170   2.332   4.497  10.494 -1.8811  0.2797 -2.7460
   57SAPC    HB 4171   2.168   4.499  10.581 -0.7237 -0.7418 -0.9518
   57SAPC    C2 4172   2.209   4.645  10.428 -0.1443 -0.3357  0.0231
   57SAPC    HS 4173   2.116   4.696  10.461  0.1671 -2.0770  3.8809
   57SAPC   O21 4174   2.188   4.557  10.320 -0.2239  0.3062  0.1725
   57SAPC   C21 4175   2.084   4.589  10.236 -0.0830  0.7472 -0.2703
   57SAPC   O22 4176   2.028   4.696  10.224 -0.6289 -0.3716  0.2385
   57SAPC   C22 4177   2.035   4.456  10.178  1.3783 -0.4540  1.3846
   57SAPC   H2R 4178   2.125   4.404  10.138  1.5291  0.4910  0.4962
   57SAPC   H2S 4179   1.994   4.393  10.261  0.7586 -0.8308  0.7978
   57SAPC    C3 4180   2.320   4.742  10.374 -0.0861  0.5098 -0.3130
   57SAPC    HX 4181   2.414   4.688  10.348  0.1110  0.3546  0.6938
   57SAPC    HY 4182   2.356   4.807  10.457  1.9298  0.6792 -1.2641
   57SAPC   O31 4183   2.293   4.803  10.244  0.1773 -1.0622  0.4602
   57SAPC   C31 4184   2.214   4.913  10.261  0.4151  0.4694  0.8297
   57SAPC   O32 4185   2.175   4.946  10.372  0.2459 -0.0843  0.1724
   57SAPC   C32 4186   2.183   4.984  10.138  0.3691 -0.2778 -0.2761
   57SAPC   H2X 4187   2.072   4.987  10.136  0.3952  0.2810 -1.7852
   57SAPC   H2Y 4188   2.223   4.925  10.053  0.9102 -0.0902 -0.1535
   57SAPC   C23 4189   1.931   4.479  10.056  0.1534 -0.1308  0.9280
   57SAPC   H3R 4190   1.864   4.566  10.076 -0.2469 -0.2802  0.2596
   57SAPC   H3S 4191   1.871   4.386  10.046  1.3089 -1.0160  2.1233
   57SAPC   C24 4192   2.013   4.491   9.918 -0.2248  0.6432 -0.0071
   57SAPC   H4R 4193   1.939   4.466   9.839  1.0543  0.8844 -1.2967
   57SAPC   H4S 4194   2.100   4.423   9.905  1.1015  2.0360  1.3923
   57SAPC   C25 4195   2.056   4.633   9.901 -0.1640 -0.7963  0.3193
   57SAPC   H5R 4196   2.145   4.670   9.954  2.1480 -3.7917 -1.2655
   57SAPC   C26 4197   1.997   4.716   9.813  1.1117 -0.2285 -0.9777
   57SAPC   H6R 4198   2.023   4.822   9.827 -0.1199 -0.1862  1.0933
   57SAPC   C27 4199   1.893   4.695   9.708 -0.0976 -0.1302  0.1168
   57SAPC   H7R 4200   1.932   4.628   9.629  1.3764  2.6801 -1.6136
   57SAPC   H7S 4201   1.882   4.788   9.648  0.1581 -0.8066 -0.9895
   57SAPC   C28 4202   1.756   4.649   9.752  0.2658  0.2633 -0.2979
   57SAPC   H8R 4203   1.748   4.610   9.854  0.6580 -1.8889 -1.0506
   57SAPC   C29 4204   1.637   4.674   9.694 -0.0922 -0.5018 -0.4166
   57SAPC   H9R 4205   1.549   4.649   9.756  0.0798  0.5892  0.2936
   57SAPC  C210 4206   1.620   4.756   9.576  0.4068  0.3147 -0.0099
   57SAPC  H10R 4207   1.717   4.749   9.523 -0.2624  0.7648 -1.3125
   57SAPC  H10S 4208   1.611   4.861   9.611  1.7661  0.5445 -0.3259
   57SAPC  C211 4209   1.503   4.710   9.482 -0.1433 -1.0270  0.1629
   57SAPC  H11R 4210   1.405   4.715   9.531  0.9042  0.1186  2.2132
   57SAPC  C212 4211   1.509   4.668   9.353  0.4141 -0.1237 -0.6757
   57SAPC  H12R 4212   1.422   4.633   9.296 -0.5171  0.7321  0.2150
   57SAPC  C213 4213   1.640   4.640   9.280 -0.4274  0.1532  0.0485
   57SAPC  H13R 4214   1.628   4.537   9.239  0.1545  0.2499 -0.3588
   57SAPC  H13S 4215   1.726   4.639   9.350 -0.7362  0.3432  0.4328
   57SAPC  C214 4216   1.667   4.738   9.172 -0.2507 -1.0943 -0.4010
   57SAPC  H14R 4217   1.665   4.844   9.200  1.6448 -1.0004 -0.5621
   57SAPC  C215 4218   1.703   4.719   9.041  0.7341  0.3102 -0.3549
   57SAPC  H15R 4219   1.730   4.807   8.979  2.5467 -1.3770 -2.0332
   57SAPC  C216 4220   1.724   4.590   8.970  0.2518 -0.1199 -0.0642
   57SAPC  H16R 4221   1.729   4.504   9.041  2.7426  1.1483  1.3687
   57SAPC  H16S 4222   1.816   4.600   8.910  0.3150 -1.8622 -0.2907
   57SAPC  C217 4223   1.604   4.540   8.882 -0.1265 -0.4629 -0.5744
   57SAPC  H17R 4224   1.579   4.618   8.807 -3.9138  0.4298  1.4972
   57SAPC  H17S 4225   1.515   4.529   8.947  0.2501 -0.8996 -0.1266
   57SAPC  C218 4226   1.641   4.401   8.829  0.8432 -0.6231 -0.1743
   57SAPC  H18R 4227   1.646   4.338   8.921 -3.1142 -1.2580 -0.3129
   57SAPC  H18S 4228   1.739   4.416   8.778  1.2557  2.9235  1.5257
   57SAPC  C219 4229   1.530   4.345   8.747  0.0096 -0.1112 -0.0061
   57SAPC  H19R 4230   1.432   4.338   8.800  1.6639  1.8690  3.5258
   57SAPC  H19S 4231   1.551   4.251   8.693 -3.0757 -0.3497 -0.9019
   57SAPC  C220 4232   1.491   4.438   8.624 -1.1500  0.3594  0.0504
   57SAPC  H20R 4233   1.417   4.389   8.558 -0.0704  1.9672 -2.3926
   57SAPC  H20S 4234   1.575   4.459   8.555 -2.0857  1.6802 -0.7017
   57SAPC  H20T 4235   1.436   4.530   8.655 -0.6989  0.8788 -0.6817
   57SAPC   C33 4236   2.224   5.138  10.125  0.3686  0.2116  0.5713
   57SAPC   H3X 4237   2.334   5.147  10.140  0.4105 -0.3420  0.6051
   57SAPC   H3Y 4238   2.181   5.208  10.200  1.1024 -0.8614  2.0230
   57SAPC   C34 4239   2.197   5.196   9.984 -0.0923  0.0996 -0.4389
   57SAPC   H4X 4240   2.228   5.303   9.974  0.9962 -0.2615 -0.9247
   57SAPC   H4Y 4241   2.088   5.215   9.967 -0.0838  0.0214 -0.5756
   57SAPC   C35 4242   2.250   5.108   9.870 -0.5112  0.5993 -0.4954
   57SAPC   H5X 4243   2.167   5.037   9.851  0.6058 -1.3646  1.7218
   57SAPC   H5Y 4244   2.338   5.052   9.907 -0.2672  2.3172  1.6627
   57SAPC   C36 4245   2.288   5.194   9.753  0.6982  0.5007  0.2341
   57SAPC   H6X 4246   2.366   5.265   9.789  0.6354  1.5509 -1.6423
   57SAPC   H6Y 4247   2.198   5.251   9.721  0.9355 -0.1909 -1.7325
   57SAPC   C37 4248   2.337   5.108   9.637 -0.3727 -0.4081  0.3783
   57SAPC   H7X 4249   2.430   5.051   9.661 -0.5475 -0.8624 -0.0182
   57SAPC   H7Y 4250   2.357   5.177   9.553  0.0122  0.7210  1.3781
   57SAPC   C38 4251   2.227   5.013   9.599 -0.6164 -0.6462 -0.8386
   57SAPC   H8X 4252   2.129   5.065   9.596 -0.3118 -0.0275 -0.1380
   57SAPC   H8Y 4253   2.221   4.933   9.676 -0.1702  0.1339  0.0055
   57SAPC   C39 4254   2.245   4.947   9.456 -0.0688  0.3091  0.1021
   57SAPC   H9X 4255   2.348   4.907   9.450 -0.1797 -0.2192  1.6555
   57SAPC   H9Y 4256   2.234   5.024   9.377 -0.4748  0.1235 -0.0268
   57SAPC  C310 4257   2.155   4.825   9.431 -0.0554  0.1596  0.4209
   57SAPC  H10X 4258   2.051   4.856   9.454 -0.4812  0.9933 -2.3612
   57SAPC  H10Y 4259   2.192   4.743   9.497 -1.2252 -1.8256 -1.3025
   57SAPC  C311 4260   2.170   4.769   9.294  0.5485 -0.3105  0.1913
   57SAPC  H11X 4261   2.260   4.702   9.295  0.7031 -0.0953  0.5108
   57SAPC  H11Y 4262   2.171   4.847   9.215 -0.1093 -0.5739 -0.0776
   57SAPC  C312 4263   2.050   4.682   9.260 -0.5662  0.4565  0.3146
   57SAPC  H12X 4264   1.955   4.739   9.253  0.3896  1.8201 -2.3736
   57SAPC  H12Y 4265   2.034   4.612   9.344  1.2606 -0.3616  0.0087
   57SAPC  C313 4266   2.072   4.588   9.140  0.4093  0.5059 -0.1027
   57SAPC  H13X 4267   1.989   4.519   9.113  2.0633 -1.8687  0.7348
   57SAPC  H13Y 4268   2.157   4.518   9.158 -0.7389 -1.1049 -0.7573
   57SAPC  C314 4269   2.103   4.663   9.011  0.0066 -0.4158 -0.3997
   57SAPC  H14X 4270   2.204   4.704   9.032  0.9574 -2.2806 -1.3093
   57SAPC  H14Y 4271   2.032   4.743   8.980 -1.7367 -1.7166  0.1448
   57SAPC  C315 4272   2.125   4.563   8.894 -0.3939 -0.0211  0.6826
   57SAPC  H15X 4273   2.026   4.531   8.856  0.3659  0.3784 -1.6757
   57SAPC  H15Y 4274   2.172   4.472   8.937 -0.4146 -0.8293 -0.9705
   57SAPC  C316 4275   2.208   4.609   8.777 -0.1399 -0.0083 -0.1397
   57SAPC  H16X 4276   2.314   4.606   8.812  0.3468  1.3389 -1.4417
   57SAPC  H16Y 4277   2.186   4.708   8.733  0.3598 -0.4133 -1.3313
   57SAPC  C317 4278   2.187   4.507   8.664 -0.0240 -0.6435  0.6963
   57SAPC  H17X 4279   2.077   4.499   8.651  0.1613  1.4793 -2.6514
   57SAPC  H17Y 4280   2.218   4.406   8.700  1.1886 -0.3907  0.3688
   57SAPC  C318 4281   2.254   4.546   8.536 -0.0496 -0.9132  0.3626
   57SAPC  H18X 4282   2.188   4.610   8.473 -0.3124  1.7244  3.2432
   57SAPC  H18Y 4283   2.279   4.453   8.480  0.2529 -0.6755  0.1017
   57SAPC  H18Z 4284   2.346   4.607   8.548  0.6629 -1.1985 -3.0825
   58SAPC     N 4285   4.037   2.844  11.033  0.5286  0.2394  0.3934
   58SAPC   C12 4286   4.045   2.735  10.931  0.1764  0.0583 -0.3480
   58SAPC  H12A 4287   3.998   2.645  10.967 -0.6377  1.7683  3.0321
   58SAPC  H12B 4288   4.149   2.711  10.914  0.0526 -0.9881  0.2876
   58SAPC   C13 4289   3.888   2.873  11.074 -0.1307 -0.1779 -0.7661
   58SAPC  H13A 4290   3.851   2.784  11.123  0.1652 -0.4211 -0.9844
   58SAPC  H13B 4291   3.879   2.953  11.146  0.1237 -1.4615  0.7111
   58SAPC  H13C 4292   3.823   2.893  10.989  2.0372 -0.5049 -2.5369
   58SAPC   C14 4293   4.119   2.810  11.154 -0.5381 -0.8522 -0.1162
   58SAPC  H14A 4294   4.216   2.852  11.136 -1.1186  0.5439 -0.0489
   58SAPC  H14B 4295   4.072   2.841  11.247 -2.4634 -0.2625 -1.2535
   58SAPC  H14C 4296   4.131   2.702  11.156 -0.2616 -0.8508 -1.3899
   58SAPC   C15 4297   4.087   2.977  10.976  0.0780  0.7824 -0.2670
   58SAPC  H15A 4298   4.023   3.016  10.898  0.2937 -0.0131 -0.8533
   58SAPC  H15B 4299   4.102   3.047  11.056  1.8539 -3.7003  3.5983
   58SAPC  H15C 4300   4.178   2.949  10.925 -0.6457 -1.2274 -0.5349
   58SAPC   C11 4301   3.968   2.767  10.796  0.4360 -0.3243 -0.0850
   58SAPC  H11A 4302   4.005   2.687  10.728 -1.5882 -1.3219 -0.0269
   58SAPC  H11B 4303   3.994   2.869  10.760 -1.4410 -0.2585 -1.3037
   58SAPC     P 4304   3.758   2.619  10.832  0.4898  0.5582 -0.2777
   58SAPC   O13 4305   3.860   2.516  10.875  0.3910  0.0881  0.0076
   58SAPC   O14 4306   3.638   2.645  10.920  0.0972 -0.1635  0.7839
   58SAPC   O12 4307   3.826   2.755  10.817 -0.2505 -0.1374  0.3767
   58SAPC   O11 4308   3.704   2.576  10.689 -0.3613  0.9205  0.2157
   58SAPC    C1 4309   3.599   2.645  10.623 -0.2309  0.4341 -0.1081
   58SAPC    HA 4310   3.508   2.582  10.620 -1.2213  1.8410 -0.4652
   58SAPC    HB 4311   3.581   2.741  10.676 -1.7812  0.1085 -0.0024
   58SAPC    C2 4312   3.640   2.689  10.478  0.5220  0.2670  0.4350
   58SAPC    HS 4313   3.662   2.598  10.419  2.6823  0.2803  1.1958
   58SAPC   O21 4314   3.756   2.782  10.479 -0.0141 -0.4262 -0.2737
   58SAPC   C21 4315   3.876   2.723  10.464 -0.0503 -0.3680  0.8437
   58SAPC   O22 4316   3.900   2.606  10.484 -0.2054  0.1862  0.2688
   58SAPC   C22 4317   3.976   2.831  10.418 -0.4993  0.2113 -0.1190
   58SAPC   H2R 4318   3.924   2.929  10.406  0.3353  0.8621  1.4502
   58SAPC   H2S 4319   4.036   2.847  10.511  0.1530  0.4970 -0.5772
   58SAPC    C3 4320   3.530   2.769  10.409  0.2349  0.3533 -0.4009
   58SAPC    HX 4321   3.500   2.851  10.478 -0.8784  0.3128 -0.8262
   58SAPC    HY 4322   3.443   2.704  10.387 -1.3767  2.8057 -1.4993
   58SAPC   O31 4323   3.561   2.837  10.286  0.4847  0.0883  0.6544
   58SAPC   C31 4324   3.564   2.761  10.178  0.0242 -0.5921  0.4456
   58SAPC   O32 4325   3.565   2.639  10.175  0.2307 -0.2429  0.6799
   58SAPC   C32 4326   3.602   2.850  10.059  0.1676  0.0043 -0.4937
   58SAPC   H2X 4327   3.708   2.876  10.081  0.4619 -2.0652  0.6376
   58SAPC   H2Y 4328   3.541   2.944  10.063  2.4593  1.5009  0.5690
   58SAPC   C23 4329   4.056   2.798  10.293 -0.0368 -0.4152 -0.5431
   58SAPC   H3R 4330   4.123   2.710  10.302 -1.9217 -2.0022 -1.4401
   58SAPC   H3S 4331   4.123   2.885  10.280 -2.1163  1.1745 -0.8581
   58SAPC   C24 4332   3.980   2.780  10.159  0.6885 -0.0340 -0.1238
   58SAPC   H4R 4333   4.047   2.826  10.083 -2.0884  3.2673 -0.6854
   58SAPC   H4S 4334   3.888   2.841  10.168  1.6806  1.6738 -1.3939
   58SAPC   C25 4335   3.945   2.639  10.120  0.4010 -0.0818 -0.6797
   58SAPC   H5R 4336   3.875   2.582  10.182  1.3087 -0.9689 -0.4407
   58SAPC   C26 4337   3.986   2.571  10.012 -0.0550  0.1942 -0.1467
   58SAPC   H6R 4338   3.944   2.470   9.998 -2.1255  0.9730  0.1907
   58SAPC   C27 4339   4.082   2.624   9.916 -0.0477 -0.5657 -0.1230
   58SAPC   H7R 4340   4.106   2.534   9.855  0.4518  0.0410 -0.8289
   58SAPC   H7S 4341   4.182   2.650   9.957 -0.7272  0.5580  0.8728
   58SAPC   C28 4342   4.047   2.735   9.818 -0.1290 -0.0999  0.0721
   58SAPC   H8R 4343   3.995   2.820   9.863 -1.9498 -0.9195 -0.4029
   58SAPC   C29 4344   4.074   2.743   9.683 -0.7687 -1.0233 -1.0284
   58SAPC   H9R 4345   4.056   2.838   9.630 -1.7249 -1.0306 -0.7358
   58SAPC  C210 4346   4.145   2.639   9.611 -0.5044  0.7680 -0.6194
   58SAPC  H10R 4347   4.074   2.556   9.591 -1.2315  0.9496  1.0935
   58SAPC  H10S 4348   4.232   2.605   9.671 -0.7033 -2.1561 -1.9248
   58SAPC  C211 4349   4.207   2.663   9.479 -0.2977 -0.2706  0.3528
   58SAPC  H11R 4350   4.316   2.646   9.472 -0.6501 -2.5258  0.2512
   58SAPC  C212 4351   4.159   2.699   9.359  0.0238 -0.7932  0.3094
   58SAPC  H12R 4352   4.232   2.714   9.278 -2.4659  2.1604 -1.4938
   58SAPC  C213 4353   4.008   2.710   9.330 -0.2172  0.1198  0.1382
   58SAPC  H13R 4354   3.991   2.818   9.312  0.6951 -0.0705 -1.9681
   58SAPC  H13S 4355   3.943   2.673   9.412  0.1167  0.6549  0.6476
   58SAPC  C214 4356   3.983   2.634   9.205 -0.9418  0.3897 -0.3681
   58SAPC  H14R 4357   3.969   2.529   9.233 -1.9358  0.6408  0.0825
   58SAPC  C215 4358   3.981   2.669   9.071  0.7946 -0.2792  0.3679
   58SAPC  H15R 4359   3.967   2.587   8.999  1.3426  0.5531 -0.7050
   58SAPC  C216 4360   4.015   2.802   9.017  0.2709 -0.2568 -0.1883
   58SAPC  H16R 4361   4.044   2.867   9.102 -2.7646  0.5152  0.3360
   58SAPC  H16S 4362   3.917   2.845   8.988  0.8850 -0.7455 -3.0758
   58SAPC  C217 4363   4.132   2.806   8.918  0.0062  0.2584 -0.0031
   58SAPC  H17R 4364   4.216   2.757   8.971 -1.0332 -2.2977 -0.6232
   58SAPC  H17S 4365   4.147   2.913   8.895 -0.5737  0.2941 -0.2028
   58SAPC  C218 4366   4.096   2.722   8.795  0.5503  0.3642 -0.3540
   58SAPC  H18R 4367   3.991   2.731   8.760  1.0492 -1.2553 -2.4131
   58SAPC  H18S 4368   4.097   2.617   8.831  0.6922  0.0623 -1.2051
   58SAPC  C219 4369   4.198   2.733   8.681  0.7759 -0.3704 -0.2707
   58SAPC  H19R 4370   4.296   2.703   8.723  1.1989  0.1485 -0.8766
   58SAPC  H19S 4371   4.217   2.840   8.656  0.0186  0.3149  1.9445
   58SAPC  C220 4372   4.164   2.639   8.566  0.2298  0.1822 -0.0799
   58SAPC  H20R 4373   4.054   2.649   8.549 -0.1063 -1.6601  0.9487
   58SAPC  H20S 4374   4.183   2.536   8.600  0.8155 -0.2938 -1.7890
   58SAPC  H20T 4375   4.210   2.659   8.467 -1.0166  1.3638 -0.4392
   58SAPC   C33 4376   3.577   2.778   9.926 -0.4168  0.0018  0.7588
   58SAPC   H3X 4377   3.468   2.757   9.921 -0.5840  0.5424  1.9057
   58SAPC   H3Y 4378   3.625   2.678   9.924  0.2242  0.3155  0.5116
   58SAPC   C34 4379   3.621   2.848   9.793 -0.0327  0.7134 -0.2480
   58SAPC   H4X 4380   3.730   2.842   9.774 -0.1383  0.5244 -0.8285
   58SAPC   H4Y 4381   3.591   2.955   9.795  1.3792  1.1042  1.3507
   58SAPC   C35 4382   3.552   2.778   9.668 -0.2607  0.9739 -0.3842
   58SAPC   H5X 4383   3.445   2.762   9.693  0.4081 -1.2546  1.1726
   58SAPC   H5Y 4384   3.600   2.678   9.671 -1.1977  0.5455  0.3603
   58SAPC   C36 4385   3.575   2.846   9.531  0.5313  0.1645  0.4687
   58SAPC   H6X 4386   3.676   2.821   9.491  0.6798  1.4223  0.0334
   58SAPC   H6Y 4387   3.561   2.954   9.554 -0.2266 -0.2156  1.8521
   58SAPC   C37 4388   3.468   2.791   9.436 -0.2605 -0.1457 -0.6723
   58SAPC   H7X 4389   3.369   2.839   9.455 -0.1817  0.1034 -0.8885
   58SAPC   H7Y 4390   3.455   2.685   9.466 -0.7932  0.4818  1.3764
   58SAPC   C38 4391   3.512   2.795   9.287 -0.3764  0.2160 -0.0127
   58SAPC   H8X 4392   3.614   2.753   9.281 -0.3660  0.2211  0.1424
   58SAPC   H8Y 4393   3.522   2.897   9.242 -0.8332 -0.3038 -1.3222
   58SAPC   C39 4394   3.422   2.721   9.194 -0.0792 -0.1374 -0.4184
   58SAPC   H9X 4395   3.317   2.743   9.222  0.2527 -0.2141  0.9382
   58SAPC   H9Y 4396   3.440   2.612   9.199  1.7547  0.1196 -0.9373
   58SAPC  C310 4397   3.431   2.768   9.047  0.5043  0.3080 -0.7931
   58SAPC  H10X 4398   3.427   2.878   9.060  3.6582  0.7157 -2.8387
   58SAPC  H10Y 4399   3.334   2.737   9.002  0.7947 -2.5784  0.4297
   58SAPC  C311 4400   3.546   2.708   8.967  0.2217 -0.4089 -0.6526
   58SAPC  H11X 4401   3.527   2.601   8.991 -2.2198  0.5577  1.9702
   58SAPC  H11Y 4402   3.642   2.747   9.007  0.3417 -0.6164 -0.7379
   58SAPC  C312 4403   3.523   2.747   8.824 -0.7206 -0.2163 -0.5247
   58SAPC  H12X 4404   3.521   2.857   8.806 -0.3167 -0.2360 -0.7110
   58SAPC  H12Y 4405   3.426   2.702   8.794 -1.9257  1.0562  1.3236
   58SAPC  C313 4406   3.638   2.685   8.739  0.6626 -0.0850  0.4055
   58SAPC  H13X 4407   3.632   2.574   8.743  1.5409 -0.1466  0.0085
   58SAPC  H13Y 4408   3.733   2.719   8.785  1.6294 -1.2378 -0.6853
   58SAPC  C314 4409   3.628   2.751   8.605 -0.2101  0.3423 -0.0367
   58SAPC  H14X 4410   3.667   2.855   8.619 -1.7110  0.8909  0.1077
   58SAPC  H14Y 4411   3.525   2.748   8.566 -0.1004  1.5959 -0.4467
   58SAPC  C315 4412   3.721   2.693   8.496  0.1396  0.0000 -0.1868
   58SAPC  H15X 4413   3.689   2.587   8.489 -1.5993  0.4086  1.2163
   58SAPC  H15Y 4414   3.826   2.690   8.533  0.1722  0.8608 -0.1971
   58SAPC  C316 4415   3.700   2.756   8.366  0.3163 -0.1599 -0.9134
   58SAPC  H16X 4416   3.716   2.866   8.355 -4.2928  0.4673 -2.5465
   58SAPC  H16Y 4417   3.594   2.739   8.340 -0.3675  2.4798 -0.0441
   58SAPC  C317 4418   3.781   2.688   8.256 -0.0893  0.7620  0.3702
   58SAPC  H17X 4419   3.754   2.580   8.265  1.6758  0.4598  2.3311
   58SAPC  H17Y 4420   3.892   2.693   8.264  0.0830  2.2627 -2.3384
   58SAPC  C318 4421   3.750   2.727   8.106 -0.0184  0.2625 -0.9403
   58SAPC  H18X 4422   3.799   2.657   8.035  2.5491  0.4837  0.5692
   58SAPC  H18Y 4423   3.791   2.829   8.100  1.0776  0.0685  2.2942
   58SAPC  H18Z 4424   3.640   2.729   8.089 -0.4640 -0.2586  1.6649
   59SAPC     N 4425   5.476   4.166  11.551  0.3618 -0.0704  0.8432
   59SAPC   C12 4426   5.504   4.184  11.402 -0.5658 -0.2630 -0.2108
   59SAPC  H12A 4427   5.473   4.280  11.362  1.2775  0.6801  0.5306
   59SAPC  H12B 4428   5.459   4.105  11.343  0.4977 -0.0403 -1.3477
   59SAPC   C13 4429   5.558   4.060  11.604 -0.3559 -0.5102  0.3682
   59SAPC  H13A 4430   5.663   4.066  11.579 -0.1339  0.8238  1.5345
   59SAPC  H13B 4431   5.545   4.044  11.710 -1.0197 -1.3149  0.1734
   59SAPC  H13C 4432   5.524   3.971  11.554 -2.8119 -1.0156  2.7877
   59SAPC   C14 4433   5.512   4.294  11.633  0.4770 -0.2296  0.3612
   59SAPC  H14A 4434   5.441   4.372  11.613 -1.4568 -2.1151 -0.3100
   59SAPC  H14B 4435   5.504   4.265  11.736  2.4021 -2.4622 -0.0574
   59SAPC  H14C 4436   5.615   4.323  11.616  1.1090 -1.1561  2.5095
   59SAPC   C15 4437   5.337   4.137  11.579 -0.2226  1.0270  0.3129
   59SAPC  H15A 4438   5.268   4.214  11.549  0.1839  1.4595  0.4887
   59SAPC  H15B 4439   5.303   4.044  11.536 -1.4576  1.4690  0.3115
   59SAPC  H15C 4440   5.327   4.126  11.686  2.9525  2.6187  0.8333
   59SAPC   C11 4441   5.656   4.187  11.363 -0.6078 -0.0522  0.0735
   59SAPC  H11A 4442   5.722   4.239  11.436 -0.4940  1.2005 -0.9092
   59SAPC  H11B 4443   5.673   4.250  11.273 -2.0898  1.7668  1.0293
   59SAPC     P 4444   5.668   3.974  11.209 -0.2641 -0.0556 -0.2023
   59SAPC   O13 4445   5.738   3.844  11.202  0.0594  0.2019  0.0441
   59SAPC   O14 4446   5.524   3.969  11.186  0.4629 -0.4278 -0.3742
   59SAPC   O12 4447   5.706   4.050  11.342  0.2516  0.2475 -0.3505
   59SAPC   O11 4448   5.741   4.067  11.105  0.3634  0.4956 -0.3440
   59SAPC    C1 4449   5.664   4.134  11.007  0.8065 -0.1505 -0.4116
   59SAPC    HA 4450   5.574   4.181  11.052  2.1196  0.8919  1.2177
   59SAPC    HB 4451   5.732   4.206  10.957 -0.3631  0.9351 -0.4539
   59SAPC    C2 4452   5.617   4.045  10.889 -0.2886  0.3548  0.7700
   59SAPC    HS 4453   5.543   3.971  10.927 -1.0471  0.9319  0.4383
   59SAPC   O21 4454   5.736   3.977  10.839  0.5950 -0.9510 -0.1780
   59SAPC   C21 4455   5.722   3.859  10.782  0.0831  0.2645 -0.0593
   59SAPC   O22 4456   5.619   3.793  10.767 -0.0347 -0.0179 -0.5817
   59SAPC   C22 4457   5.858   3.804  10.742 -0.7070  0.3239  0.1562
   59SAPC   H2R 4458   5.946   3.860  10.780  1.6075 -4.0871  1.5474
   59SAPC   H2S 4459   5.876   3.701  10.778 -1.0704  1.0032  2.3354
   59SAPC    C3 4460   5.550   4.130  10.779 -0.1832  1.0291 -0.2120
   59SAPC    HX 4461   5.632   4.203  10.759  0.2926  0.6947  0.4604
   59SAPC    HY 4462   5.466   4.180  10.831  0.8442  1.6909  0.8528
   59SAPC   O31 4463   5.522   4.051  10.662  0.6157  0.4887  0.3404
   59SAPC   C31 4464   5.566   4.096  10.552 -1.0491 -0.0248 -0.8646
   59SAPC   O32 4465   5.619   4.205  10.536 -0.6301  0.0587  0.4126
   59SAPC   C32 4466   5.555   3.983  10.454  0.5663  0.6145 -0.2037
   59SAPC   H2X 4467   5.451   3.970  10.416  0.5582  0.1334 -0.0128
   59SAPC   H2Y 4468   5.604   3.894  10.497 -0.9200 -0.2643 -0.2944
   59SAPC   C23 4469   5.879   3.807  10.587 -0.2892  0.3569  0.0438
   59SAPC   H3R 4470   5.881   3.916  10.566  0.1967  0.3687  0.1483
   59SAPC   H3S 4471   5.802   3.752  10.527  0.1347  0.6695 -0.7990
   59SAPC   C24 4472   6.008   3.737  10.541 -0.6288  0.1124 -0.1804
   59SAPC   H4R 4473   5.999   3.705  10.435  1.0542 -2.4760  0.3961
   59SAPC   H4S 4474   5.999   3.641  10.597 -4.4563  0.6918  0.3747
   59SAPC   C25 4475   6.139   3.804  10.567  0.2379  0.8283 -0.6982
   59SAPC   H5R 4476   6.160   3.817  10.674 -0.0605  2.8124 -0.8461
   59SAPC   C26 4477   6.231   3.851  10.485  0.1278 -0.1834  1.0719
   59SAPC   H6R 4478   6.318   3.906  10.522  1.6064 -1.0300 -1.0340
   59SAPC   C27 4479   6.222   3.851  10.336  0.7265  0.2451  0.1327
   59SAPC   H7R 4480   6.207   3.959  10.314 -0.0669 -0.1526 -1.3027
   59SAPC   H7S 4481   6.134   3.799  10.294  1.1545 -0.2216 -0.1828
   59SAPC   C28 4482   6.350   3.803  10.277 -1.2243 -0.3541 -0.3665
   59SAPC   H8R 4483   6.429   3.770  10.345  0.7741 -1.2297 -3.0164
   59SAPC   C29 4484   6.378   3.815  10.139 -0.2608 -0.0639  0.8179
   59SAPC   H9R 4485   6.467   3.769  10.093 -1.1138  1.1597 -2.2040
   59SAPC  C210 4486   6.287   3.881  10.040  0.1536 -0.2816 -0.8033
   59SAPC  H10R 4487   6.190   3.915  10.083 -0.5030 -1.6043 -1.1827
   59SAPC  H10S 4488   6.241   3.808   9.969 -2.4344  0.5330 -0.0092
   59SAPC  C211 4489   6.343   4.003   9.975 -0.1784 -0.5080 -0.1936
   59SAPC  H11R 4490   6.396   4.078  10.035 -2.2964  1.0943 -0.2590
   59SAPC  C212 4491   6.336   4.037   9.846  0.0746 -0.2127  0.9133
   59SAPC  H12R 4492   6.389   4.130   9.816  0.7654  0.0259  2.8077
   59SAPC  C213 4493   6.275   3.964   9.731 -0.1344  0.2034 -0.1563
   59SAPC  H13R 4494   6.222   4.035   9.664  1.1693 -0.8058 -2.3391
   59SAPC  H13S 4495   6.192   3.906   9.775  0.5101  0.3714  1.3066
   59SAPC  C214 4496   6.382   3.893   9.657  0.3290 -0.6290 -0.5522
   59SAPC  H14R 4497   6.459   3.847   9.720 -1.0971 -2.1285  0.1444
   59SAPC  C215 4498   6.392   3.887   9.522  0.8368 -0.1901 -0.7334
   59SAPC  H15R 4499   6.480   3.840   9.476 -0.7800 -1.5819 -2.4849
   59SAPC  C216 4500   6.294   3.942   9.420 -0.0172  0.1825 -0.7636
   59SAPC  H16R 4501   6.346   4.032   9.383  0.9897 -1.1598 -2.7108
   59SAPC  H16S 4502   6.199   3.979   9.464 -0.5945  0.0924 -1.9264
   59SAPC  C217 4503   6.261   3.848   9.301  0.3927 -0.5967  0.8680
   59SAPC  H17R 4504   6.199   3.764   9.340 -0.5045 -0.4906 -0.2840
   59SAPC  H17S 4505   6.358   3.813   9.260  0.3296 -2.1970  2.0349
   59SAPC  C218 4506   6.188   3.925   9.185 -0.2157  0.5446 -0.2130
   59SAPC  H18R 4507   6.255   4.002   9.140  0.5626  0.3656  0.6298
   59SAPC  H18S 4508   6.103   3.982   9.230 -1.6300 -1.8994  0.2925
   59SAPC  C219 4509   6.146   3.851   9.065  0.6064  0.4896  1.1169
   59SAPC  H19R 4510   6.077   3.915   9.006  0.0963 -1.7294 -0.7455
   59SAPC  H19S 4511   6.094   3.758   9.096 -0.3143  0.6619  0.1061
   59SAPC  C220 4512   6.263   3.825   8.974 -0.4843  0.1750  0.3258
   59SAPC  H20R 4513   6.321   3.914   8.941  1.8441 -1.1803  0.6593
   59SAPC  H20S 4514   6.237   3.774   8.880 -0.7512  2.0003 -0.6165
   59SAPC  H20T 4515   6.334   3.762   9.031 -0.6009  1.2265  1.6941
   59SAPC   C33 4516   5.639   4.004  10.328 -0.4521 -0.1951  0.5934
   59SAPC   H3X 4517   5.743   4.030  10.359  0.4641 -2.0219 -0.8513
   59SAPC   H3Y 4518   5.596   4.071  10.250 -1.1901 -0.5888  0.6633
   59SAPC   C34 4519   5.659   3.872  10.246  0.4761 -0.4018  0.0452
   59SAPC   H4X 4520   5.561   3.822  10.226  1.1053 -0.6882 -2.4353
   59SAPC   H4Y 4521   5.713   3.796  10.306 -2.1752 -1.3038  1.4198
   59SAPC   C35 4522   5.717   3.905  10.111 -0.3497 -0.1036 -0.1206
   59SAPC   H5X 4523   5.807   3.967  10.131 -1.0328  1.0387 -0.5340
   59SAPC   H5Y 4524   5.645   3.963  10.050 -1.8050  0.7930  2.3521
   59SAPC   C36 4525   5.751   3.775  10.041 -0.3142 -0.4692 -1.2433
   59SAPC   H6X 4526   5.651   3.727  10.042  0.3177 -2.0669  4.7504
   59SAPC   H6Y 4527   5.816   3.715  10.108 -1.8478 -0.3366  0.3859
   59SAPC   C37 4528   5.805   3.806   9.905 -0.2134  0.0908 -0.1343
   59SAPC   H7X 4529   5.853   3.906   9.894  0.9183 -0.3506  0.7057
   59SAPC   H7Y 4530   5.717   3.796   9.838 -1.4068  0.7409  1.3153
   59SAPC   C38 4531   5.907   3.712   9.841 -0.4107 -0.0604 -0.3570
   59SAPC   H8X 4532   5.871   3.607   9.844  2.4812 -1.1271 -1.2372
   59SAPC   H8Y 4533   6.004   3.717   9.895 -1.2347 -1.2332  1.2538
   59SAPC   C39 4534   5.937   3.760   9.692 -0.6665  0.2464  0.2834
   59SAPC   H9X 4535   6.021   3.693   9.664 -0.2388  0.0877  1.9343
   59SAPC   H9Y 4536   5.982   3.862   9.687 -0.8100  0.3339  0.7993
   59SAPC  C310 4537   5.822   3.762   9.587  0.0700 -0.3992  0.5415
   59SAPC  H10X 4538   5.740   3.819   9.636  0.0383 -1.2987  1.5404
   59SAPC  H10Y 4539   5.784   3.658   9.579 -0.5359 -0.1330 -0.1185
   59SAPC  C311 4540   5.868   3.813   9.455 -0.2385  0.3000  0.2780
   59SAPC  H11X 4541   5.926   3.735   9.401 -3.0572 -1.5016 -0.3025
   59SAPC  H11Y 4542   5.928   3.906   9.462 -0.8995  0.6867  0.8873
   59SAPC  C312 4543   5.753   3.837   9.359 -0.2071  0.2626  0.2742
   59SAPC  H12X 4544   5.678   3.912   9.393  0.5236  1.0491  0.1706
   59SAPC  H12Y 4545   5.696   3.742   9.352  1.3099 -0.6211 -0.1151
   59SAPC  C313 4546   5.803   3.860   9.211  0.6954 -0.4403  0.3918
   59SAPC  H13X 4547   5.883   3.785   9.192  0.8332 -0.6926  1.9327
   59SAPC  H13Y 4548   5.841   3.964   9.213  1.9149 -0.8978  1.6489
   59SAPC  C314 4549   5.695   3.836   9.101 -0.6522  0.3616 -0.0573
   59SAPC  H14X 4550   5.606   3.898   9.125 -0.6747  1.6146 -3.1174
   59SAPC  H14Y 4551   5.677   3.726   9.100 -0.2979  0.2899  1.1065
   59SAPC  C315 4552   5.749   3.888   8.962 -0.2764  0.6735 -0.5809
   59SAPC  H15X 4553   5.832   3.821   8.932 -0.0962  0.6879 -0.1153
   59SAPC  H15Y 4554   5.781   3.994   8.973 -1.9873  1.1255  0.2863
   59SAPC  C316 4555   5.635   3.889   8.854 -0.6585  0.5529  0.1382
   59SAPC  H16X 4556   5.549   3.941   8.902 -2.6852 -0.7715 -1.9547
   59SAPC  H16Y 4557   5.610   3.781   8.844 -3.2265  1.2004 -0.9014
   59SAPC  C317 4558   5.692   3.952   8.734  0.1892  0.5168  0.8524
   59SAPC  H17X 4559   5.783   3.902   8.694 -0.9783 -1.5524  0.7406
   59SAPC  H17Y 4560   5.746   4.048   8.755 -1.4189  1.9808 -1.4351
   59SAPC  C318 4561   5.596   3.988   8.624 -0.5925 -0.3218 -0.2672
   59SAPC  H18X 4562   5.547   4.085   8.647 -2.7452 -1.6152  0.7700
   59SAPC  H18Y 4563   5.516   3.911   8.617 -0.2607 -0.5550 -1.6977
   59SAPC  H18Z 4564   5.641   3.988   8.523 -3.9213 -2.3676 -1.8299
   60SAPC     N 4565   0.013   1.635  11.074  0.4612 -0.2155  0.4471
   60SAPC   C12 4566   0.094   1.756  11.027 -0.5836 -0.0017 -0.0542
   60SAPC  H12A 4567   0.142   1.728  10.935  0.3291 -0.1718  0.4614
   60SAPC  H12B 4568   0.177   1.765  11.097 -0.1756  1.0011 -0.6638
   60SAPC   C13 4569  -0.094   1.606  10.979  0.2881 -0.0546  0.3755
   60SAPC  H13A 4570  -0.183   1.580  11.034  0.2236  3.1645  1.9117
   60SAPC  H13B 4571  -0.117   1.691  10.916  2.7198  0.0380 -0.4461
   60SAPC  H13C 4572  -0.074   1.530  10.905 -0.0853 -0.0064  0.2230
   60SAPC   C14 4573   0.107   1.519  11.109 -0.2563 -0.2580 -0.0302
   60SAPC  H14A 4574   0.187   1.546  11.177 -1.1046  0.7958  0.5540
   60SAPC  H14B 4575   0.056   1.434  11.150  1.8353 -1.7107 -0.3424
   60SAPC  H14C 4576   0.155   1.476  11.022 -2.2040 -1.0757 -0.7189
   60SAPC   C15 4577  -0.055   1.672  11.209  0.1353 -0.5721  0.0906
   60SAPC  H15A 4578  -0.100   1.581  11.247  1.3271 -0.4989  1.7270
   60SAPC  H15B 4579   0.026   1.693  11.277  2.0463 -1.7062 -1.7722
   60SAPC  H15C 4580  -0.118   1.759  11.197 -0.9936 -1.0549  2.2578
   60SAPC   C11 4581   0.017   1.887  11.005  0.0185 -0.1258  0.1298
   60SAPC  H11A 4582   0.101   1.955  10.981  0.0728  0.0200  0.7228
   60SAPC  H11B 4583  -0.024   1.937  11.096 -1.0122  0.1634 -0.4795
   60SAPC     P 4584  -0.070   1.869  10.753  0.2494  0.2014  0.3503
   60SAPC   O13 4585  -0.141   1.745  10.714 -0.7470  0.3336  0.2136
   60SAPC   O14 4586  -0.111   1.995  10.681 -0.5331  0.1509 -0.9613
   60SAPC   O12 4587  -0.093   1.886  10.909  0.1782 -0.6477 -0.0190
   60SAPC   O11 4588   0.088   1.856  10.730 -0.3619  0.5680  0.5072
   60SAPC    C1 4589   0.142   1.752  10.644  0.9023 -0.9414 -0.1892
   60SAPC    HA 4590   0.249   1.750  10.671  0.0916 -2.0912  3.1371
   60SAPC    HB 4591   0.094   1.653  10.664 -0.0704  0.1354  3.0776
   60SAPC    C2 4592   0.143   1.790  10.493 -0.0680 -0.0254 -0.1710
   60SAPC    HS 4593   0.184   1.893  10.491  0.7094 -0.3268 -0.3483
   60SAPC   O21 4594   0.009   1.787  10.447  0.6775  0.4368 -0.5320
   60SAPC   C21 4595  -0.019   1.886  10.363 -0.1456  0.3142 -0.2235
   60SAPC   O22 4596   0.052   1.974  10.319  0.8078  1.0191 -0.4339
   60SAPC   C22 4597  -0.176   1.872  10.335  0.1581 -0.3742 -0.1744
   60SAPC   H2R 4598  -0.216   1.769  10.320 -0.7422  0.4397 -3.8826
   60SAPC   H2S 4599  -0.232   1.926  10.414  1.1444  0.1390  0.1774
   60SAPC    C3 4600   0.234   1.704  10.401  0.1002  0.1991 -0.0810
   60SAPC    HX 4601   0.205   1.597  10.404  0.7223  0.0084 -0.9171
   60SAPC    HY 4602   0.339   1.711  10.436  0.1305 -1.3807  0.1892
   60SAPC   O31 4603   0.231   1.745  10.264 -0.0902  0.6644 -0.5634
   60SAPC   C31 4604   0.314   1.847  10.229  0.2226 -0.2099 -0.0644
   60SAPC   O32 4605   0.382   1.908  10.308  0.0481 -0.4313  0.0885
   60SAPC   C32 4606   0.308   1.877  10.076 -0.2171  0.8560  0.0206
   60SAPC   H2X 4607   0.233   1.803  10.041 -0.1940  0.0860  1.5358
   60SAPC   H2Y 4608   0.405   1.853  10.027 -0.2419 -0.5230  0.6166
   60SAPC   C23 4609  -0.217   1.937  10.199 -0.1865 -0.5922 -0.8839
   60SAPC   H3R 4610  -0.169   2.037  10.201  0.0716 -0.6790 -2.4347
   60SAPC   H3S 4611  -0.327   1.953  10.199 -0.1466 -0.3067 -0.6840
   60SAPC   C24 4612  -0.174   1.861  10.077 -0.6451 -0.2610 -0.1772
   60SAPC   H4R 4613  -0.227   1.764  10.071 -1.3837 -0.0674  2.5202
   60SAPC   H4S 4614  -0.068   1.833  10.092 -1.5054 -2.0029  2.9359
   60SAPC   C25 4615  -0.181   1.949   9.955 -0.2569  0.4223  0.2833
   60SAPC   H5R 4616  -0.145   2.048   9.987 -0.7556 -0.0422  2.3343
   60SAPC   C26 4617  -0.243   1.945   9.840  0.5545  0.6959  0.5775
   60SAPC   H6R 4618  -0.231   2.029   9.770  0.4954  1.9322  2.0034
   60SAPC   C27 4619  -0.318   1.820   9.790  0.0145  0.2350  0.2896
   60SAPC   H7R 4620  -0.358   1.761   9.875 -0.0372 -0.3952 -0.1700
   60SAPC   H7S 4621  -0.242   1.757   9.740  0.7838 -0.6006  2.4966
   60SAPC   C28 4622  -0.429   1.859   9.693 -0.0146 -0.2741 -0.2769
   60SAPC   H8R 4623  -0.525   1.872   9.746  0.0724  2.4681 -0.7178
   60SAPC   C29 4624  -0.420   1.889   9.562  0.0162 -0.2333 -0.0033
   60SAPC   H9R 4625  -0.506   1.918   9.500 -0.0865  0.0882  0.2920
   60SAPC  C210 4626  -0.290   1.886   9.482  0.5729  0.3798 -0.5360
   60SAPC  H10R 4627  -0.297   1.833   9.384 -1.8085  0.1517 -0.2760
   60SAPC  H10S 4628  -0.215   1.828   9.540 -0.0169 -0.5101 -0.6479
   60SAPC  C211 4629  -0.242   2.026   9.449  0.7818 -0.0842  1.1198
   60SAPC  H11R 4630  -0.208   2.086   9.535 -1.1978  1.6907  0.6836
   60SAPC  C212 4631  -0.228   2.076   9.323 -0.4482  0.0694  0.2330
   60SAPC  H12R 4632  -0.176   2.173   9.318  0.5134 -0.4604 -0.3726
   60SAPC  C213 4633  -0.269   2.016   9.186  0.1623  0.4567  0.5131
   60SAPC  H13R 4634  -0.326   1.921   9.193  0.1561  0.4380  0.1923
   60SAPC  H13S 4635  -0.182   1.986   9.124 -0.6960 -0.4625 -0.2711
   60SAPC  C214 4636  -0.358   2.116   9.111 -0.1326 -0.6171  1.0642
   60SAPC  H14R 4637  -0.426   2.173   9.177 -0.0507  0.0359  0.5831
   60SAPC  C215 4638  -0.363   2.149   8.980 -0.3966 -0.4392 -0.3249
   60SAPC  H15R 4639  -0.437   2.222   8.943 -1.6124 -2.2438 -1.5197
   60SAPC  C216 4640  -0.274   2.092   8.873 -0.3738 -0.4991  0.2494
   60SAPC  H16R 4641  -0.199   2.019   8.912 -0.3641 -0.1401  0.9162
   60SAPC  H16S 4642  -0.210   2.170   8.827  2.2188 -1.0862  2.6988
   60SAPC  C217 4643  -0.358   2.028   8.763 -0.0168  0.5872  1.1682
   60SAPC  H17R 4644  -0.443   2.085   8.722 -0.1140 -1.5172 -1.6860
   60SAPC  H17S 4645  -0.406   1.940   8.812 -1.9951  0.8218 -0.3009
   60SAPC  C218 4646  -0.271   1.989   8.645 -0.2121  0.1617 -0.1055
   60SAPC  H18R 4647  -0.222   1.890   8.657  0.0252  0.5839  2.5055
   60SAPC  H18S 4648  -0.191   2.065   8.637 -1.1605  1.1080 -0.7923
   60SAPC  C219 4649  -0.345   1.978   8.515  0.1505 -0.6267  0.3175
   60SAPC  H19R 4650  -0.273   1.960   8.433  0.3122  1.0892  0.0592
   60SAPC  H19S 4651  -0.395   2.076   8.497  0.4612  0.0286  2.8352
   60SAPC  C220 4652  -0.443   1.867   8.508  0.1156 -0.5150 -0.3760
   60SAPC  H20R 4653  -0.390   1.773   8.535  1.9402  0.8999  1.1224
   60SAPC  H20S 4654  -0.487   1.855   8.407  0.3523 -0.3790 -0.4969
   60SAPC  H20T 4655  -0.522   1.867   8.585  0.4402  0.7237 -0.0353
   60SAPC   C33 4656   0.260   2.022  10.045 -0.1447  0.1973  0.1064
   60SAPC   H3X 4657   0.338   2.093  10.079  0.6998 -1.5268  1.8401
   60SAPC   H3Y 4658   0.166   2.052  10.097 -0.6540 -2.2663  0.6657
   60SAPC   C34 4659   0.239   2.021   9.891  0.4314 -0.6676 -0.4262
   60SAPC   H4X 4660   0.148   1.960   9.869 -0.1212  0.3337 -0.9748
   60SAPC   H4Y 4661   0.333   1.985   9.844  0.9349  0.0114  0.0534
   60SAPC   C35 4662   0.204   2.156   9.836  0.1198  0.1036 -0.4853
   60SAPC   H5X 4663   0.288   2.226   9.859 -1.3611  1.4977  0.8241
   60SAPC   H5Y 4664   0.117   2.202   9.888  0.2269 -1.1819  0.8674
   60SAPC   C36 4665   0.179   2.163   9.687 -0.3916 -0.2365  0.1630
   60SAPC   H6X 4666   0.076   2.120   9.679 -0.2717 -1.0255  2.5425
   60SAPC   H6Y 4667   0.244   2.105   9.617 -1.2377 -0.0248 -0.8206
   60SAPC   C37 4668   0.158   2.307   9.636 -0.4142 -0.1615  0.1518
   60SAPC   H7X 4669   0.243   2.374   9.662 -0.0130 -1.3759  2.1474
   60SAPC   H7Y 4670   0.077   2.352   9.697  0.8847  0.1919  1.6609
   60SAPC   C38 4671   0.129   2.301   9.487 -0.1840 -0.2148 -0.1614
   60SAPC   H8X 4672   0.047   2.229   9.465  0.5234 -1.1852  0.3497
   60SAPC   H8Y 4673   0.209   2.251   9.429  0.7881  0.6506  0.4076
   60SAPC   C39 4674   0.097   2.429   9.414 -0.5626 -0.7658 -0.9180
   60SAPC   H9X 4675   0.188   2.493   9.413 -1.7397  0.9580  0.3884
   60SAPC   H9Y 4676   0.024   2.483   9.477 -0.8190 -0.9791 -1.0306
   60SAPC  C310 4677   0.029   2.416   9.279 -0.6605 -0.1979 -0.1416
   60SAPC  H10X 4678  -0.003   2.516   9.241 -0.9645 -0.3564 -0.3085
   60SAPC  H10Y 4679  -0.058   2.351   9.302 -0.6329  1.0087  3.6644
   60SAPC  C311 4680   0.116   2.339   9.177  0.1070  0.7438 -0.5347
   60SAPC  H11X 4681   0.116   2.232   9.207  0.7742  1.3696  1.7292
   60SAPC  H11Y 4682   0.222   2.371   9.186 -0.1778  1.8995 -1.1960
   60SAPC  C312 4683   0.067   2.364   9.036  0.4194  0.5205 -0.2577
   60SAPC  H12X 4684   0.054   2.472   9.018  0.3731  0.5446 -0.0743
   60SAPC  H12Y 4685  -0.029   2.311   9.015  1.6649 -1.0652 -2.1334
   60SAPC  C313 4686   0.164   2.321   8.927  0.2162  0.4376 -0.1556
   60SAPC  H13X 4687   0.223   2.237   8.969 -1.0343 -0.2010  0.3676
   60SAPC  H13Y 4688   0.223   2.409   8.895  2.4671 -1.4759 -1.3402
   60SAPC  C314 4689   0.091   2.281   8.802  0.2013  0.3951 -0.0928
   60SAPC  H14X 4690   0.009   2.353   8.780  0.5012  0.8203  0.1782
   60SAPC  H14Y 4691   0.048   2.185   8.836  0.2429  0.8175  1.1870
   60SAPC  C315 4692   0.170   2.264   8.664 -0.7179 -0.0100 -0.5853
   60SAPC  H15X 4693   0.224   2.167   8.665  0.2237  0.5029  1.8596
   60SAPC  H15Y 4694   0.242   2.345   8.638 -2.4788  1.4844 -0.8657
   60SAPC  C316 4695   0.075   2.248   8.546  0.4201  0.3966 -0.6298
   60SAPC  H16X 4696  -0.006   2.323   8.534  0.1627  0.7044  2.5756
   60SAPC  H16Y 4697   0.032   2.146   8.560 -1.2192  0.7866 -2.7261
   60SAPC  C317 4698   0.146   2.264   8.416 -0.4789 -0.1593 -0.2314
   60SAPC  H17X 4699   0.231   2.193   8.410  1.1421  1.6937  0.7478
   60SAPC  H17Y 4700   0.184   2.367   8.401 -2.1229  0.7620  1.6450
   60SAPC  C318 4701   0.061   2.229   8.291 -0.1289 -0.3855 -0.0958
   60SAPC  H18X 4702   0.012   2.130   8.306 -1.3476 -0.3409 -3.3627
   60SAPC  H18Y 4703   0.133   2.225   8.207  1.3773  1.9313  1.0469
   60SAPC  H18Z 4704  -0.015   2.306   8.266 -1.5505 -0.9637  2.2687
   61SAPC     N 4705   1.801   1.187  10.965 -0.3838 -0.0677 -0.0117
   61SAPC   C12 4706   1.820   1.087  10.844  0.7978 -0.2725  0.5005
   61SAPC  H12A 4707   1.842   0.988  10.882  0.1076 -1.2353 -1.5575
   61SAPC  H12B 4708   1.907   1.118  10.788  1.7601 -2.6637  0.6313
   61SAPC   C13 4709   1.932   1.222  11.026  0.1140  0.1919 -0.2986
   61SAPC  H13A 4710   1.990   1.291  10.966 -0.2582 -0.0632 -0.9591
   61SAPC  H13B 4711   1.920   1.279  11.117  1.4899  0.8986 -0.5486
   61SAPC  H13C 4712   2.000   1.138  11.026  1.6164  1.3697 -1.1522
   61SAPC   C14 4713   1.742   1.316  10.929  0.4516 -0.1973 -0.0594
   61SAPC  H14A 4714   1.723   1.382  11.012  2.0744  0.3915 -0.1380
   61SAPC  H14B 4715   1.806   1.376  10.866 -0.9899  1.6447  0.1867
   61SAPC  H14C 4716   1.647   1.304  10.879 -0.2655 -1.9728  1.6437
   61SAPC   C15 4717   1.712   1.125  11.073  0.0275 -0.4792  0.1431
   61SAPC  H15A 4718   1.738   1.022  11.090 -1.8441 -0.9570  0.2448
   61SAPC  H15B 4719   1.733   1.175  11.166 -1.0639 -0.9359  0.6484
   61SAPC  H15C 4720   1.611   1.118  11.036 -0.3517 -1.1081  1.3077
   61SAPC   C11 4721   1.703   1.065  10.750 -0.3041 -0.4979 -0.1321
   61SAPC  H11A 4722   1.730   1.005  10.659  0.0609  0.1430 -0.4479
   61SAPC  H11B 4723   1.679   1.159  10.697  0.7247  0.3872  0.9487
   61SAPC     P 4724   1.510   0.884  10.777  0.2222  0.2856 -0.1514
   61SAPC   O13 4725   1.600   0.768  10.806  0.1267 -0.1870 -0.8365
   61SAPC   O14 4726   1.374   0.889  10.839 -0.5613  0.7229 -0.3129
   61SAPC   O12 4727   1.589   1.021  10.814  0.5408 -0.3289  0.5763
   61SAPC   O11 4728   1.503   0.902  10.614  0.4185 -0.3097 -0.4351
   61SAPC    C1 4729   1.392   0.993  10.576 -0.3074 -0.4243  0.2638
   61SAPC    HA 4730   1.295   0.939  10.579  0.1577 -1.5122 -2.4992
   61SAPC    HB 4731   1.385   1.088  10.632 -0.1661 -0.7347  0.8148
   61SAPC    C2 4732   1.402   1.029  10.424  0.6150  0.3591 -0.3789
   61SAPC    HS 4733   1.336   1.115  10.399  0.9967  0.8161  0.1831
   61SAPC   O21 4734   1.380   0.909  10.344 -0.1007  0.2296 -0.1442
   61SAPC   C21 4735   1.255   0.869  10.342  0.2558 -0.2572  0.0859
   61SAPC   O22 4736   1.163   0.945  10.388 -0.1993 -0.3496  0.0127
   61SAPC   C22 4737   1.246   0.736  10.280  0.1233 -0.5060  0.2530
   61SAPC   H2R 4738   1.316   0.736  10.194 -1.1998  1.5775 -0.8629
   61SAPC   H2S 4739   1.286   0.666  10.357  0.3506  0.0842  0.6737
   61SAPC    C3 4740   1.537   1.095  10.392 -0.1762  0.1248 -0.0666
   61SAPC    HX 4741   1.622   1.038  10.435  1.2576  2.7676  0.6967
   61SAPC    HY 4742   1.537   1.190  10.448 -2.8020  0.7601 -1.0563
   61SAPC   O31 4743   1.557   1.122  10.248 -0.2982 -0.0900 -0.4339
   61SAPC   C31 4744   1.669   1.177  10.221 -0.4687 -0.6391  0.8279
   61SAPC   O32 4745   1.762   1.206  10.299  0.0184 -0.6881  0.1240
   61SAPC   C32 4746   1.685   1.214  10.072 -0.0830 -0.6904  0.1984
   61SAPC   H2X 4747   1.594   1.267  10.035 -0.2223 -0.7876  0.3995
   61SAPC   H2Y 4748   1.692   1.116  10.020 -0.9638 -0.7178  0.1154
   61SAPC   C23 4749   1.102   0.703  10.241 -0.4471  0.2746  0.6324
   61SAPC   H3R 4750   1.063   0.787  10.180  0.2433 -0.2529 -0.5417
   61SAPC   H3S 4751   1.028   0.704  10.324  1.4616  1.9303  2.3759
   61SAPC   C24 4752   1.095   0.572  10.162  0.4985  0.4962 -0.5008
   61SAPC   H4R 4753   1.116   0.487  10.230 -2.7298  0.0270 -0.0073
   61SAPC   H4S 4754   1.181   0.564  10.091 -0.4542  0.2273 -1.6534
   61SAPC   C25 4755   0.962   0.552  10.099  0.3203  0.0391  0.0211
   61SAPC   H5R 4756   0.885   0.624  10.130 -0.1295 -0.4664  0.0823
   61SAPC   C26 4757   0.927   0.489   9.983 -0.6805  0.5435  1.1818
   61SAPC   H6R 4758   0.824   0.491   9.945 -0.4905  2.8407  0.7596
   61SAPC   C27 4759   1.020   0.400   9.897  0.0477 -0.3196 -0.1529
   61SAPC   H7R 4760   1.034   0.301   9.947 -0.0068 -0.5081 -0.5098
   61SAPC   H7S 4761   1.119   0.449   9.885  0.4211 -1.4389 -1.7914
   61SAPC   C28 4762   0.961   0.361   9.766 -0.1089  0.0254 -0.4192
   61SAPC   H8R 4763   0.875   0.292   9.771 -1.0278  1.0509 -1.6067
   61SAPC   C29 4764   0.984   0.413   9.647  0.9095 -0.2915  0.1742
   61SAPC   H9R 4765   0.934   0.364   9.562  0.8068  2.2876 -1.2969
   61SAPC  C210 4766   1.080   0.528   9.627  0.9621  0.5311  0.3888
   61SAPC  H10R 4767   1.148   0.552   9.712  0.3122 -0.2981  1.1549
   61SAPC  H10S 4768   1.020   0.620   9.616 -0.0863 -0.1920 -0.0752
   61SAPC  C211 4769   1.171   0.508   9.511 -0.0312  0.5943  0.1888
   61SAPC  H11R 4770   1.267   0.469   9.549  1.3496 -1.6883 -5.2165
   61SAPC  C212 4771   1.146   0.538   9.384  0.3722 -0.0356  0.2144
   61SAPC  H12R 4772   1.225   0.529   9.308  0.7440 -1.3514  0.7477
   61SAPC  C213 4773   1.029   0.606   9.320  1.0407  0.2293  0.3503
   61SAPC  H13R 4774   0.947   0.619   9.394  0.6125 -0.7523  0.0570
   61SAPC  H13S 4775   0.978   0.542   9.245 -0.6969  0.9088  0.9418
   61SAPC  C214 4776   1.076   0.735   9.251 -0.3577 -0.2019 -0.1200
   61SAPC  H14R 4777   1.100   0.818   9.319 -2.2359 -0.0202  0.3431
   61SAPC  C215 4778   1.126   0.752   9.126 -0.6716 -0.3491  0.2498
   61SAPC  H15R 4779   1.149   0.849   9.080 -0.0289  0.5652  2.4369
   61SAPC  C216 4780   1.136   0.637   9.032 -0.1685 -0.3621 -0.2955
   61SAPC  H16R 4781   1.067   0.559   9.069 -3.0521  1.1362 -2.3403
   61SAPC  H16S 4782   1.241   0.601   9.044 -0.3597 -0.5802  0.7332
   61SAPC  C217 4783   1.120   0.670   8.883  0.2827 -0.0411  0.1645
   61SAPC  H17R 4784   1.202   0.741   8.857 -0.7371  0.8125 -0.7645
   61SAPC  H17S 4785   1.021   0.709   8.852  1.0157 -0.0409 -2.3174
   61SAPC  C218 4786   1.150   0.540   8.798 -0.0788 -0.1606  0.0040
   61SAPC  H18R 4787   1.060   0.476   8.790 -0.2925  0.3397 -1.9823
   61SAPC  H18S 4788   1.226   0.487   8.859  0.1664  1.1032  0.8123
   61SAPC  C219 4789   1.200   0.561   8.659 -0.1571 -0.3799  0.4687
   61SAPC  H19R 4790   1.231   0.464   8.616  1.5591 -0.1022  1.0283
   61SAPC  H19S 4791   1.286   0.631   8.667 -0.0169 -0.5301  0.2732
   61SAPC  C220 4792   1.095   0.624   8.559  0.1124  0.0953  0.4058
   61SAPC  H20R 4793   0.993   0.579   8.561 -0.2153  0.8151  0.1994
   61SAPC  H20S 4794   1.127   0.645   8.454 -0.6854 -0.3045  0.0747
   61SAPC  H20T 4795   1.070   0.723   8.604 -0.0308  1.2673 -2.1619
   61SAPC   C33 4796   1.820   1.282  10.034  0.2666 -0.8214 -0.0952
   61SAPC   H3X 4797   1.907   1.221  10.064 -2.4457 -4.9563 -0.2644
   61SAPC   H3Y 4798   1.849   1.373  10.091  1.4375 -0.3025 -1.4794
   61SAPC   C34 4799   1.839   1.305   9.886 -0.2670 -0.2257  0.3014
   61SAPC   H4X 4800   1.846   1.203   9.842 -0.5270 -0.6399  1.2225
   61SAPC   H4Y 4801   1.938   1.351   9.867  0.9533 -1.4763  3.2936
   61SAPC   C35 4802   1.726   1.377   9.819  0.0103 -1.0618 -0.3845
   61SAPC   H5X 4803   1.770   1.467   9.771 -0.0646 -1.9380 -2.1575
   61SAPC   H5Y 4804   1.665   1.426   9.898  1.0548  0.6704 -0.6409
   61SAPC   C36 4805   1.640   1.285   9.729 -0.5804 -0.4480 -0.8324
   61SAPC   H6X 4806   1.535   1.320   9.725 -0.8059 -1.2499 -2.9468
   61SAPC   H6Y 4807   1.649   1.182   9.770  2.5168  0.0913 -0.0670
   61SAPC   C37 4808   1.703   1.259   9.587 -0.0944  0.0955 -0.2948
   61SAPC   H7X 4809   1.667   1.162   9.549 -0.6223  0.6752 -1.2898
   61SAPC   H7Y 4810   1.811   1.246   9.607 -0.8199 -4.0896  1.2885
   61SAPC   C38 4811   1.688   1.368   9.481  0.3686  0.1150  0.1720
   61SAPC   H8X 4812   1.728   1.468   9.508 -0.9090  0.8013 -0.4349
   61SAPC   H8Y 4813   1.579   1.382   9.467  0.0905 -0.3619  1.7787
   61SAPC   C39 4814   1.747   1.326   9.346 -0.6115 -0.7393 -0.3021
   61SAPC   H9X 4815   1.702   1.230   9.315 -0.9515 -1.3104  1.9075
   61SAPC   H9Y 4816   1.854   1.297   9.356  0.3201  1.5627 -2.7334
   61SAPC  C310 4817   1.738   1.413   9.223  0.1355  0.1811 -0.5357
   61SAPC  H10X 4818   1.779   1.516   9.236  0.7943 -0.3449  1.7108
   61SAPC  H10Y 4819   1.629   1.427   9.207  0.4688  1.3089 -2.0013
   61SAPC  C311 4820   1.797   1.350   9.099  0.0553  0.2705  0.7897
   61SAPC  H11X 4821   1.791   1.240   9.113 -1.7720  0.2119 -0.2365
   61SAPC  H11Y 4822   1.907   1.367   9.103  0.1689 -0.6686  2.4140
   61SAPC  C312 4823   1.740   1.402   8.963  0.0699 -0.2130 -0.6061
   61SAPC  H12X 4824   1.761   1.510   8.947 -2.8620  0.5089  0.0352
   61SAPC  H12Y 4825   1.630   1.386   8.963  0.0431 -0.0346 -0.8673
   61SAPC  C313 4826   1.786   1.319   8.834 -0.6892  1.1701 -0.6620
   61SAPC  H13X 4827   1.897   1.318   8.846 -0.7936 -1.3371  0.3731
   61SAPC  H13Y 4828   1.763   1.382   8.745  2.5913  0.1039 -2.3654
   61SAPC  C314 4829   1.729   1.176   8.821 -0.0954 -0.6565 -0.1256
   61SAPC  H14X 4830   1.620   1.167   8.840 -0.3082 -0.9471 -1.3905
   61SAPC  H14Y 4831   1.779   1.113   8.897  1.5681 -0.8488 -1.3473
   61SAPC  C315 4832   1.767   1.121   8.680 -0.2992 -0.0507  0.2685
   61SAPC  H15X 4833   1.871   1.159   8.671  0.3205 -1.4436  1.1762
   61SAPC  H15Y 4834   1.719   1.185   8.604  1.7201 -0.7679 -1.6448
   61SAPC  C316 4835   1.767   0.968   8.660 -0.2005  0.3868 -0.0737
   61SAPC  H16X 4836   1.665   0.925   8.672  0.0266 -0.4510 -1.0642
   61SAPC  H16Y 4837   1.835   0.913   8.730  1.1091 -1.8662 -3.0212
   61SAPC  C317 4838   1.796   0.918   8.516  1.5490 -0.3732 -0.1218
   61SAPC  H17X 4839   1.719   0.960   8.447  0.4033 -0.7144  0.9491
   61SAPC  H17Y 4840   1.794   0.807   8.517  0.5311 -0.3713 -0.7644
   61SAPC  C318 4841   1.934   0.952   8.460  0.4799  0.1551  0.3287
   61SAPC  H18X 4842   1.959   0.878   8.381 -0.5373  2.4949 -2.2419
   61SAPC  H18Y 4843   2.011   0.942   8.539  0.0026 -1.0417  0.6618
   61SAPC  H18Z 4844   1.941   1.052   8.414 -0.1901 -0.7070 -1.6910
   62SAPC     N 4845   0.436   0.063  10.741 -0.5326 -0.2632  0.7717
   62SAPC   C12 4846   0.502   0.175  10.662  0.0455  0.3616 -0.2784
   62SAPC  H12A 4847   0.557   0.128  10.582 -1.2861  2.2736 -2.3704
   62SAPC  H12B 4848   0.569   0.233  10.724  2.7965 -2.7707 -0.2194
   62SAPC   C13 4849   0.537  -0.029  10.794  0.3290 -0.6897  0.3526
   62SAPC  H13A 4850   0.493  -0.073  10.882  0.8176  0.2453  1.0691
   62SAPC  H13B 4851   0.566  -0.094  10.713 -0.3494 -0.4296 -0.1021
   62SAPC  H13C 4852   0.632   0.010  10.829 -0.0182 -1.6321  2.4476
   62SAPC   C14 4853   0.379   0.131  10.865  0.3015 -0.5114 -0.4543
   62SAPC  H14A 4854   0.310   0.204  10.826  0.1643 -0.9883 -1.1145
   62SAPC  H14B 4855   0.318   0.076  10.934  0.1050  0.0013 -0.2161
   62SAPC  H14C 4856   0.457   0.186  10.918 -0.6871  0.4292  0.0449
   62SAPC   C15 4857   0.328  -0.014  10.680  0.1535 -0.2258  0.1154
   62SAPC  H15A 4858   0.356  -0.053  10.584 -1.8209 -1.7026  0.1007
   62SAPC  H15B 4859   0.289  -0.099  10.734  0.7473 -0.3575  0.3455
   62SAPC  H15C 4860   0.245   0.054  10.665 -0.0302 -0.3779  0.4282
   62SAPC   C11 4861   0.395   0.271  10.600  0.3612  0.0481 -0.0421
   62SAPC  H11A 4862   0.329   0.213  10.532  0.9260  0.0644 -0.6088
   62SAPC  H11B 4863   0.452   0.337  10.531  0.4586  0.6814  0.6413
   62SAPC     P 4864   0.251   0.486  10.655 -0.1784  0.2478 -0.2062
   62SAPC   O13 4865   0.119   0.490  10.726 -0.0538 -0.2934 -0.5013
   62SAPC   O14 4866   0.351   0.588  10.685  0.2381 -0.0424  0.3211
   62SAPC   O12 4867   0.317   0.346  10.691 -0.5455 -0.2748  0.2636
   62SAPC   O11 4868   0.226   0.477  10.501  0.2931  0.0090 -0.0207
   62SAPC    C1 4869   0.134   0.385  10.442 -0.5039 -0.6300 -0.5086
   62SAPC    HA 4870   0.102   0.311  10.518  0.6706 -0.2041  0.4129
   62SAPC    HB 4871   0.045   0.442  10.408 -0.9476  0.8336  2.9707
   62SAPC    C2 4872   0.194   0.325  10.309 -0.0831 -0.0391  0.2866
   62SAPC    HS 4873   0.282   0.266  10.341 -1.1799 -0.7012  2.1701
   62SAPC   O21 4874   0.234   0.435  10.221 -0.2125 -0.7330  0.0196
   62SAPC   C21 4875   0.347   0.406  10.147 -0.2467  0.2780 -1.0103
   62SAPC   O22 4876   0.433   0.326  10.176  0.4763 -0.1636 -0.3995
   62SAPC   C22 4877   0.339   0.502  10.026 -0.1352  0.3469  0.5990
   62SAPC   H2R 4878   0.229   0.519  10.015 -0.5985 -2.6512  0.2038
   62SAPC   H2S 4879   0.387   0.601  10.040 -3.5584  1.6590  3.7977
   62SAPC    C3 4880   0.106   0.219  10.238  0.3844 -0.6347  0.3352
   62SAPC    HX 4881   0.086   0.140  10.313 -1.3103  0.4393  1.0470
   62SAPC    HY 4882   0.153   0.160  10.157 -0.9896 -0.9461 -0.2375
   62SAPC   O31 4883  -0.012   0.283  10.198 -0.5961 -0.3614 -0.5826
   62SAPC   C31 4884  -0.023   0.319  10.073 -0.5743 -0.3186 -1.0565
   62SAPC   O32 4885   0.056   0.285   9.984 -0.0922 -0.6716  0.0175
   62SAPC   C32 4886  -0.140   0.415  10.049 -0.1013 -1.0513 -0.4857
   62SAPC   H2X 4887  -0.128   0.507  10.110 -1.3982 -0.8114 -0.5847
   62SAPC   H2Y 4888  -0.235   0.367  10.078  0.2734  0.2315  3.0925
   62SAPC   C23 4889   0.390   0.428   9.899 -0.6470  0.1706  0.2905
   62SAPC   H3R 4890   0.327   0.340   9.875  0.0623  0.1759 -1.7342
   62SAPC   H3S 4891   0.492   0.384   9.905  0.0025  1.4216 -1.2736
   62SAPC   C24 4892   0.384   0.518   9.772 -0.0934  0.3454 -0.5365
   62SAPC   H4R 4893   0.444   0.610   9.787 -3.1718  2.2819  0.2421
   62SAPC   H4S 4894   0.276   0.542   9.771 -0.5661 -1.6683 -0.4712
   62SAPC   C25 4895   0.436   0.440   9.653  0.8164 -0.2555 -0.4981
   62SAPC   H5R 4896   0.507   0.361   9.680 -1.7028 -2.0104  1.1535
   62SAPC   C26 4897   0.402   0.471   9.528 -0.1052 -0.6984 -0.1050
   62SAPC   H6R 4898   0.451   0.402   9.458  1.4514  0.1189  0.1437
   62SAPC   C27 4899   0.309   0.569   9.467 -0.4089  0.1048  0.6605
   62SAPC   H7R 4900   0.313   0.670   9.512  4.0838 -0.8952  2.8113
   62SAPC   H7S 4901   0.206   0.533   9.487 -0.1307 -1.9801 -1.3676
   62SAPC   C28 4902   0.337   0.574   9.318  0.2224  0.0601 -0.1948
   62SAPC   H8R 4903   0.440   0.605   9.295  0.1960 -1.0792 -1.9229
   62SAPC   C29 4904   0.258   0.524   9.225 -0.8292  0.4606 -0.2036
   62SAPC   H9R 4905   0.287   0.528   9.119  1.3639 -3.6502  0.1524
   62SAPC  C210 4906   0.125   0.463   9.260 -0.3604  0.1033 -0.2840
   62SAPC  H10R 4907   0.065   0.524   9.331  1.0847  0.8957  0.2799
   62SAPC  H10S 4908   0.140   0.378   9.330  0.7349  0.4099 -0.1318
   62SAPC  C211 4909   0.043   0.431   9.134  0.8422  0.4444 -0.1929
   62SAPC  H11R 4910  -0.043   0.496   9.116 -0.6746 -1.6809 -0.8110
   62SAPC  C212 4911   0.073   0.335   9.048 -0.3121 -0.0953  0.4792
   62SAPC  H12R 4912   0.007   0.332   8.959 -1.9791  1.3414  1.6384
   62SAPC  C213 4913   0.182   0.236   9.039  0.0628  1.1824 -0.5085
   62SAPC  H13R 4914   0.238   0.245   9.134 -0.5017 -0.4409 -0.0096
   62SAPC  H13S 4915   0.258   0.275   8.968  1.2486  1.8433  1.1127
   62SAPC  C214 4916   0.133   0.097   9.019  0.4065  0.4565  0.4976
   62SAPC  H14R 4917   0.074   0.058   9.103  0.2111 -1.4514 -0.5059
   62SAPC  C215 4918   0.164   0.012   8.924 -0.4033  0.3215  0.2487
   62SAPC  H15R 4919   0.128  -0.092   8.931  0.3550 -0.1801 -2.8341
   62SAPC  C216 4920   0.251   0.040   8.804  0.3025  0.1612  0.2214
   62SAPC  H16R 4921   0.351  -0.003   8.825  0.0881 -0.9524 -0.9737
   62SAPC  H16S 4922   0.266   0.150   8.799 -0.2638  0.2169 -0.2853
   62SAPC  C217 4923   0.196  -0.004   8.671  0.1108  0.6458  0.1047
   62SAPC  H17R 4924   0.110   0.059   8.639 -0.5147 -0.7377 -0.9731
   62SAPC  H17S 4925   0.164  -0.110   8.686 -0.7466  1.2209  2.6834
   62SAPC  C218 4926   0.305  -0.015   8.560  0.1327 -0.9329 -0.2210
   62SAPC  H18R 4927   0.373  -0.094   8.598  0.3045 -1.5908 -1.8537
   62SAPC  H18S 4928   0.351   0.086   8.565 -2.2100  0.1052  1.1353
   62SAPC  C219 4929   0.255  -0.046   8.413  0.0444 -0.1600 -0.5560
   62SAPC  H19R 4930   0.197   0.043   8.383  1.2101  0.3147 -1.4255
   62SAPC  H19S 4931   0.189  -0.135   8.401  0.3066 -0.3945 -0.2969
   62SAPC  C220 4932   0.375  -0.060   8.319  0.7209  0.2264 -0.4916
   62SAPC  H20R 4933   0.428   0.037   8.315 -0.0460  0.7915  1.9944
   62SAPC  H20S 4934   0.333  -0.086   8.220 -2.0513  1.2917  0.3538
   62SAPC  H20T 4935   0.452  -0.135   8.348 -0.8683 -0.6114  1.7471
   62SAPC   C33 4936  -0.166   0.463   9.903  0.3934  0.1192 -0.7480
   62SAPC   H3X 4937  -0.070   0.477   9.849 -0.6204 -0.4428 -2.7477
   62SAPC   H3Y 4938  -0.226   0.557   9.905 -0.2447 -0.2971  2.3444
   62SAPC   C34 4939  -0.247   0.372   9.818 -0.9794 -0.8035  0.4710
   62SAPC   H4X 4940  -0.343   0.350   9.870 -0.3804 -2.4486  0.8897
   62SAPC   H4Y 4941  -0.185   0.281   9.810  1.4905  0.9910 -1.6637
   62SAPC   C35 4942  -0.277   0.433   9.683 -0.1618  0.5629 -0.3917
   62SAPC   H5X 4943  -0.304   0.353   9.611  1.7260  1.4418 -2.1346
   62SAPC   H5Y 4944  -0.181   0.479   9.648 -0.0782 -0.5508 -1.6472
   62SAPC   C36 4945  -0.400   0.535   9.684  0.1341  0.0123  0.3636
   62SAPC   H6X 4946  -0.366   0.630   9.732  0.7060 -0.4215  0.8201
   62SAPC   H6Y 4947  -0.473   0.486   9.752  0.9378 -2.0578 -0.2496
   62SAPC   C37 4948  -0.465   0.554   9.551 -0.0528 -0.4008  0.0078
   62SAPC   H7X 4949  -0.562   0.607   9.562  0.4640  0.2951  1.3010
   62SAPC   H7Y 4950  -0.499   0.455   9.515 -2.1092 -0.5487  2.2153
   62SAPC   C38 4951  -0.377   0.628   9.443 -0.1065  0.1293  0.1191
   62SAPC   H8X 4952  -0.278   0.578   9.458  0.0134  0.0599 -0.9215
   62SAPC   H8Y 4953  -0.369   0.734   9.475 -0.4584  0.1113  0.2636
   62SAPC   C39 4954  -0.409   0.620   9.296 -0.3372 -0.0641  0.4535
   62SAPC   H9X 4955  -0.475   0.703   9.262 -1.9527 -0.8536  1.5811
   62SAPC   H9Y 4956  -0.469   0.529   9.271  2.1965 -1.8988  0.8044
   62SAPC  C310 4957  -0.281   0.631   9.220 -0.6932 -0.0841  0.5191
   62SAPC  H10X 4958  -0.207   0.550   9.241  1.2847  1.0410 -1.8520
   62SAPC  H10Y 4959  -0.227   0.724   9.246 -2.0553  1.0345 -0.6181
   62SAPC  C311 4960  -0.302   0.639   9.068 -0.0456 -0.7224 -0.3329
   62SAPC  H11X 4961  -0.390   0.704   9.048  0.4538  0.8323  2.2350
   62SAPC  H11Y 4962  -0.322   0.536   9.032  0.5077 -1.0843  0.3684
   62SAPC  C312 4963  -0.193   0.714   8.995 -0.1973  0.5040  0.0776
   62SAPC  H12X 4964  -0.093   0.672   9.024 -0.0446  0.9765  0.2308
   62SAPC  H12Y 4965  -0.193   0.822   9.020 -0.4050  0.7524 -0.9488
   62SAPC  C313 4966  -0.212   0.715   8.844 -0.5464  0.1828  0.2768
   62SAPC  H13X 4967  -0.314   0.716   8.800 -0.3120 -2.5493 -0.4058
   62SAPC  H13Y 4968  -0.164   0.619   8.816 -0.7492  0.1461  0.0581
   62SAPC  C314 4969  -0.139   0.827   8.773 -0.2563 -0.6025  0.2649
   62SAPC  H14X 4970  -0.032   0.837   8.801  0.0167 -0.2250 -0.8732
   62SAPC  H14Y 4971  -0.199   0.917   8.797  0.9402  0.4462 -0.6141
   62SAPC  C315 4972  -0.149   0.810   8.618 -0.1525 -0.2035 -0.0951
   62SAPC  H15X 4973  -0.251   0.790   8.579 -0.6899  0.7296  0.8163
   62SAPC  H15Y 4974  -0.085   0.724   8.591  1.1442  0.9990 -0.8933
   62SAPC  C316 4975  -0.098   0.930   8.538 -0.2170  0.0773 -0.1393
   62SAPC  H16X 4976   0.005   0.953   8.574 -0.2029 -1.0420  0.5355
   62SAPC  H16Y 4977  -0.160   1.020   8.560 -1.5006 -0.4213 -1.6268
   62SAPC  C317 4978  -0.107   0.904   8.391  1.1939 -0.5573 -0.3252
   62SAPC  H17X 4979  -0.213   0.880   8.368  0.3045  2.2290  0.6139
   62SAPC  H17Y 4980  -0.027   0.835   8.357  0.2183 -2.0888  0.4585
   62SAPC  C318 4981  -0.088   1.025   8.305  0.4898  0.0844  0.2343
   62SAPC  H18X 4982  -0.100   1.005   8.196  1.1208  1.9326 -0.1990
   62SAPC  H18Y 4983   0.016   1.059   8.320  0.2670  0.5972  0.6085
   62SAPC  H18Z 4984  -0.156   1.111   8.326  0.1466 -0.1743  0.1927
   63SAPC     N 4985   3.700   6.620   6.312 -0.8188  0.7287 -1.2118
   63SAPC   C12 4986   3.768   6.719   6.413 -0.4803 -0.2035 -0.4494
   63SAPC  H12A 4987   3.692   6.768   6.473 -2.3885  0.7478 -3.4973
   63SAPC  H12B 4988   3.795   6.807   6.357  0.4419 -0.2300 -0.0443
   63SAPC   C13 4989   3.597   6.684   6.235  0.3230  0.4163  0.0184
   63SAPC  H13A 4990   3.503   6.698   6.288 -0.1166 -1.7344 -0.1566
   63SAPC  H13B 4991   3.631   6.782   6.204  0.1105  1.0659  1.8126
   63SAPC  H13C 4992   3.571   6.608   6.163 -2.8182  0.7520  0.7136
   63SAPC   C14 4993   3.803   6.557   6.220 -0.2693 -0.3532 -0.6443
   63SAPC  H14A 4994   3.811   6.623   6.136 -0.6522 -2.0312 -2.0348
   63SAPC  H14B 4995   3.894   6.538   6.276 -0.2626 -0.7022 -0.7688
   63SAPC  H14C 4996   3.773   6.458   6.188  0.5643 -0.8393  0.0365
   63SAPC   C15 4997   3.635   6.509   6.393 -0.1198 -0.0344  0.1217
   63SAPC  H15A 4998   3.708   6.456   6.452 -1.0101 -1.5272 -0.0762
   63SAPC  H15B 4999   3.557   6.546   6.457 -0.6436 -1.0712  0.1029
   63SAPC  H15C 5000   3.590   6.440   6.322 -0.6609  0.9146 -0.4662
   63SAPC   C11 5001   3.887   6.676   6.494 -0.2559 -0.0516 -0.2236
   63SAPC  H11A 5002   3.858   6.602   6.572  1.1430 -1.3609 -0.9295
   63SAPC  H11B 5003   3.925   6.763   6.551  0.3231 -1.4335  1.5501
   63SAPC     P 5004   4.109   6.549   6.468  0.2513 -0.1336 -0.3092
   63SAPC   O13 5005   4.044   6.421   6.487  0.3323  0.1609  0.1359
   63SAPC   O14 5006   4.216   6.558   6.368 -0.7590 -0.6540 -0.4250
   63SAPC   O12 5007   3.996   6.640   6.413  0.7016  0.1725  0.1215
   63SAPC   O11 5008   4.156   6.606   6.612 -0.2645  0.0101 -0.5019
   63SAPC    C1 5009   4.283   6.659   6.636 -0.3659  0.1876  0.1359
   63SAPC    HA 5010   4.318   6.724   6.553  1.9046  0.1142  0.9936
   63SAPC    HB 5011   4.274   6.723   6.726  0.6046  1.5084 -0.6828
   63SAPC    C2 5012   4.397   6.566   6.674  0.7692 -0.4171  1.2697
   63SAPC    HS 5013   4.407   6.492   6.592  1.3469 -0.7056  1.5869
   63SAPC   O21 5014   4.359   6.491   6.792  0.1631  0.0732  0.1800
   63SAPC   C21 5015   4.398   6.365   6.799  0.3432  0.6898  0.1718
   63SAPC   O22 5016   4.432   6.300   6.700 -0.0813  0.2024  0.4221
   63SAPC   C22 5017   4.379   6.308   6.936 -0.3766  0.1198 -0.0212
   63SAPC   H2R 5018   4.306   6.372   6.991 -1.9042 -0.5634 -1.2097
   63SAPC   H2S 5019   4.339   6.206   6.918 -1.6938  0.6281 -0.0456
   63SAPC    C3 5020   4.534   6.636   6.698  0.1691  0.1927  0.1555
   63SAPC    HX 5021   4.530   6.706   6.784 -0.2309 -0.7578  0.9326
   63SAPC    HY 5022   4.550   6.697   6.607  3.1511  1.6749  1.6219
   63SAPC   O31 5023   4.646   6.541   6.727 -0.1262 -0.0655  0.0434
   63SAPC   C31 5024   4.767   6.574   6.678 -0.3241 -0.5231  0.7329
   63SAPC   O32 5025   4.786   6.662   6.596  0.1457  0.5158 -0.1654
   63SAPC   C32 5026   4.869   6.477   6.733  0.6796  0.0059  0.2071
   63SAPC   H2X 5027   4.906   6.419   6.646 -2.1241  0.3016 -1.2602
   63SAPC   H2Y 5028   4.831   6.400   6.802  1.6276  0.0745  0.8042
   63SAPC   C23 5029   4.512   6.294   7.020 -0.4167 -0.5583 -0.0508
   63SAPC   H3R 5030   4.590   6.241   6.959 -0.7619  0.2134 -1.1839
   63SAPC   H3S 5031   4.481   6.238   7.111  0.6720 -2.5824 -0.8723
   63SAPC   C24 5032   4.574   6.430   7.064 -0.6931 -0.3481  0.4034
   63SAPC   H4R 5033   4.497   6.500   7.105 -1.1594 -0.2671 -0.6063
   63SAPC   H4S 5034   4.618   6.475   6.973 -1.1564  0.5862  0.6359
   63SAPC   C25 5035   4.682   6.400   7.170  0.5841  0.2911 -0.4667
   63SAPC   H5R 5036   4.759   6.328   7.139  2.4948  1.7498  0.6704
   63SAPC   C26 5037   4.682   6.455   7.294  0.1264  0.3351 -1.1715
   63SAPC   H6R 5038   4.761   6.436   7.368 -1.3670  1.5417  0.7819
   63SAPC   C27 5039   4.578   6.559   7.339  0.1140 -0.4467  0.1411
   63SAPC   H7R 5040   4.479   6.551   7.289  0.2574 -0.8787 -0.0777
   63SAPC   H7S 5041   4.624   6.656   7.308 -1.8062  0.4855  0.1641
   63SAPC   C28 5042   4.534   6.538   7.485 -0.5497  0.8082 -0.1279
   63SAPC   H8R 5043   4.458   6.458   7.491 -0.4610  0.7469  0.1847
   63SAPC   C29 5044   4.572   6.593   7.604 -0.4804  0.2312  0.1958
   63SAPC   H9R 5045   4.527   6.565   7.700  2.2828 -2.4875  0.7814
   63SAPC  C210 5046   4.682   6.696   7.616 -0.4190 -0.1356  0.0450
   63SAPC  H10R 5047   4.730   6.730   7.522  0.5079  2.4300  1.4313
   63SAPC  H10S 5048   4.770   6.645   7.661  0.6250 -2.1563 -4.0069
   63SAPC  C211 5049   4.631   6.817   7.686  0.3102 -0.2164  0.9520
   63SAPC  H11R 5050   4.584   6.889   7.617 -2.0675 -1.3560  1.3386
   63SAPC  C212 5051   4.613   6.825   7.822 -0.0525  0.3038 -0.5382
   63SAPC  H12R 5052   4.568   6.914   7.868 -0.0913 -1.4405  2.9792
   63SAPC  C213 5053   4.649   6.714   7.922  0.5732 -0.0831  0.1555
   63SAPC  H13R 5054   4.615   6.616   7.882  0.0999 -0.0040  0.3570
   63SAPC  H13S 5055   4.580   6.732   8.008  1.2529 -1.3847  0.9791
   63SAPC  C214 5056   4.795   6.709   7.969  0.0091  0.5490 -0.4850
   63SAPC  H14R 5057   4.872   6.720   7.891  0.9666  2.3070  0.6870
   63SAPC  C215 5058   4.839   6.723   8.097  0.1020  0.1792 -0.1165
   63SAPC  H15R 5059   4.947   6.726   8.119 -0.0005  0.0590  0.4050
   63SAPC  C216 5060   4.756   6.735   8.217  0.1460 -0.0628 -0.2792
   63SAPC  H16R 5061   4.806   6.686   8.303  0.9087 -2.1071 -1.8723
   63SAPC  H16S 5062   4.668   6.667   8.217 -1.1879  1.6049  0.8943
   63SAPC  C217 5063   4.716   6.887   8.247 -0.5145  0.1800  0.3025
   63SAPC  H17R 5064   4.654   6.920   8.161  2.9258  3.3721 -1.0762
   63SAPC  H17S 5065   4.805   6.951   8.261  1.7032 -2.3930 -1.4796
   63SAPC  C218 5066   4.632   6.898   8.376 -0.4622 -0.0737 -0.2043
   63SAPC  H18R 5067   4.709   6.888   8.456 -0.0298 -2.7214 -0.9187
   63SAPC  H18S 5068   4.566   6.810   8.363 -0.9502  0.8390 -4.4368
   63SAPC  C219 5069   4.528   7.011   8.383 -0.1417 -0.4944 -0.2825
   63SAPC  H19R 5070   4.473   7.015   8.286  2.9735  1.6289 -2.0537
   63SAPC  H19S 5071   4.575   7.110   8.400 -0.7276 -0.1093 -0.8939
   63SAPC  C220 5072   4.428   6.987   8.493 -0.1306 -0.3823 -0.3808
   63SAPC  H20R 5073   4.387   6.884   8.477 -2.9839  0.3264  1.8537
   63SAPC  H20S 5074   4.344   7.059   8.487 -1.6924 -2.0616  0.5850
   63SAPC  H20T 5075   4.478   7.001   8.591 -1.5292  3.4372 -0.1174
   63SAPC   C33 5076   4.993   6.553   6.787  0.1501  0.2713 -0.2247
   63SAPC   H3X 5077   5.022   6.623   6.706 -2.1643 -0.3028 -1.6012
   63SAPC   H3Y 5078   5.077   6.480   6.793 -1.4957 -1.5410  1.4311
   63SAPC   C34 5079   4.979   6.630   6.922  0.2203  0.0307  0.4408
   63SAPC   H4X 5080   4.872   6.656   6.934  0.2791  0.4409  0.1227
   63SAPC   H4Y 5081   5.044   6.719   6.912  1.6985 -1.1065 -0.3339
   63SAPC   C35 5082   5.018   6.552   7.045 -0.1218  0.0748  0.0425
   63SAPC   H5X 5083   5.125   6.532   7.022 -0.4803  0.3758 -1.9373
   63SAPC   H5Y 5084   4.979   6.448   7.051  0.2192 -0.1435 -1.2534
   63SAPC   C36 5085   4.999   6.619   7.183  0.2198  0.6123  0.6593
   63SAPC   H6X 5086   4.891   6.622   7.206  0.3153 -0.9591  1.3864
   63SAPC   H6Y 5087   5.029   6.725   7.165  1.8214  0.6850  3.4945
   63SAPC   C37 5088   5.102   6.565   7.291 -0.6439 -0.4501  0.0280
   63SAPC   H7X 5089   5.204   6.545   7.251 -0.3733  0.6537  0.1533
   63SAPC   H7Y 5090   5.062   6.462   7.309 -0.2920 -0.5377  0.3226
   63SAPC   C38 5091   5.110   6.650   7.416 -0.0330 -0.2137  0.5118
   63SAPC   H8X 5092   5.002   6.670   7.434  0.4065  2.2725  0.5276
   63SAPC   H8Y 5093   5.148   6.754   7.405 -0.9838  0.3144  1.9698
   63SAPC   C39 5094   5.165   6.579   7.535  0.9663 -0.6419  0.8298
   63SAPC   H9X 5095   5.275   6.590   7.541  0.9175  0.2385  0.1712
   63SAPC   H9Y 5096   5.130   6.474   7.532  0.4134 -0.4438  0.3356
   63SAPC  C310 5097   5.102   6.627   7.667 -0.6964  0.4627  0.0580
   63SAPC  H10X 5098   5.143   6.565   7.750 -0.9148 -0.0231 -0.1967
   63SAPC  H10Y 5099   4.991   6.615   7.671 -0.6113 -0.7891 -1.1548
   63SAPC  C311 5100   5.143   6.769   7.707  0.0841  0.0907 -0.6321
   63SAPC  H11X 5101   5.075   6.788   7.792  1.4158  0.0755  0.4536
   63SAPC  H11Y 5102   5.107   6.839   7.629 -0.9289 -0.6009 -0.8053
   63SAPC  C312 5103   5.288   6.795   7.741 -0.2084 -1.1247 -0.3477
   63SAPC  H12X 5104   5.340   6.823   7.647  0.7579  2.6939  1.1932
   63SAPC  H12Y 5105   5.340   6.700   7.765 -0.5049 -1.0064  0.8146
   63SAPC  C313 5106   5.301   6.904   7.853  0.0034 -0.3441  0.3930
   63SAPC  H13X 5107   5.270   6.865   7.952  2.0316 -0.0687  1.1605
   63SAPC  H13Y 5108   5.244   6.995   7.828  0.7970 -0.8158 -3.4223
   63SAPC  C314 5109   5.447   6.943   7.866 -0.3352 -0.4030 -0.1333
   63SAPC  H14X 5110   5.490   6.958   7.765  0.5584 -1.1820  0.1277
   63SAPC  H14Y 5111   5.507   6.863   7.915  0.8627 -0.4662 -1.6651
   63SAPC  C315 5112   5.467   7.077   7.947  0.1706  0.2692  0.7630
   63SAPC  H15X 5113   5.421   7.077   8.048 -1.4968  0.9061  0.0060
   63SAPC  H15Y 5114   5.436   7.164   7.885  0.6691 -0.5379 -0.6437
   63SAPC  C316 5115   5.622   7.108   7.954 -0.0495  0.7355 -0.4504
   63SAPC  H16X 5116   5.673   7.108   7.855 -0.6070  1.2208 -0.7419
   63SAPC  H16Y 5117   5.666   7.028   8.017  1.3679  0.9160 -1.1733
   63SAPC  C317 5118   5.644   7.240   8.032 -0.1003  0.0549  0.1687
   63SAPC  H17X 5119   5.587   7.240   8.127  2.6468  0.2184  1.8786
   63SAPC  H17Y 5120   5.602   7.313   7.960 -0.1335  0.7712  0.9011
   63SAPC  C318 5121   5.794   7.277   8.053  0.1426 -0.1799  0.2937
   63SAPC  H18X 5122   5.849   7.291   7.958  1.5315 -4.0516  0.4441
   63SAPC  H18Y 5123   5.840   7.193   8.109  0.0007  0.9749  2.1848
   63SAPC  H18Z 5124   5.808   7.368   8.115  0.5789  0.9211 -1.3867
   64SAPC     N 5125   6.555   6.016   5.961 -0.2141  0.0478  0.9496
   64SAPC   C12 5126   6.706   5.984   5.949 -0.5556 -0.1324  0.0183
   64SAPC  H12A 5127   6.716   5.877   5.935  0.3259  0.2190 -2.2530
   64SAPC  H12B 5128   6.744   6.008   6.047 -2.7684 -0.1372  0.9066
   64SAPC   C13 5129   6.495   5.913   6.058  0.2017  0.4838 -0.3724
   64SAPC  H13A 5130   6.507   5.812   6.021  0.6810  0.9125 -1.3793
   64SAPC  H13B 5131   6.560   5.913   6.145  1.0972  0.1008 -1.0368
   64SAPC  H13C 5132   6.391   5.935   6.077  0.1452  1.1944 -1.4946
   64SAPC   C14 5133   6.522   6.153   6.017  0.0808 -0.3388 -0.5694
   64SAPC  H14A 5134   6.570   6.230   5.959  1.3291  0.3128  1.2525
   64SAPC  H14B 5135   6.416   6.173   6.010  0.1669  0.6137  0.6950
   64SAPC  H14C 5136   6.548   6.163   6.122  3.4387  0.0390 -1.4118
   64SAPC   C15 5137   6.476   6.008   5.829 -0.4301  0.1240 -0.1403
   64SAPC  H15A 5138   6.485   5.906   5.792  1.0194 -0.1844  1.0153
   64SAPC  H15B 5139   6.374   6.036   5.851 -0.4391  0.5908 -0.7432
   64SAPC  H15C 5140   6.514   6.078   5.756 -2.2987  0.6593 -0.6283
   64SAPC   C11 5141   6.789   6.041   5.836 -0.6885  0.3766 -0.0549
   64SAPC  H11A 5142   6.746   6.025   5.735 -0.8034  1.7564 -0.2384
   64SAPC  H11B 5143   6.879   5.976   5.837 -0.5669  0.4103 -3.6253
   64SAPC     P 5144   6.939   6.240   5.903  0.1984 -0.7693 -0.6026
   64SAPC   O13 5145   7.019   6.250   5.779 -0.0072 -0.4865  0.1662
   64SAPC   O14 5146   6.897   6.360   5.981 -0.8420 -0.7138  0.1901
   64SAPC   O12 5147   6.801   6.178   5.860 -0.0244 -0.2108  0.4997
   64SAPC   O11 5148   7.013   6.140   5.999  0.0200 -0.3992 -0.3430
   64SAPC    C1 5149   6.957   6.117   6.124  0.1893  0.2885  0.0987
   64SAPC    HA 5150   6.860   6.166   6.144 -0.2190  0.2387 -1.6846
   64SAPC    HB 5151   6.932   6.010   6.145 -2.2867  1.0147  1.0133
   64SAPC    C2 5152   7.057   6.174   6.228 -0.2817 -0.2743  0.4226
   64SAPC    HS 5153   7.063   6.282   6.205 -2.4366 -0.1536  0.3751
   64SAPC   O21 5154   7.182   6.112   6.199 -0.1671 -0.0045  0.4281
   64SAPC   C21 5155   7.283   6.184   6.239  0.2416  0.2433  0.5163
   64SAPC   O22 5156   7.273   6.300   6.277 -0.3121  0.0649  0.2828
   64SAPC   C22 5157   7.403   6.090   6.212 -1.0540  0.2163 -0.4388
   64SAPC   H2R 5158   7.381   6.009   6.285  0.7087 -0.9407 -1.1651
   64SAPC   H2S 5159   7.392   6.056   6.107  4.1197 -1.0756 -0.6851
   64SAPC    C3 5160   7.003   6.150   6.383 -0.9548 -0.5113  0.2850
   64SAPC    HX 5161   7.087   6.177   6.451 -0.1654 -2.1603 -0.0311
   64SAPC    HY 5162   6.982   6.041   6.378 -2.8607 -0.2038  1.1809
   64SAPC   O31 5163   6.883   6.224   6.404 -0.5275  0.2425 -0.0571
   64SAPC   C31 5164   6.906   6.346   6.453  0.0496  0.8263  0.2760
   64SAPC   O32 5165   7.013   6.396   6.481 -0.3182  0.2276 -0.6383
   64SAPC   C32 5166   6.777   6.422   6.455 -0.6046  0.2643 -0.3826
   64SAPC   H2X 5167   6.698   6.376   6.519 -1.2497  0.5569 -0.9627
   64SAPC   H2Y 5168   6.747   6.422   6.348  2.7562 -2.2808 -1.4020
   64SAPC   C23 5169   7.545   6.152   6.239  0.0970 -0.0400 -0.0233
   64SAPC   H3R 5170   7.565   6.242   6.177  0.7830 -0.2345 -0.0932
   64SAPC   H3S 5171   7.621   6.074   6.214  1.3188  1.3659 -0.7830
   64SAPC   C24 5172   7.570   6.204   6.377 -0.1659  0.0474 -0.5019
   64SAPC   H4R 5173   7.513   6.296   6.401 -0.1360 -0.2742  0.8342
   64SAPC   H4S 5174   7.671   6.249   6.375  1.0586 -2.6226 -1.6295
   64SAPC   C25 5175   7.580   6.094   6.481 -0.6420 -0.4576 -0.5264
   64SAPC   H5R 5176   7.634   6.005   6.444  0.5722 -0.6894  1.7091
   64SAPC   C26 5177   7.514   6.095   6.593  0.4587  0.4860  0.6650
   64SAPC   H6R 5178   7.528   6.006   6.656  0.7211  0.8358  1.1036
   64SAPC   C27 5179   7.426   6.198   6.667 -0.2803  0.2993 -0.2411
   64SAPC   H7R 5180   7.443   6.300   6.627  0.5257 -0.0099 -0.7069
   64SAPC   H7S 5181   7.447   6.203   6.776 -1.4954 -1.7066  0.0938
   64SAPC   C28 5182   7.285   6.158   6.645 -0.3294  0.2168 -0.4143
   64SAPC   H8R 5183   7.262   6.132   6.540 -0.5782 -2.4850  0.2551
   64SAPC   C29 5184   7.187   6.142   6.732 -0.1479  0.2912  0.3758
   64SAPC   H9R 5185   7.085   6.129   6.691  0.4045  2.2196 -1.6895
   64SAPC  C210 5186   7.193   6.169   6.881 -0.4681  0.1688 -0.2378
   64SAPC  H10R 5187   7.087   6.189   6.908 -0.4328 -0.4824  0.4353
   64SAPC  H10S 5188   7.253   6.259   6.904 -1.2886  0.8523 -0.7804
   64SAPC  C211 5189   7.258   6.066   6.972  0.4111 -0.5034  0.3291
   64SAPC  H11R 5190   7.366   6.060   6.950  0.0224 -1.6885 -1.3640
   64SAPC  C212 5191   7.205   5.991   7.065 -0.5493 -0.4332 -0.6138
   64SAPC  H12R 5192   7.270   5.913   7.107 -1.2140 -2.1846 -2.7259
   64SAPC  C213 5193   7.060   6.010   7.114  0.5259 -0.3255 -0.3694
   64SAPC  H13R 5194   7.018   5.908   7.127 -0.7521  0.4081  1.4018
   64SAPC  H13S 5195   6.988   6.065   7.050  1.0279 -1.3730 -1.8843
   64SAPC  C214 5196   7.074   6.088   7.240  0.3841  0.2427 -0.7570
   64SAPC  H14R 5197   7.064   6.198   7.235 -1.7632  0.1505  1.0122
   64SAPC  C215 5198   7.085   6.038   7.364 -0.0538 -0.7895 -0.0185
   64SAPC  H15R 5199   7.101   6.107   7.449 -1.1108 -2.5864  1.6909
   64SAPC  C216 5200   7.094   5.899   7.425 -0.1884 -0.3976 -0.0102
   64SAPC  H16R 5201   7.197   5.885   7.464 -0.5313 -1.6568  0.4615
   64SAPC  H16S 5202   7.080   5.823   7.346 -2.4103 -0.4351  0.3981
   64SAPC  C217 5203   6.991   5.856   7.535  0.3667 -0.4561 -0.7756
   64SAPC  H17R 5204   7.008   5.749   7.557  0.8779 -0.1295  0.4932
   64SAPC  H17S 5205   6.885   5.864   7.502  0.0619 -2.0378 -0.2130
   64SAPC  C218 5206   7.010   5.926   7.663 -0.6942 -0.1424 -0.3166
   64SAPC  H18R 5207   6.986   6.034   7.651 -2.5428 -0.5262 -0.3212
   64SAPC  H18S 5208   7.117   5.926   7.693 -1.5515  0.4241  2.9187
   64SAPC  C219 5209   6.918   5.888   7.782 -0.4271 -0.1282 -0.3402
   64SAPC  H19R 5210   6.949   5.791   7.826 -1.1922 -0.5042 -0.6117
   64SAPC  H19S 5211   6.818   5.861   7.740 -1.5317  1.2811  1.3166
   64SAPC  C220 5212   6.914   5.990   7.899  0.2686  0.4465 -0.2012
   64SAPC  H20R 5213   6.898   6.090   7.854  0.5714  0.5391 -0.1028
   64SAPC  H20S 5214   7.018   5.995   7.938  0.4288 -1.9727 -0.2048
   64SAPC  H20T 5215   6.838   5.963   7.976  0.8067 -0.3136  0.0764
   64SAPC   C33 5216   6.796   6.557   6.515  0.4338  0.1649 -0.2414
   64SAPC   H3X 5217   6.835   6.633   6.445 -0.5006 -0.1558 -1.1164
   64SAPC   H3Y 5218   6.868   6.550   6.600 -0.5269 -2.3634  0.4297
   64SAPC   C34 5219   6.660   6.616   6.573  0.1291 -0.0383 -0.5614
   64SAPC   H4X 5220   6.619   6.537   6.640  0.0742 -0.8059 -1.4846
   64SAPC   H4Y 5221   6.580   6.642   6.501  1.3572  2.3792 -1.1085
   64SAPC   C35 5222   6.688   6.752   6.636 -0.0763 -0.0257  0.0396
   64SAPC   H5X 5223   6.592   6.801   6.666  0.2718  0.9031 -0.3401
   64SAPC   H5Y 5224   6.746   6.820   6.570 -2.0585  1.1106 -0.5678
   64SAPC   C36 5225   6.762   6.743   6.775 -0.3337 -0.2559  1.7170
   64SAPC   H6X 5226   6.867   6.710   6.758 -0.3652  0.7962 -0.5960
   64SAPC   H6Y 5227   6.700   6.664   6.824 -4.0436  0.5163 -1.4294
   64SAPC   C37 5228   6.768   6.866   6.864  0.1896  0.2183 -0.1105
   64SAPC   H7X 5229   6.662   6.895   6.879 -0.0116 -1.9390  2.9951
   64SAPC   H7Y 5230   6.822   6.949   6.814  0.8985  0.7441  1.5073
   64SAPC   C38 5231   6.828   6.820   7.001 -0.7946 -0.4108 -0.7751
   64SAPC   H8X 5232   6.938   6.833   7.003 -1.1206  2.6225  2.4961
   64SAPC   H8Y 5233   6.785   6.721   7.029  0.2270 -0.4270  0.7800
   64SAPC   C39 5234   6.789   6.917   7.110  0.5264 -1.0304  0.6452
   64SAPC   H9X 5235   6.678   6.930   7.116  0.7958  0.0551  3.9961
   64SAPC   H9Y 5236   6.845   7.009   7.084 -0.9206 -0.2906  0.0720
   64SAPC  C310 5237   6.827   6.872   7.249 -0.0920 -1.0522 -0.2767
   64SAPC  H10X 5238   6.937   6.860   7.246  0.2446  1.8145 -1.7279
   64SAPC  H10Y 5239   6.788   6.774   7.284 -1.4710 -0.3598  0.1603
   64SAPC  C311 5240   6.803   6.985   7.359  0.1864  1.0151  0.4466
   64SAPC  H11X 5241   6.694   6.994   7.377  0.0091 -3.4358  2.0485
   64SAPC  H11Y 5242   6.847   7.082   7.327 -0.0431  1.0064  0.1051
   64SAPC  C312 5243   6.852   6.940   7.496 -0.5670  0.5367 -0.8872
   64SAPC  H12X 5244   6.863   7.018   7.574  1.5363 -0.5351 -0.0646
   64SAPC  H12Y 5245   6.961   6.920   7.487 -0.8215 -2.2981  1.5898
   64SAPC  C313 5246   6.778   6.815   7.548 -0.0568 -0.9351 -0.3279
   64SAPC  H13X 5247   6.797   6.716   7.501 -2.4020 -1.3348 -0.5082
   64SAPC  H13Y 5248   6.674   6.853   7.535  0.1972 -0.5969 -1.4251
   64SAPC  C314 5249   6.812   6.805   7.698  0.3313 -0.0951  0.2735
   64SAPC  H14X 5250   6.917   6.826   7.726  0.7883 -1.0610 -0.6469
   64SAPC  H14Y 5251   6.787   6.699   7.720  1.3554 -0.5529 -0.6917
   64SAPC  C315 5252   6.720   6.904   7.769  0.0061 -0.0565  0.4278
   64SAPC  H15X 5253   6.611   6.886   7.760  0.1687 -1.5853  1.3863
   64SAPC  H15Y 5254   6.752   7.008   7.743 -0.9037  0.3867  1.0310
   64SAPC  C316 5255   6.752   6.899   7.923 -0.0632 -0.0245  0.1554
   64SAPC  H16X 5256   6.711   6.993   7.966  1.6391  1.5721 -1.6007
   64SAPC  H16Y 5257   6.862   6.900   7.936 -0.3967  1.1473  3.3288
   64SAPC  C317 5258   6.704   6.767   7.989 -0.5070 -0.7310 -0.0114
   64SAPC  H17X 5259   6.740   6.674   7.938 -1.6585 -1.3722  0.3271
   64SAPC  H17Y 5260   6.593   6.773   7.984 -0.4139  1.1130 -0.2714
   64SAPC  C318 5261   6.744   6.760   8.133  0.3252  0.3189 -0.6684
   64SAPC  H18X 5262   6.711   6.663   8.177  0.7166 -0.5616 -2.2845
   64SAPC  H18Y 5263   6.688   6.842   8.183  1.3090  0.4736  0.2019
   64SAPC  H18Z 5264   6.854   6.768   8.148  0.1483  0.6216  0.5507
   65SAPC     N 5265   0.261   0.953   5.798 -0.2970 -0.1341  0.9414
   65SAPC   C12 5266   0.183   0.908   5.923 -0.3245 -0.3800  0.5415
   65SAPC  H12A 5267   0.222   0.954   6.013 -1.8381 -0.9499  1.5071
   65SAPC  H12B 5268   0.214   0.806   5.936 -0.2031 -0.4270 -0.0912
   65SAPC   C13 5269   0.184   0.918   5.674 -0.1517 -0.0559 -0.8906
   65SAPC  H13A 5270   0.240   0.960   5.591 -2.3756  0.2995 -2.2325
   65SAPC  H13B 5271   0.178   0.810   5.663 -0.5969  0.1216 -2.4677
   65SAPC  H13C 5272   0.085   0.959   5.682  0.1859  0.4929  0.6965
   65SAPC   C14 5273   0.281   1.106   5.811 -0.0898 -0.1417  0.4567
   65SAPC  H14A 5274   0.349   1.141   5.735  1.1126 -0.8275  1.2000
   65SAPC  H14B 5275   0.192   1.168   5.813 -0.3031 -0.2634 -2.5141
   65SAPC  H14C 5276   0.325   1.130   5.907  1.0920  3.8494 -0.9824
   65SAPC   C15 5277   0.391   0.885   5.793  0.1357  0.6678  0.3650
   65SAPC  H15A 5278   0.449   0.910   5.881  0.2982 -1.6314  0.9331
   65SAPC  H15B 5279   0.394   0.778   5.782  3.2498  0.8982 -1.7863
   65SAPC  H15C 5280   0.448   0.923   5.709  1.9368 -1.1368  0.7278
   65SAPC   C11 5281   0.029   0.938   5.933  0.6197  0.6333  0.3382
   65SAPC  H11A 5282  -0.022   0.893   6.021  0.3384  2.8540  1.3299
   65SAPC  H11B 5283  -0.014   0.880   5.848 -2.3662  0.1004  2.1422
   65SAPC     P 5284   0.007   1.153   6.061  0.3215 -0.1486  0.3253
   65SAPC   O13 5285   0.142   1.138   6.118  0.0042 -0.2405  1.2389
   65SAPC   O14 5286  -0.051   1.285   6.028 -0.3356  0.2175  0.0621
   65SAPC   O12 5287   0.008   1.078   5.917  0.3499 -0.2621  0.0714
   65SAPC   O11 5288  -0.102   1.076   6.150 -0.4659  0.0757 -0.0996
   65SAPC    C1 5289  -0.067   1.017   6.276  0.1829  0.0380  0.2832
   65SAPC    HA 5290  -0.151   0.945   6.288  0.5104 -0.0802  2.0333
   65SAPC    HB 5291   0.024   0.954   6.265  0.4889  0.6909 -0.9237
   65SAPC    C2 5292  -0.073   1.125   6.390  0.0540  0.8666 -0.1833
   65SAPC    HS 5293   0.021   1.183   6.387 -0.9022  2.3896 -2.4437
   65SAPC   O21 5294  -0.086   1.063   6.521 -0.2543 -0.2663  0.6025
   65SAPC   C21 5295   0.024   0.998   6.550  0.0677 -0.1329 -0.3252
   65SAPC   O22 5296   0.137   1.015   6.503  0.0738  0.4506 -0.2126
   65SAPC   C22 5297   0.004   0.898   6.663 -0.2685 -0.7062  0.3951
   65SAPC   H2R 5298  -0.033   0.955   6.751  0.6494  0.1078  0.2616
   65SAPC   H2S 5299  -0.067   0.818   6.630 -1.9890  0.3790  1.3653
   65SAPC    C3 5300  -0.192   1.220   6.375 -0.6059 -0.0962 -0.8636
   65SAPC    HX 5301  -0.282   1.158   6.355  1.1001 -2.7779 -0.3468
   65SAPC    HY 5302  -0.170   1.284   6.288 -0.6466  2.4870  0.9516
   65SAPC   O31 5303  -0.198   1.301   6.499  0.2733 -0.8359  0.0622
   65SAPC   C31 5304  -0.120   1.409   6.503  0.2362  0.5425 -0.3909
   65SAPC   O32 5305  -0.031   1.429   6.422  0.0517  0.3866 -0.0021
   65SAPC   C32 5306  -0.150   1.492   6.629 -0.0624 -0.1264 -0.3109
   65SAPC   H2X 5307  -0.256   1.479   6.658  0.1290  0.7276  0.7818
   65SAPC   H2Y 5308  -0.129   1.599   6.607  2.8480 -1.1327 -2.9463
   65SAPC   C23 5309   0.131   0.810   6.699  0.8605 -0.1730 -0.1994
   65SAPC   H3R 5310   0.158   0.754   6.607 -2.2892  1.1659 -2.0205
   65SAPC   H3S 5311   0.093   0.731   6.767 -1.3082  0.6293 -0.4467
   65SAPC   C24 5312   0.248   0.894   6.756 -0.8364 -0.4963 -0.1316
   65SAPC   H4R 5313   0.207   0.963   6.833  1.6591 -1.8771  2.5439
   65SAPC   H4S 5314   0.300   0.965   6.688 -0.7622 -1.1813 -0.7932
   65SAPC   C25 5315   0.347   0.801   6.824  0.6665  0.2375  0.6974
   65SAPC   H5R 5316   0.407   0.746   6.750 -0.7443  1.2081 -1.2014
   65SAPC   C26 5317   0.361   0.782   6.953 -0.0408 -0.5683 -0.8316
   65SAPC   H6R 5318   0.429   0.701   6.983  1.7378  0.8488 -0.9684
   65SAPC   C27 5319   0.284   0.859   7.055 -0.9394  0.6962  0.3362
   65SAPC   H7R 5320   0.174   0.844   7.052 -0.6284 -1.4423 -0.8725
   65SAPC   H7S 5321   0.306   0.968   7.045 -0.3554  0.7220  1.7665
   65SAPC   C28 5322   0.336   0.830   7.191  0.5184 -0.8543 -0.5916
   65SAPC   H8R 5323   0.445   0.844   7.202  0.0721  0.5898  2.4409
   65SAPC   C29 5324   0.267   0.798   7.300 -0.1607 -0.6074  0.4153
   65SAPC   H9R 5325   0.328   0.785   7.390 -0.4621 -1.0848  0.5564
   65SAPC  C210 5326   0.114   0.770   7.296 -0.1914  0.6005  0.9480
   65SAPC  H10R 5327   0.085   0.743   7.193  1.1274 -0.7531  0.9207
   65SAPC  H10S 5328   0.050   0.855   7.328 -2.1584 -0.4262 -0.2193
   65SAPC  C211 5329   0.080   0.650   7.379  0.3656  1.1893  0.8100
   65SAPC  H11R 5330   0.089   0.559   7.318 -1.3675  0.6997  1.2497
   65SAPC  C212 5331   0.037   0.641   7.503  0.7599 -0.4096 -0.0062
   65SAPC  H12R 5332  -0.003   0.545   7.539 -1.4490  0.0751 -1.1206
   65SAPC  C213 5333   0.007   0.760   7.594  0.2930 -0.2928  0.0619
   65SAPC  H13R 5334  -0.103   0.759   7.608  0.1614 -2.7090 -0.8817
   65SAPC  H13S 5335   0.027   0.859   7.548  0.6454  0.1491  1.1712
   65SAPC  C214 5336   0.073   0.740   7.730  0.5719 -0.6195  0.3470
   65SAPC  H14R 5337   0.172   0.691   7.736  0.9884  0.1419 -0.2304
   65SAPC  C215 5338   0.020   0.778   7.846 -0.4742  0.4434 -0.5591
   65SAPC  H15R 5339   0.088   0.765   7.932  1.5478 -0.3961 -2.2631
   65SAPC  C216 5340  -0.108   0.853   7.876 -0.1318  0.2146 -0.2387
   65SAPC  H16R 5341  -0.133   0.921   7.791 -0.6712 -1.9972 -1.8909
   65SAPC  H16S 5342  -0.087   0.924   7.959  4.4120 -1.2855 -0.0019
   65SAPC  C217 5343  -0.236   0.771   7.904 -0.1322 -0.3199  0.2316
   65SAPC  H17R 5344  -0.226   0.696   7.985  2.6347  0.6874  0.8771
   65SAPC  H17S 5345  -0.239   0.712   7.810  0.9312  0.7805 -0.5232
   65SAPC  C218 5346  -0.360   0.852   7.920 -0.4439 -0.0945 -0.2110
   65SAPC  H18R 5347  -0.438   0.774   7.930  0.4416 -0.8992  0.4901
   65SAPC  H18S 5348  -0.398   0.911   7.834  1.2193  0.0970 -0.8350
   65SAPC  C219 5349  -0.377   0.937   8.044  0.0507 -0.1765 -0.2349
   65SAPC  H19R 5350  -0.293   1.009   8.052 -0.2693  0.4169 -1.9127
   65SAPC  H19S 5351  -0.372   0.870   8.132 -0.5988 -0.1075 -0.1440
   65SAPC  C220 5352  -0.508   1.005   8.053  0.4954 -0.1844  0.9057
   65SAPC  H20R 5353  -0.506   1.092   7.985  1.1788 -0.1744  0.9331
   65SAPC  H20S 5354  -0.521   1.062   8.148 -1.4630  2.8446 -1.1001
   65SAPC  H20T 5355  -0.586   0.936   8.014  1.8380 -0.5869 -1.1225
   65SAPC   C33 5356  -0.059   1.445   6.749 -0.8791  0.5229 -0.5782
   65SAPC   H3X 5357  -0.053   1.526   6.825 -1.8462  0.0499  0.0065
   65SAPC   H3Y 5358   0.043   1.430   6.709 -1.3417 -1.3377 -1.1071
   65SAPC   C34 5359  -0.115   1.320   6.813  0.1745 -0.6061 -0.2575
   65SAPC   H4X 5360  -0.106   1.229   6.750  0.7831 -0.7447  0.0281
   65SAPC   H4Y 5361  -0.220   1.349   6.833  0.1374 -1.1727  0.3595
   65SAPC   C35 5362  -0.057   1.296   6.957  0.2325 -0.6515 -0.1351
   65SAPC   H5X 5363  -0.093   1.194   6.979  1.4200 -0.4767  2.8008
   65SAPC   H5Y 5364  -0.118   1.367   7.017  0.5350  0.4642 -1.1188
   65SAPC   C36 5365   0.086   1.322   6.981 -0.3821  0.5629 -0.3450
   65SAPC   H6X 5366   0.107   1.431   6.991  3.2422 -0.1560  0.6027
   65SAPC   H6Y 5367   0.152   1.274   6.906  1.5969  3.2475 -0.3770
   65SAPC   C37 5368   0.127   1.261   7.120  0.0077 -0.2838 -0.3971
   65SAPC   H7X 5369   0.229   1.297   7.142  0.1546 -0.5402 -0.6508
   65SAPC   H7Y 5370   0.128   1.151   7.101 -3.8610 -0.3407 -0.6426
   65SAPC   C38 5371   0.052   1.303   7.245  0.5911 -0.6078 -0.2377
   65SAPC   H8X 5372  -0.057   1.294   7.224  0.8803  0.1807 -2.1894
   65SAPC   H8Y 5373   0.081   1.409   7.258 -2.0583 -0.0016  1.0001
   65SAPC   C39 5374   0.083   1.217   7.361  0.2391 -0.4396  0.2044
   65SAPC   H9X 5375   0.193   1.216   7.379 -0.0305  0.0384  2.0643
   65SAPC   H9Y 5376   0.045   1.115   7.338 -0.4857  0.2986 -1.9232
   65SAPC  C310 5377   0.042   1.268   7.490 -0.1492  0.5645  0.4863
   65SAPC  H10X 5378  -0.067   1.290   7.491 -0.0438  1.0849  0.5197
   65SAPC  H10Y 5379   0.090   1.367   7.501  0.3971  0.6304 -2.1064
   65SAPC  C311 5380   0.064   1.183   7.612 -0.3244  0.1543 -0.7692
   65SAPC  H11X 5381   0.174   1.168   7.619 -0.2069  0.7917 -1.2136
   65SAPC  H11Y 5382   0.010   1.086   7.621 -2.5444  1.1985 -2.3302
   65SAPC  C312 5383   0.036   1.265   7.750 -0.8907 -0.4587  0.2814
   65SAPC  H12X 5384   0.118   1.338   7.765 -0.8466 -0.4210 -0.1276
   65SAPC  H12Y 5385   0.040   1.188   7.830 -1.6904  0.4297  1.1967
   65SAPC  C313 5386  -0.101   1.332   7.766 -0.3624 -0.2801  0.8031
   65SAPC  H13X 5387  -0.168   1.258   7.718 -1.0595  0.3947  0.7293
   65SAPC  H13Y 5388  -0.121   1.418   7.698 -0.7012 -0.7799  0.2603
   65SAPC  C314 5389  -0.148   1.362   7.910  0.2593  0.2068 -0.1821
   65SAPC  H14X 5390  -0.088   1.446   7.949  0.5553 -0.2699  0.4121
   65SAPC  H14Y 5391  -0.137   1.270   7.972  0.8369  0.9751  0.8785
   65SAPC  C315 5392  -0.296   1.404   7.916 -0.3791 -0.0409  0.0124
   65SAPC  H15X 5393  -0.353   1.310   7.896  2.5795 -2.1911  1.2417
   65SAPC  H15Y 5394  -0.307   1.484   7.840  0.1367 -0.0014 -0.0240
   65SAPC  C316 5395  -0.336   1.471   8.051  0.2348  0.3529  1.0463
   65SAPC  H16X 5396  -0.397   1.560   8.024  0.4648  0.9433  2.4545
   65SAPC  H16Y 5397  -0.246   1.506   8.105  1.3544  2.5330 -2.0580
   65SAPC  C317 5398  -0.410   1.379   8.153 -0.3849  0.1479 -0.4687
   65SAPC  H17X 5399  -0.339   1.294   8.160  1.5325  1.6581 -1.0851
   65SAPC  H17Y 5400  -0.512   1.351   8.119  0.0679  0.0733 -1.7780
   65SAPC  C318 5401  -0.428   1.449   8.282 -0.5511  0.0195  0.1700
   65SAPC  H18X 5402  -0.488   1.388   8.353 -0.1069  0.5684  1.0146
   65SAPC  H18Y 5403  -0.480   1.546   8.270  0.9849  0.5849 -2.4198
   65SAPC  H18Z 5404  -0.327   1.460   8.326  0.4621  1.5783 -2.4463
   66SAPC     N 5405   4.505   0.979   5.875  0.0271 -0.9178 -0.1888
   66SAPC   C12 5406   4.535   0.848   5.945 -0.1716 -0.0326 -0.1497
   66SAPC  H12A 5407   4.450   0.782   5.939  0.4547 -0.7260 -1.7359
   66SAPC  H12B 5408   4.540   0.882   6.048 -0.9482 -3.2088  1.0022
   66SAPC   C13 5409   4.367   1.026   5.905  0.0804  0.6757 -0.1563
   66SAPC  H13A 5410   4.341   1.106   5.837 -0.7087  0.8791  0.3879
   66SAPC  H13B 5411   4.300   0.946   5.880  2.0147 -0.8147 -0.7215
   66SAPC  H13C 5412   4.340   1.057   6.005  0.7630  1.4014 -0.1843
   66SAPC   C14 5413   4.606   1.083   5.925 -0.3247  0.1038 -0.4740
   66SAPC  H14A 5414   4.593   1.101   6.030  1.7951 -1.8443  0.1471
   66SAPC  H14B 5415   4.704   1.040   5.914  0.0078  0.9058 -0.7113
   66SAPC  H14C 5416   4.601   1.179   5.877 -1.2329 -0.3463 -1.3125
   66SAPC   C15 5417   4.525   0.967   5.727  0.0263  0.4576  0.6692
   66SAPC  H15A 5418   4.525   1.062   5.675  0.9041  0.5242  0.7799
   66SAPC  H15B 5419   4.606   0.902   5.700 -0.6648 -0.2813  0.3423
   66SAPC  H15C 5420   4.438   0.909   5.699  1.0878 -0.4273 -0.8472
   66SAPC   C11 5421   4.667   0.774   5.915  0.6249  0.3079  0.1054
   66SAPC  H11A 5422   4.682   0.766   5.806 -2.3202  0.7788 -0.3691
   66SAPC  H11B 5423   4.671   0.671   5.957  0.7575  1.0374  1.9563
   66SAPC     P 5424   4.882   0.814   6.062  0.0688  0.0901 -0.0787
   66SAPC   O13 5425   4.951   0.688   6.022  0.6101  0.5686 -0.3065
   66SAPC   O14 5426   4.962   0.932   6.094 -0.1829 -0.8056  0.0083
   66SAPC   O12 5427   4.784   0.842   5.951  0.2699 -0.1602  0.9056
   66SAPC   O11 5428   4.799   0.790   6.182 -0.3831 -0.1122  0.0063
   66SAPC    C1 5429   4.729   0.669   6.205  0.4825 -0.1514 -0.7312
   66SAPC    HA 5430   4.626   0.672   6.165  0.3269  0.1815 -0.3178
   66SAPC    HB 5431   4.769   0.573   6.166  0.0032 -0.2540 -0.9722
   66SAPC    C2 5432   4.707   0.642   6.358  0.4184  0.7056  0.4030
   66SAPC    HS 5433   4.630   0.563   6.371  0.6691  0.6040  1.2961
   66SAPC   O21 5434   4.671   0.770   6.418  0.4402  0.3189  0.3229
   66SAPC   C21 5435   4.587   0.756   6.522  0.5440  0.3062 -0.1456
   66SAPC   O22 5436   4.526   0.653   6.552  0.4306 -0.5079 -0.1986
   66SAPC   C22 5437   4.585   0.893   6.591  0.3032 -0.2035 -0.0308
   66SAPC   H2R 5438   4.687   0.933   6.612  1.0674 -2.6563  1.0986
   66SAPC   H2S 5439   4.514   0.958   6.536 -1.0610 -0.1350  1.7870
   66SAPC    C3 5440   4.836   0.587   6.415 -0.2271  0.5142  1.3789
   66SAPC    HX 5441   4.902   0.676   6.413 -0.8409  0.9828  1.7709
   66SAPC    HY 5442   4.889   0.513   6.351 -3.6913 -0.3190 -0.6436
   66SAPC   O31 5443   4.831   0.537   6.548  0.2597  0.6477 -0.2893
   66SAPC   C31 5444   4.797   0.404   6.558  0.3570  0.1670  0.0375
   66SAPC   O32 5445   4.809   0.328   6.463  0.0331 -0.0174  0.1325
   66SAPC   C32 5446   4.760   0.368   6.694 -0.3504 -0.0875  0.3988
   66SAPC   H2X 5447   4.657   0.406   6.712 -0.1936  0.2704  0.5620
   66SAPC   H2Y 5448   4.828   0.426   6.760 -1.3069 -0.2074  1.5101
   66SAPC   C23 5449   4.529   0.865   6.736 -0.4040 -0.1329 -0.2535
   66SAPC   H3R 5450   4.441   0.798   6.743  1.1925 -2.2781 -0.3618
   66SAPC   H3S 5451   4.508   0.959   6.792  1.9034 -0.5994  1.4771
   66SAPC   C24 5452   4.637   0.812   6.839 -0.3809  0.1357  0.5897
   66SAPC   H4R 5453   4.724   0.881   6.843  0.1925 -0.5300 -0.2895
   66SAPC   H4S 5454   4.678   0.714   6.806 -0.8438  0.9925 -2.5945
   66SAPC   C25 5455   4.571   0.790   6.978 -0.1143 -0.2481  0.2049
   66SAPC   H5R 5456   4.566   0.881   7.038 -1.4204 -0.6867  0.7800
   66SAPC   C26 5457   4.544   0.667   7.030 -0.8847 -0.6779 -0.9172
   66SAPC   H6R 5458   4.501   0.658   7.131  2.7962 -1.3333  0.6615
   66SAPC   C27 5459   4.542   0.539   6.952  0.1464  0.3040 -0.4096
   66SAPC   H7R 5460   4.561   0.455   7.023  2.0839  1.5538  0.5983
   66SAPC   H7S 5461   4.626   0.532   6.880  0.5567  0.8837  0.0120
   66SAPC   C28 5462   4.421   0.519   6.873 -0.2618  0.1015  0.2904
   66SAPC   H8R 5463   4.409   0.592   6.792  3.7903  0.2806 -0.2204
   66SAPC   C29 5464   4.336   0.418   6.874  0.0323 -1.5106 -0.4059
   66SAPC   H9R 5465   4.251   0.418   6.804 -1.0084 -0.4643  0.8156
   66SAPC  C210 5466   4.343   0.307   6.974 -0.9256  0.2985 -0.1636
   66SAPC  H10R 5467   4.295   0.349   7.065  0.7423  1.6291  0.1236
   66SAPC  H10S 5468   4.447   0.285   7.007 -1.1031  1.1492  0.9974
   66SAPC  C211 5469   4.281   0.174   6.939  0.2157  0.5006 -0.7351
   66SAPC  H11R 5470   4.207   0.174   6.858 -0.0945  0.3630 -0.4526
   66SAPC  C212 5471   4.314   0.059   7.001  0.0107 -0.4191 -0.8938
   66SAPC  H12R 5472   4.272  -0.038   6.969 -0.1996 -0.5583 -0.1997
   66SAPC  C213 5473   4.404   0.044   7.118  0.9268 -0.6228  0.3605
   66SAPC  H13R 5474   4.477   0.127   7.115  0.8388 -0.5347  0.6234
   66SAPC  H13S 5475   4.464  -0.050   7.118 -0.2845 -1.4108  0.2816
   66SAPC  C214 5476   4.323   0.034   7.247 -0.0591  1.5251 -0.3924
   66SAPC  H14R 5477   4.240  -0.038   7.250  1.9656 -0.9878 -2.0260
   66SAPC  C215 5478   4.324   0.125   7.343 -0.2472  0.2202  0.2802
   66SAPC  H15R 5479   4.264   0.102   7.432  0.8669 -0.1959  0.9346
   66SAPC  C216 5480   4.424   0.243   7.339  0.0375 -0.0542  0.7726
   66SAPC  H16R 5481   4.401   0.307   7.251 -1.5399 -0.5995  0.7694
   66SAPC  H16S 5482   4.530   0.210   7.334 -0.2375 -0.8273 -0.1436
   66SAPC  C217 5483   4.417   0.337   7.462 -0.0740  0.1021  0.2889
   66SAPC  H17R 5484   4.409   0.280   7.557 -0.0253  0.2733  0.3962
   66SAPC  H17S 5485   4.326   0.399   7.450  0.5590  1.0341  0.2579
   66SAPC  C218 5486   4.534   0.426   7.468 -0.4196  0.8396 -0.6865
   66SAPC  H18R 5487   4.565   0.478   7.375 -0.3618 -1.3195 -1.9107
   66SAPC  H18S 5488   4.623   0.367   7.499 -1.2509 -0.8917 -1.4862
   66SAPC  C219 5489   4.501   0.523   7.583  0.9576 -0.1582 -0.4270
   66SAPC  H19R 5490   4.393   0.546   7.590  0.7135 -1.7899  1.6100
   66SAPC  H19S 5491   4.564   0.614   7.569 -0.9388  1.2995  0.2337
   66SAPC  C220 5492   4.537   0.463   7.719 -0.0918 -0.0056 -0.0159
   66SAPC  H20R 5493   4.524   0.354   7.732 -2.9934  0.5547  2.5001
   66SAPC  H20S 5494   4.490   0.514   7.807  2.9965  1.5893  0.7969
   66SAPC  H20T 5495   4.648   0.464   7.723 -0.0528 -0.3994 -0.9105
   66SAPC   C33 5496   4.769   0.216   6.713 -0.6925  0.2775 -0.4311
   66SAPC   H3X 5497   4.871   0.174   6.696 -0.5212  0.2948  0.5546
   66SAPC   H3Y 5498   4.706   0.173   6.633 -0.8401  0.6180 -0.4978
   66SAPC   C34 5499   4.733   0.156   6.849  0.1034  0.1705 -0.0940
   66SAPC   H4X 5500   4.739   0.047   6.828 -0.7704 -0.0468  0.7604
   66SAPC   H4Y 5501   4.627   0.183   6.867  0.6428  1.4544  1.2664
   66SAPC   C35 5502   4.832   0.207   6.957  0.1269  0.3012 -0.0714
   66SAPC   H5X 5503   4.843   0.317   6.946  0.4889  0.1506 -1.3482
   66SAPC   H5Y 5504   4.932   0.164   6.932  0.1326 -0.8106  1.8047
   66SAPC   C36 5505   4.788   0.180   7.099  1.0399  0.2708 -0.6053
   66SAPC   H6X 5506   4.774   0.070   7.100  0.0272  0.4026  0.2409
   66SAPC   H6Y 5507   4.691   0.231   7.116  0.8403 -0.4484  0.5161
   66SAPC   C37 5508   4.892   0.222   7.207  0.2747  0.1685 -0.6780
   66SAPC   H7X 5509   4.949   0.310   7.171  0.6875  1.0276  1.9464
   66SAPC   H7Y 5510   4.969   0.143   7.220  1.1878  0.8052 -2.1413
   66SAPC   C38 5511   4.842   0.258   7.351  0.1623 -0.4023  0.1264
   66SAPC   H8X 5512   4.781   0.173   7.388 -0.8029 -0.3793 -1.3660
   66SAPC   H8Y 5513   4.775   0.346   7.342 -1.6953 -1.6930  1.0291
   66SAPC   C39 5514   4.962   0.292   7.443  0.2503  0.3307 -0.4522
   66SAPC   H9X 5515   5.060   0.315   7.394  1.9509 -4.1885  0.6009
   66SAPC   H9Y 5516   4.996   0.196   7.487 -0.0986 -0.2868 -1.5070
   66SAPC  C310 5517   4.933   0.382   7.559 -0.3739 -0.2370  0.1232
   66SAPC  H10X 5518   4.848   0.349   7.623  0.4265  0.3384  1.5310
   66SAPC  H10Y 5519   4.911   0.483   7.517  0.3134  0.4132  1.2740
   66SAPC  C311 5520   5.055   0.405   7.658  0.2055 -0.3877 -0.0250
   66SAPC  H11X 5521   5.124   0.482   7.617  0.2746 -2.0036 -3.0967
   66SAPC  H11Y 5522   5.117   0.313   7.657 -1.1006 -1.2807 -1.7033
   66SAPC  C312 5523   5.028   0.447   7.800 -0.0282  0.4724  0.3822
   66SAPC  H12X 5524   4.961   0.535   7.807  1.1507  1.2659  2.0141
   66SAPC  H12Y 5525   5.126   0.465   7.849  1.2551 -1.4304 -1.4239
   66SAPC  C313 5526   4.985   0.338   7.895 -0.1075 -0.5481 -0.0201
   66SAPC  H13X 5527   5.065   0.323   7.970 -0.2943 -2.1501 -0.1325
   66SAPC  H13Y 5528   4.981   0.242   7.840 -0.5977 -1.3930  1.4649
   66SAPC  C314 5529   4.851   0.361   7.964 -0.6881 -0.2241 -0.6479
   66SAPC  H14X 5530   4.825   0.283   8.040  1.0089  0.9326  1.1733
   66SAPC  H14Y 5531   4.780   0.355   7.879 -1.1324  3.6612 -0.6319
   66SAPC  C315 5532   4.831   0.499   8.042  0.6694  0.2150 -0.8013
   66SAPC  H15X 5533   4.776   0.567   7.974 -0.5587  1.8114  1.7421
   66SAPC  H15Y 5534   4.920   0.546   8.088 -0.1202 -0.5987  1.6637
   66SAPC  C316 5535   4.739   0.470   8.164 -0.7678  0.7717  0.4307
   66SAPC  H16X 5536   4.787   0.390   8.224  0.3220  1.0977 -0.0064
   66SAPC  H16Y 5537   4.641   0.423   8.137 -1.4224  1.7437  1.0880
   66SAPC  C317 5538   4.725   0.600   8.243  0.0042 -0.2003  0.2113
   66SAPC  H17X 5539   4.819   0.659   8.250 -0.8401  1.1986 -0.1252
   66SAPC  H17Y 5540   4.690   0.566   8.343  2.0563  1.4183  1.5172
   66SAPC  C318 5541   4.617   0.697   8.191 -0.0228  0.3346  0.3402
   66SAPC  H18X 5542   4.644   0.735   8.090 -1.2358 -1.8702 -0.8586
   66SAPC  H18Y 5543   4.608   0.783   8.261 -0.1077 -0.1131  0.8886
   66SAPC  H18Z 5544   4.523   0.639   8.195 -0.5814  1.2811  1.3621
   67SAPC     N 5545   0.633   2.238   5.929  0.4016 -0.6236 -0.7535
   67SAPC   C12 5546   0.650   2.149   6.047 -0.3471  0.1419  0.2460
   67SAPC  H12A 5547   0.747   2.104   6.031 -1.0163 -1.0400 -0.6217
   67SAPC  H12B 5548   0.569   2.078   6.032  0.2193 -0.2613 -0.9710
   67SAPC   C13 5549   0.745   2.331   5.913 -0.7179  0.1939 -0.0142
   67SAPC  H13A 5550   0.837   2.274   5.914 -1.0359 -0.3461 -0.5704
   67SAPC  H13B 5551   0.749   2.382   5.818 -0.9591 -0.0895 -0.1773
   67SAPC  H13C 5552   0.761   2.402   5.992  1.5223 -0.8288  0.5182
   67SAPC   C14 5553   0.617   2.147   5.807 -0.6050  0.3629 -0.1719
   67SAPC  H14A 5554   0.706   2.087   5.793  0.3433  2.0560 -1.6482
   67SAPC  H14B 5555   0.518   2.103   5.807  0.4562 -2.1404  0.8554
   67SAPC  H14C 5556   0.631   2.210   5.720  2.6642 -1.4940 -1.0660
   67SAPC   C15 5557   0.508   2.331   5.941 -0.1805 -0.1566 -0.6205
   67SAPC  H15A 5558   0.527   2.410   6.012  1.2175 -3.3307  2.7231
   67SAPC  H15B 5559   0.482   2.371   5.844 -2.3656  1.0663  0.4537
   67SAPC  H15C 5560   0.417   2.286   5.975  0.5063 -0.2409  1.1440
   67SAPC   C11 5561   0.649   2.205   6.195 -0.5311  0.5711 -0.8235
   67SAPC  H11A 5562   0.728   2.283   6.199 -1.7077  1.7579 -0.5207
   67SAPC  H11B 5563   0.692   2.118   6.250 -0.8871  0.5396 -0.5905
   67SAPC     P 5564   0.420   2.146   6.305 -0.2975  0.0083 -0.0278
   67SAPC   O13 5565   0.331   2.085   6.197 -0.2928 -0.3029  0.3234
   67SAPC   O14 5566   0.491   2.055   6.391 -0.1602 -0.0058  0.1293
   67SAPC   O12 5567   0.523   2.251   6.251 -0.4612 -0.1165  0.2467
   67SAPC   O11 5568   0.326   2.248   6.382  0.0164 -0.4692 -0.1626
   67SAPC    C1 5569   0.370   2.290   6.514  0.0143 -0.7532 -1.1614
   67SAPC    HA 5570   0.479   2.284   6.534  0.0195  1.4272 -0.3145
   67SAPC    HB 5571   0.347   2.399   6.523  2.8285 -0.2365  0.2774
   67SAPC    C2 5572   0.289   2.205   6.624 -0.1840  0.0047  0.5208
   67SAPC    HS 5573   0.313   2.098   6.603 -2.2676 -0.0036 -2.0275
   67SAPC   O21 5574   0.152   2.239   6.614  0.3901 -1.2347  0.0304
   67SAPC   C21 5575   0.071   2.151   6.555  0.0118 -0.5661  0.2007
   67SAPC   O22 5576   0.106   2.057   6.485  0.1801  0.1518 -0.0778
   67SAPC   C22 5577  -0.068   2.192   6.585  0.2632  0.5792  0.8158
   67SAPC   H2R 5578  -0.103   2.158   6.685 -0.2797 -1.3171 -0.0107
   67SAPC   H2S 5579  -0.069   2.303   6.592  2.3254  0.4884  3.6860
   67SAPC    C3 5580   0.340   2.240   6.769  0.2912  0.0340  0.6167
   67SAPC    HX 5581   0.346   2.349   6.790  1.6522  0.2868 -0.9679
   67SAPC    HY 5582   0.447   2.213   6.780  0.2181 -1.0419 -1.0801
   67SAPC   O31 5583   0.264   2.176   6.873 -0.0408 -0.0247  0.1815
   67SAPC   C31 5584   0.145   2.235   6.917 -0.3604 -0.0637  0.4042
   67SAPC   O32 5585   0.106   2.342   6.869 -0.0563  0.4944  0.1401
   67SAPC   C32 5586   0.071   2.146   7.013 -0.2261  0.3274 -0.7169
   67SAPC   H2X 5587   0.093   2.039   6.991  0.4346 -0.1208  1.9607
   67SAPC   H2Y 5588  -0.037   2.153   6.985 -1.1959 -1.4880  2.3825
   67SAPC   C23 5589  -0.177   2.157   6.474 -0.5391 -0.4996 -0.0930
   67SAPC   H3R 5590  -0.171   2.055   6.430 -2.0702 -0.1663 -1.1236
   67SAPC   H3S 5591  -0.164   2.213   6.379 -0.0985 -2.1275 -1.0165
   67SAPC   C24 5592  -0.316   2.173   6.534 -0.3070  0.0925  0.2829
   67SAPC   H4R 5593  -0.328   2.112   6.625  2.2096 -0.4651  0.2568
   67SAPC   H4S 5594  -0.386   2.130   6.459 -0.0455 -1.2413  0.8074
   67SAPC   C25 5595  -0.360   2.316   6.553  0.0237  0.1705 -0.1051
   67SAPC   H5R 5596  -0.396   2.361   6.459 -0.5729  0.1128  0.0897
   67SAPC   C26 5597  -0.374   2.384   6.668 -0.0504  0.0949 -0.2921
   67SAPC   H6R 5598  -0.421   2.484   6.672  1.5928  0.8446  0.8318
   67SAPC   C27 5599  -0.350   2.326   6.804  0.5361 -0.1267 -0.2852
   67SAPC   H7R 5600  -0.340   2.215   6.799 -0.4595 -0.1472 -2.6161
   67SAPC   H7S 5601  -0.444   2.336   6.863  2.5122 -0.8303  3.1379
   67SAPC   C28 5602  -0.226   2.386   6.871  0.3886 -0.5110 -0.6019
   67SAPC   H8R 5603  -0.146   2.420   6.804  0.1033  1.1382 -0.1178
   67SAPC   C29 5604  -0.212   2.397   7.008  0.3671  0.0596 -0.3214
   67SAPC   H9R 5605  -0.116   2.435   7.048  1.5739 -1.9620 -1.2583
   67SAPC  C210 5606  -0.308   2.352   7.111 -0.7596 -0.9311  0.7355
   67SAPC  H10R 5607  -0.410   2.335   7.070 -0.2200  0.2037 -1.1162
   67SAPC  H10S 5608  -0.339   2.440   7.172  0.1674  0.9525 -1.4475
   67SAPC  C211 5609  -0.262   2.235   7.195  0.5105  0.4616 -0.5239
   67SAPC  H11R 5610  -0.207   2.159   7.139 -1.0037 -1.0565  0.0175
   67SAPC  C212 5611  -0.278   2.216   7.328  0.2507 -0.5419  0.0670
   67SAPC  H12R 5612  -0.242   2.123   7.375  1.0858  0.0028  0.5088
   67SAPC  C213 5613  -0.355   2.307   7.421 -0.6826 -0.2317  0.2494
   67SAPC  H13R 5614  -0.284   2.389   7.445 -0.4596 -0.7705  1.4821
   67SAPC  H13S 5615  -0.370   2.246   7.513 -1.4023 -0.0048  0.2894
   67SAPC  C214 5616  -0.485   2.368   7.388 -0.8528  0.2217 -0.0539
   67SAPC  H14R 5617  -0.484   2.466   7.337 -1.1616 -0.1440 -0.7800
   67SAPC  C215 5618  -0.601   2.309   7.409  1.1439 -0.4775 -0.0173
   67SAPC  H15R 5619  -0.693   2.361   7.382  0.7359 -0.8081  0.7169
   67SAPC  C216 5620  -0.637   2.174   7.471 -0.2633  0.5402 -0.3562
   67SAPC  H16R 5621  -0.551   2.104   7.471  1.0208  2.0363 -2.8724
   67SAPC  H16S 5622  -0.718   2.129   7.410  0.3061 -0.0748 -0.6724
   67SAPC  C217 5623  -0.685   2.195   7.619 -0.7285  0.3851 -0.6068
   67SAPC  H17R 5624  -0.772   2.263   7.610  0.2042  1.4249 -1.9670
   67SAPC  H17S 5625  -0.612   2.240   7.690 -1.0377  0.1780 -0.1589
   67SAPC  C218 5626  -0.731   2.057   7.680 -0.4140 -0.6477 -0.2726
   67SAPC  H18R 5627  -0.760   2.073   7.786  1.1610 -1.2744  0.2682
   67SAPC  H18S 5628  -0.662   1.970   7.671  0.2784  0.0761 -2.1515
   67SAPC  C219 5629  -0.863   2.009   7.617  0.1766  0.7098  0.1568
   67SAPC  H19R 5630  -0.863   2.003   7.506 -1.0747  0.1488  0.1705
   67SAPC  H19S 5631  -0.930   2.095   7.638 -0.3454  0.3255  0.0801
   67SAPC  C220 5632  -0.915   1.876   7.677  0.3009 -0.6819  0.1359
   67SAPC  H20R 5633  -0.917   1.888   7.787 -1.5943 -0.3522  0.0699
   67SAPC  H20S 5634  -0.833   1.800   7.667  1.5194  0.8696 -2.1197
   67SAPC  H20T 5635  -1.018   1.845   7.649 -0.5802  0.0810  2.4128
   67SAPC   C33 5636   0.105   2.184   7.157 -0.0873  0.5170 -0.3451
   67SAPC   H3X 5637   0.050   2.117   7.226  0.0495 -0.6872 -1.3869
   67SAPC   H3Y 5638   0.081   2.292   7.169  0.6871  0.8734 -1.8274
   67SAPC   C34 5639   0.252   2.173   7.195  0.3048  0.0871 -0.0918
   67SAPC   H4X 5640   0.323   2.208   7.117  0.3056  0.3596  0.0317
   67SAPC   H4Y 5641   0.266   2.063   7.204 -0.6021  0.0155  0.5366
   67SAPC   C35 5642   0.302   2.235   7.331 -0.1560 -0.1419  0.3119
   67SAPC   H5X 5643   0.278   2.343   7.325 -1.2371 -0.3590  0.4955
   67SAPC   H5Y 5644   0.410   2.212   7.345 -0.4786 -1.5049  0.7316
   67SAPC   C36 5645   0.236   2.178   7.459  0.1613  0.5988 -0.0078
   67SAPC   H6X 5646   0.245   2.067   7.458 -1.6739  0.3821  2.4747
   67SAPC   H6Y 5647   0.131   2.213   7.457  0.7078  2.2568 -0.0566
   67SAPC   C37 5648   0.308   2.221   7.586 -0.4022 -0.1759 -0.0312
   67SAPC   H7X 5649   0.290   2.325   7.618 -2.0105  0.3468 -2.5337
   67SAPC   H7Y 5650   0.416   2.194   7.587 -0.1062  0.9472  1.9636
   67SAPC   C38 5651   0.252   2.126   7.705 -0.5954 -1.0331  1.0087
   67SAPC   H8X 5652   0.257   2.021   7.669 -0.3794 -0.7818  0.2939
   67SAPC   H8Y 5653   0.147   2.156   7.728  0.2321  2.6517  0.2151
   67SAPC   C39 5654   0.341   2.145   7.833 -0.6359  0.2925 -0.2483
   67SAPC   H9X 5655   0.299   2.232   7.888 -1.0039 -0.1224  0.1347
   67SAPC   H9Y 5656   0.446   2.166   7.804 -0.7380  2.0595  0.6285
   67SAPC  C310 5657   0.322   2.028   7.929 -0.6591 -0.4410  0.0251
   67SAPC  H10X 5658   0.355   1.937   7.875 -1.0664 -0.8544  0.4688
   67SAPC  H10Y 5659   0.212   2.032   7.946 -0.7536  0.3950 -0.7400
   67SAPC  C311 5660   0.405   2.049   8.054 -0.0296  1.0067  0.3068
   67SAPC  H11X 5661   0.357   2.128   8.115  2.2424  0.8671  2.3675
   67SAPC  H11Y 5662   0.505   2.088   8.022  0.0236  1.2578  0.7786
   67SAPC  C312 5663   0.415   1.911   8.124 -0.2447  0.2186  0.1413
   67SAPC  H12X 5664   0.515   1.902   8.172  0.9499 -0.9241 -2.4778
   67SAPC  H12Y 5665   0.422   1.832   8.046 -0.0512  0.2045  0.1713
   67SAPC  C313 5666   0.314   1.877   8.239  0.4026 -0.1003  0.0029
   67SAPC  H13X 5667   0.219   1.860   8.184  0.6698  1.2882 -0.9242
   67SAPC  H13Y 5668   0.289   1.951   8.318  1.5080  1.5509 -1.1420
   67SAPC  C314 5669   0.347   1.738   8.311  0.0488 -0.5284 -0.0585
   67SAPC  H14X 5670   0.402   1.686   8.231  2.4181 -1.2302  1.9631
   67SAPC  H14Y 5671   0.252   1.687   8.338 -0.9574  1.8134  1.0057
   67SAPC  C315 5672   0.438   1.746   8.431 -0.0230  0.1348 -0.0070
   67SAPC  H15X 5673   0.396   1.830   8.490 -2.4058 -1.2549  0.3487
   67SAPC  H15Y 5674   0.536   1.792   8.405 -0.9812  2.5153  0.4508
   67SAPC  C316 5675   0.442   1.622   8.522 -0.8137 -0.8393  0.6544
   67SAPC  H16X 5676   0.476   1.529   8.471 -0.3278 -0.5016  0.3643
   67SAPC  H16Y 5677   0.338   1.591   8.548 -0.3181 -2.6213  0.6162
   67SAPC  C317 5678   0.511   1.652   8.659  0.5578  0.3952  0.2872
   67SAPC  H17X 5679   0.479   1.751   8.698  0.6708  0.7616 -0.5442
   67SAPC  H17Y 5680   0.620   1.666   8.640  0.4832  3.0904  1.5202
   67SAPC  C318 5681   0.489   1.536   8.761  0.0847  0.5847  0.2998
   67SAPC  H18X 5682   0.387   1.542   8.805 -0.5147 -0.2760 -0.9589
   67SAPC  H18Y 5683   0.570   1.542   8.837  0.0423 -2.1185  0.6019
   67SAPC  H18Z 5684   0.490   1.435   8.716 -5.0059  0.0422  1.0619
   68SAPC     N 5685   4.057   1.691   6.229 -0.4560 -0.1203  0.1916
   68SAPC   C12 5686   4.096   1.837   6.236  0.1110 -0.1133  0.1726
   68SAPC  H12A 5687   4.039   1.888   6.313 -0.0531  0.0148 -0.0330
   68SAPC  H12B 5688   4.057   1.879   6.144 -0.7089  1.8737  1.3942
   68SAPC   C13 5689   3.911   1.664   6.241  0.4224 -0.5188  0.0778
   68SAPC  H13A 5690   3.849   1.735   6.293 -0.3974 -0.7241 -0.6016
   68SAPC  H13B 5691   3.865   1.648   6.145  0.1777 -0.5994  0.2073
   68SAPC  H13C 5692   3.901   1.569   6.293 -1.2613 -1.0423 -1.1547
   68SAPC   C14 5693   4.108   1.625   6.101 -0.5290 -0.5442  0.3930
   68SAPC  H14A 5694   4.215   1.623   6.112 -0.3266 -0.0309 -1.2603
   68SAPC  H14B 5695   4.062   1.529   6.087 -1.0557 -0.2399 -0.0159
   68SAPC  H14C 5696   4.077   1.684   6.015 -1.1978 -1.3879  0.0533
   68SAPC   C15 5697   4.130   1.617   6.338  0.1819 -0.2523  0.7662
   68SAPC  H15A 5698   4.092   1.665   6.427  1.2276  1.4530  0.3113
   68SAPC  H15B 5699   4.101   1.513   6.344  2.2209 -0.8733  0.3475
   68SAPC  H15C 5700   4.236   1.634   6.329  0.1892  0.8047  2.6563
   68SAPC   C11 5701   4.246   1.870   6.260  0.1589 -0.8942  0.1269
   68SAPC  H11A 5702   4.264   1.840   6.365 -1.2460  2.5950  1.4292
   68SAPC  H11B 5703   4.248   1.981   6.253 -0.5055 -0.8497  0.6815
   68SAPC     P 5704   4.494   1.824   6.185 -0.0159 -0.1545  0.2795
   68SAPC   O13 5705   4.562   1.699   6.142 -0.3097 -0.2579 -0.6474
   68SAPC   O14 5706   4.527   1.950   6.118  0.6112  0.3063  0.2892
   68SAPC   O12 5707   4.334   1.801   6.165 -0.1612  0.5707  0.0309
   68SAPC   O11 5708   4.516   1.844   6.346 -0.3792 -0.1603 -0.2447
   68SAPC    C1 5709   4.629   1.925   6.388 -0.0761 -0.7835  0.2147
   68SAPC    HA 5710   4.634   2.026   6.343 -1.4129  0.7143  3.2671
   68SAPC    HB 5711   4.614   1.941   6.497  0.1609 -2.4997  0.5173
   68SAPC    C2 5712   4.770   1.861   6.374  0.9494  0.3102 -0.5072
   68SAPC    HS 5713   4.776   1.842   6.265  1.0024  1.1837 -0.6607
   68SAPC   O21 5714   4.770   1.730   6.448 -0.1098 -0.2217  0.6369
   68SAPC   C21 5715   4.860   1.649   6.415 -0.3884 -0.0827  0.0928
   68SAPC   O22 5716   4.945   1.660   6.324  0.3218 -0.0928 -0.3717
   68SAPC   C22 5717   4.850   1.532   6.517  0.0471  0.4951 -0.6530
   68SAPC   H2R 5718   4.889   1.574   6.613  1.0158  1.2285 -1.3575
   68SAPC   H2S 5719   4.744   1.501   6.526 -0.1680  0.9192 -1.7568
   68SAPC    C3 5720   4.885   1.951   6.425  0.3749  0.3286  0.4757
   68SAPC    HX 5721   4.879   2.039   6.358 -0.9240  1.2435  1.7795
   68SAPC    HY 5722   4.981   1.904   6.396  0.8773  2.1116 -0.8802
   68SAPC   O31 5723   4.883   1.969   6.567  0.1411 -0.1117  0.0711
   68SAPC   C31 5724   4.931   2.085   6.613 -0.0492 -0.4680  0.2391
   68SAPC   O32 5725   4.976   2.182   6.552 -0.0248 -0.2886  0.3395
   68SAPC   C32 5726   4.924   2.082   6.773 -0.3138 -0.2020 -1.0029
   68SAPC   H2X 5727   4.935   1.977   6.808 -0.9430  0.0389 -0.0800
   68SAPC   H2Y 5728   4.821   2.114   6.801  1.2511  1.3183  3.4719
   68SAPC   C23 5729   4.934   1.404   6.488 -0.7137  0.1938  0.6266
   68SAPC   H3R 5730   5.043   1.421   6.474 -0.8233  0.2853 -0.1590
   68SAPC   H3S 5731   4.905   1.378   6.384  0.4287 -1.5412  0.7162
   68SAPC   C24 5732   4.907   1.294   6.592 -0.6089  0.6382 -0.7251
   68SAPC   H4R 5733   4.912   1.203   6.530 -0.5394 -0.3028  0.6382
   68SAPC   H4S 5734   4.806   1.306   6.637 -0.5720 -0.3585 -0.3723
   68SAPC   C25 5735   5.010   1.290   6.706 -0.0528  0.3146 -0.8665
   68SAPC   H5R 5736   5.101   1.350   6.690  0.2449  0.5988  1.6505
   68SAPC   C26 5737   5.011   1.221   6.825  0.3808  0.2267  0.5718
   68SAPC   H6R 5738   5.103   1.213   6.884  0.7708  2.2076  0.2853
   68SAPC   C27 5739   4.892   1.135   6.866  0.4908 -0.7418  0.7021
   68SAPC   H7R 5740   4.929   1.046   6.921  0.5619 -1.7586 -0.9487
   68SAPC   H7S 5741   4.836   1.083   6.785  0.0676  0.2866  0.3215
   68SAPC   C28 5742   4.793   1.200   6.967  0.7218 -0.2134 -0.1547
   68SAPC   H8R 5743   4.696   1.235   6.931  0.6094 -1.9392 -1.5934
   68SAPC   C29 5744   4.819   1.226   7.096  0.5396  0.1621  0.1344
   68SAPC   H9R 5745   4.742   1.276   7.157  1.7426  0.6241  1.3025
   68SAPC  C210 5746   4.948   1.200   7.172  0.2558 -0.5040 -0.8036
   68SAPC  H10R 5747   5.023   1.279   7.150  0.9982 -0.7828  0.6444
   68SAPC  H10S 5748   5.004   1.108   7.145 -0.4311 -0.6155 -1.8458
   68SAPC  C211 5749   4.922   1.170   7.317  0.4211  0.1565  0.1205
   68SAPC  H11R 5750   4.858   1.082   7.330 -1.8370  1.0369 -3.9808
   68SAPC  C212 5751   4.960   1.235   7.427 -0.3934 -0.4568  0.0133
   68SAPC  H12R 5752   4.935   1.181   7.520  2.0623 -3.5294 -1.0024
   68SAPC  C213 5753   5.044   1.361   7.422  0.0349  0.6316 -0.1915
   68SAPC  H13R 5754   5.123   1.355   7.344  1.3363  1.9609  0.9784
   68SAPC  H13S 5755   5.100   1.365   7.518 -0.0773  0.7065 -0.1289
   68SAPC  C214 5756   4.952   1.470   7.406  0.4952  0.1387 -0.1292
   68SAPC  H14R 5757   4.873   1.487   7.481 -0.3927 -0.1883 -0.9618
   68SAPC  C215 5758   4.954   1.554   7.299 -0.0533 -1.0036 -0.8141
   68SAPC  H15R 5759   4.873   1.628   7.309 -0.6276 -1.8975  1.6686
   68SAPC  C216 5760   5.057   1.558   7.197 -0.7336  0.3645  0.0370
   68SAPC  H16R 5761   5.060   1.477   7.121 -0.1383 -0.8541  1.3560
   68SAPC  H16S 5762   5.160   1.539   7.235 -0.9806  0.5866  0.8284
   68SAPC  C217 5763   5.049   1.691   7.119  0.0465 -0.6507  0.4962
   68SAPC  H17R 5764   5.130   1.694   7.043 -1.0582  0.2559 -0.6665
   68SAPC  H17S 5765   5.063   1.782   7.181  3.8087 -0.6319 -0.2481
   68SAPC  C218 5766   4.923   1.720   7.035  0.1245 -0.0555 -0.0407
   68SAPC  H18R 5767   4.952   1.802   6.965 -1.4364  0.6665  0.1464
   68SAPC  H18S 5768   4.834   1.749   7.095 -0.2945 -0.6469 -0.3774
   68SAPC  C219 5769   4.872   1.595   6.961 -0.1384  0.1409  0.3793
   68SAPC  H19R 5770   4.863   1.509   7.032  0.6978  0.2148  0.5750
   68SAPC  H19S 5771   4.940   1.552   6.885  1.6669 -0.0232  2.0537
   68SAPC  C220 5772   4.749   1.616   6.868 -0.2626 -0.5177 -0.5251
   68SAPC  H20R 5773   4.752   1.706   6.803  0.8862 -1.5660 -1.9741
   68SAPC  H20S 5774   4.658   1.639   6.926  0.0572 -1.4138  0.3417
   68SAPC  H20T 5775   4.737   1.528   6.800 -0.8050 -0.9599  0.1391
   68SAPC   C33 5776   5.024   2.176   6.846  0.0210  0.6306 -0.6031
   68SAPC   H3X 5777   5.030   2.275   6.797  1.0216  0.5633 -0.6215
   68SAPC   H3Y 5778   5.125   2.131   6.842  0.1761  0.8766  0.3732
   68SAPC   C34 5779   4.980   2.190   6.994  0.1167  0.7240 -0.1041
   68SAPC   H4X 5780   4.873   2.220   7.000  0.0991  0.9455 -1.3822
   68SAPC   H4Y 5781   5.043   2.274   7.032 -0.4742  1.1893 -0.1413
   68SAPC   C35 5782   4.985   2.054   7.069  0.6423  0.2721 -0.3432
   68SAPC   H5X 5783   5.079   1.996   7.052  0.2058 -0.6388  0.3388
   68SAPC   H5Y 5784   4.899   1.985   7.054  2.7822 -2.2466 -1.6213
   68SAPC   C36 5785   4.970   2.078   7.226  0.3047 -0.7031 -0.1108
   68SAPC   H6X 5786   4.938   1.980   7.266 -0.1680 -1.1045 -1.4599
   68SAPC   H6Y 5787   4.882   2.142   7.248  0.2104 -1.4469  1.7284
   68SAPC   C37 5788   5.092   2.152   7.277 -0.3530  0.0276  0.5081
   68SAPC   H7X 5789   5.117   2.253   7.238 -1.7235  0.3096  0.3325
   68SAPC   H7Y 5790   5.177   2.086   7.248  0.8477  1.8216 -0.1815
   68SAPC   C38 5791   5.086   2.147   7.431 -0.5837 -0.5806  0.8308
   68SAPC   H8X 5792   5.190   2.167   7.468  0.4338  1.3157 -2.8490
   68SAPC   H8Y 5793   5.053   2.044   7.457  1.3389 -1.1363  1.1656
   68SAPC   C39 5794   4.992   2.263   7.489  0.3700  0.7311  0.2612
   68SAPC   H9X 5795   4.888   2.240   7.456 -0.3694 -1.1292  3.7212
   68SAPC   H9Y 5796   5.030   2.357   7.443  0.0299  0.3804 -0.7530
   68SAPC  C310 5797   4.981   2.270   7.642 -0.4625 -0.4251 -0.3283
   68SAPC  H10X 5798   4.912   2.188   7.674 -1.0328  0.2586  0.2159
   68SAPC  H10Y 5799   4.932   2.368   7.660 -1.0646 -0.9753  1.1288
   68SAPC  C311 5800   5.113   2.243   7.720 -0.0857 -0.0790  0.5892
   68SAPC  H11X 5801   5.182   2.320   7.680 -0.6288  0.1522  0.0778
   68SAPC  H11Y 5802   5.146   2.141   7.693 -0.0897  0.2383 -0.6396
   68SAPC  C312 5803   5.095   2.269   7.875  0.1612 -0.7118 -0.6749
   68SAPC  H12X 5804   5.014   2.344   7.884  0.4142 -0.4098 -0.9069
   68SAPC  H12Y 5805   5.185   2.323   7.912 -0.1976  0.3313 -1.3080
   68SAPC  C313 5806   5.071   2.142   7.958  1.1022  0.4620 -0.0287
   68SAPC  H13X 5807   5.144   2.064   7.927  2.0169 -0.7179  4.7003
   68SAPC  H13Y 5808   4.971   2.093   7.945  0.2809  2.3904 -1.2043
   68SAPC  C314 5809   5.078   2.181   8.104  0.4003 -0.3089 -0.0587
   68SAPC  H14X 5810   4.976   2.220   8.123 -0.3995 -2.6381  0.6752
   68SAPC  H14Y 5811   5.161   2.250   8.130 -0.0177  0.0033  0.4530
   68SAPC  C315 5812   5.102   2.054   8.191 -0.4023 -0.0612  0.2046
   68SAPC  H15X 5813   5.032   1.976   8.153 -1.3433  2.8151 -4.3639
   68SAPC  H15Y 5814   5.075   2.060   8.298 -2.5751  2.3288 -0.4521
   68SAPC  C316 5815   5.246   2.010   8.181  0.0667  0.2932 -0.0769
   68SAPC  H16X 5816   5.305   2.045   8.269  2.7353  0.2280 -1.7658
   68SAPC  H16Y 5817   5.294   2.053   8.091 -0.0186 -1.6984 -1.0984
   68SAPC  C317 5818   5.270   1.855   8.159  0.1768  0.2229  1.1359
   68SAPC  H17X 5819   5.226   1.838   8.058 -0.2034 -1.2671  1.5501
   68SAPC  H17Y 5820   5.226   1.801   8.246 -0.1734 -3.2938 -1.1324
   68SAPC  C318 5821   5.421   1.824   8.154 -0.2916  0.1044 -0.7332
   68SAPC  H18X 5822   5.454   1.810   8.259 -1.3576 -0.4897 -0.4725
   68SAPC  H18Y 5823   5.485   1.910   8.122 -0.3336  0.5971  0.4726
   68SAPC  H18Z 5824   5.453   1.732   8.101  1.1886  0.4636 -0.5011
   69SLPC     N 5825   2.346   0.478  11.247 -0.1104 -1.0165 -0.0261
   69SLPC   C13 5826   2.254   0.523  11.129 -0.3341 -0.4069  0.5029
   69SLPC  H13A 5827   2.151   0.528  11.161 -0.9708  0.0326 -1.5668
   69SLPC  H13B 5828   2.299   0.605  11.075 -0.0651 -0.9499 -0.0950
   69SLPC  H13C 5829   2.260   0.443  11.057  1.7661 -0.2376  0.4403
   69SLPC   C14 5830   2.281   0.367  11.320 -0.5313  0.0761 -0.2100
   69SLPC  H14A 5831   2.282   0.277  11.262 -2.6129  1.3596 -2.3326
   69SLPC  H14B 5832   2.336   0.343  11.410 -1.9565  0.5798  0.8143
   69SLPC  H14C 5833   2.181   0.398  11.345  0.1023  2.1518 -0.1163
   69SLPC   C15 5834   2.351   0.600  11.331 -0.2829 -0.3794 -0.0600
   69SLPC  H15A 5835   2.403   0.680  11.281 -0.9565 -0.1804 -0.4503
   69SLPC  H15B 5836   2.251   0.635  11.355 -0.9448 -0.4437 -2.5783
   69SLPC  H15C 5837   2.402   0.586  11.425  0.4585  0.2885 -0.3551
   69SLPC   C12 5838   2.483   0.451  11.192 -0.2959 -0.5003  0.3726
   69SLPC  H12A 5839   2.555   0.452  11.272  0.9044  1.8033 -0.6604
   69SLPC  H12B 5840   2.514   0.539  11.137 -1.2881 -0.3370  0.0630
   69SLPC   C11 5841   2.494   0.329  11.100 -0.2879  0.8373 -0.5806
   69SLPC  H11A 5842   2.438   0.248  11.152  0.4778 -1.0773 -2.6421
   69SLPC  H11B 5843   2.602   0.304  11.094  0.1729  1.8555  2.3450
   69SLPC     P 5844   2.527   0.429  10.863 -0.0208 -0.1096  0.3000
   69SLPC   O13 5845   2.537   0.578  10.897 -0.6656 -0.2954  0.1963
   69SLPC   O14 5846   2.651   0.356  10.838  0.4511 -0.2056 -0.2443
   69SLPC   O12 5847   2.436   0.348  10.968 -0.1750 -0.0207  0.3213
   69SLPC   O11 5848   2.442   0.417  10.729 -0.3770  0.4194 -0.2672
   69SLPC    C1 5849   2.387   0.298  10.681 -0.0790  0.3323 -0.0432
   69SLPC    HA 5850   2.361   0.227  10.762  0.1856  0.3845  0.0872
   69SLPC    HB 5851   2.284   0.311  10.640 -0.1951  0.5874  0.3273
   69SLPC    C2 5852   2.479   0.233  10.586  0.0427 -0.0204  0.2479
   69SLPC    HS 5853   2.576   0.208  10.634  1.6224  3.6886 -0.8455
   69SLPC   O21 5854   2.522   0.325  10.482 -0.0143 -0.1166 -0.6607
   69SLPC   C21 5855   2.622   0.282  10.410 -0.4638  0.0032  0.1452
   69SLPC   O22 5856   2.711   0.209  10.446 -0.3355  0.4468  0.0448
   69SLPC   C22 5857   2.618   0.366  10.284 -1.0900  0.2855  0.1683
   69SLPC   H2R 5858   2.516   0.349  10.243 -2.1494 -1.5611  3.3971
   69SLPC   H2S 5859   2.621   0.474  10.309  3.3986 -0.4446  3.3565
   69SLPC    C3 5860   2.399   0.114  10.519  0.1464  0.3960  1.0554
   69SLPC    HX 5861   2.303   0.159  10.486  0.3855  0.4096  0.3879
   69SLPC    HY 5862   2.384   0.045  10.605  0.3836  1.2876  1.8291
   69SLPC   O31 5863   2.467   0.038  10.420 -0.0660 -0.4390 -0.4119
   69SLPC   C31 5864   2.425   0.061  10.300  0.6944 -0.1468 -0.3322
   69SLPC   O32 5865   2.339   0.135  10.259  0.0707 -0.2301  0.6069
   69SLPC   C32 5866   2.496  -0.043  10.212  0.7205 -0.5049  0.2111
   69SLPC   H2X 5867   2.456  -0.144  10.234  1.0904 -0.7119 -0.0480
   69SLPC   H2Y 5868   2.603  -0.045  10.242  0.5880 -1.5804  0.6171
   69SLPC   C23 5869   2.741   0.337  10.185  0.9118 -0.3086 -0.1766
   69SLPC   H3R 5870   2.773   0.231  10.187 -0.5402 -0.7461  2.7924
   69SLPC   H3S 5871   2.826   0.404  10.209 -0.2063  1.3456 -0.7780
   69SLPC   C24 5872   2.703   0.390  10.044 -0.0676 -0.8390 -0.9273
   69SLPC   H4R 5873   2.697   0.500  10.057  1.3187 -0.7118 -1.2597
   69SLPC   H4S 5874   2.603   0.350  10.018 -0.8210  0.2623  0.2036
   69SLPC   C25 5875   2.812   0.354   9.940  0.2138 -0.8929 -0.2289
   69SLPC   H5R 5876   2.815   0.243   9.939 -1.9643 -0.9688  0.0590
   69SLPC   H5S 5877   2.905   0.402   9.977 -1.7118  1.9472  1.1086
   69SLPC   C26 5878   2.782   0.396   9.792  0.9092 -0.7686  0.2586
   69SLPC   H6R 5879   2.795   0.506   9.791 -3.3296 -0.2099  0.4384
   69SLPC   H6S 5880   2.677   0.367   9.774  0.4655  0.6077  0.6027
   69SLPC   C27 5881   2.874   0.314   9.698 -0.5383  0.0320 -0.5447
   69SLPC   H7R 5882   2.851   0.206   9.697 -1.3015  0.1480  2.0140
   69SLPC   H7S 5883   2.982   0.331   9.721 -0.9125  1.1541  0.4060
   69SLPC   C28 5884   2.860   0.357   9.547  0.1022  0.1096 -0.4860
   69SLPC   H8R 5885   2.755   0.345   9.513 -0.7165  1.9172  1.2907
   69SLPC   H8S 5886   2.921   0.287   9.487  0.7069 -0.5413  0.8687
   69SLPC   C29 5887   2.899   0.499   9.520  0.2543  0.2731  0.3852
   69SLPC   H9R 5888   2.935   0.556   9.607  0.7489  1.7385 -0.7379
   69SLPC  C210 5889   2.893   0.560   9.401  0.1341 -0.0876  0.6757
   69SLPC  H10R 5890   2.929   0.664   9.401 -1.2282  0.4047  2.8524
   69SLPC  C211 5891   2.853   0.502   9.268 -0.1380  0.4955  0.6388
   69SLPC  H11R 5892   2.749   0.525   9.238  0.4098  1.7844 -0.3127
   69SLPC  H11S 5893   2.858   0.392   9.280 -1.8445  0.3560  0.1215
   69SLPC  C212 5894   2.953   0.539   9.164  0.0041  0.1864 -0.5102
   69SLPC  H12R 5895   3.036   0.469   9.152 -1.5968 -1.8387  0.0032
   69SLPC  C213 5896   2.958   0.650   9.083 -0.2280  0.3336  0.3769
   69SLPC  H13R 5897   3.047   0.651   9.019 -1.0346 -0.5463 -0.7930
   69SLPC  C214 5898   2.858   0.763   9.082  0.4854 -0.2688  0.2644
   69SLPC  H14R 5899   2.919   0.853   9.059  2.9331 -2.0004 -0.3103
   69SLPC  H14S 5900   2.807   0.788   9.177  0.1700  1.5377 -0.3721
   69SLPC  C215 5901   2.752   0.758   8.960  0.0730  0.3262  0.2023
   69SLPC  H15R 5902   2.729   0.866   8.947 -0.1466  0.5546  2.3743
   69SLPC  H15S 5903   2.661   0.698   8.985  0.4090 -0.6660 -0.9256
   69SLPC  C216 5904   2.809   0.700   8.829 -0.3160  0.0752  0.1963
   69SLPC  H16R 5905   2.834   0.595   8.854  1.6427  1.2848  3.5828
   69SLPC  H16S 5906   2.906   0.747   8.802  0.0559 -1.2995 -0.9149
   69SLPC  C217 5907   2.712   0.705   8.721 -0.5956  0.4918  0.1314
   69SLPC  H17R 5908   2.673   0.809   8.712  2.1303  1.6313  0.9558
   69SLPC  H17S 5909   2.620   0.654   8.758 -0.5184 -0.4667 -0.9577
   69SLPC  C218 5910   2.758   0.655   8.586  0.4100 -0.4691  0.0620
   69SLPC  H18R 5911   2.671   0.682   8.522 -0.1709  2.9478  2.1589
   69SLPC  H18S 5912   2.785   0.547   8.589  1.2959 -0.2421  0.3733
   69SLPC  H18T 5913   2.848   0.713   8.553 -0.9408  0.0346 -2.9485
   69SLPC   C33 5914   2.506  -0.004  10.058 -0.0891 -0.6164 -0.6692
   69SLPC   H3X 5915   2.566   0.090  10.046 -2.9556  1.1628 -1.5600
   69SLPC   H3Y 5916   2.411   0.013  10.004  1.0968  2.2596 -1.9786
   69SLPC   C34 5917   2.577  -0.117   9.983 -0.9612 -0.1481  0.4244
   69SLPC   H4X 5918   2.542  -0.214  10.026  0.0269  0.1215  1.8735
   69SLPC   H4Y 5919   2.685  -0.103  10.002 -0.6855  1.5242 -2.2146
   69SLPC   C35 5920   2.566  -0.127   9.834  0.1880 -0.3668  0.3594
   69SLPC   H5X 5921   2.614  -0.035   9.794 -3.0949  1.4406  0.4074
   69SLPC   H5Y 5922   2.461  -0.115   9.797  0.0429 -2.2071  0.0919
   69SLPC   C36 5923   2.618  -0.256   9.782 -0.2540  0.3935 -0.4086
   69SLPC   H6X 5924   2.566  -0.333   9.842  2.1027 -1.1906 -0.3013
   69SLPC   H6Y 5925   2.724  -0.264   9.814 -0.2141 -0.4367 -0.7470
   69SLPC   C37 5926   2.604  -0.263   9.630 -0.2029  0.6203 -0.4318
   69SLPC   H7X 5927   2.651  -0.176   9.579 -2.0878  0.2712 -2.8943
   69SLPC   H7Y 5928   2.496  -0.268   9.603 -0.7033  2.5354  1.1230
   69SLPC   C38 5929   2.675  -0.390   9.570  0.1772 -0.1445  0.1274
   69SLPC   H8X 5930   2.635  -0.480   9.622  3.3636 -1.7403 -0.0440
   69SLPC   H8Y 5931   2.783  -0.383   9.594  0.5494  3.7745 -2.2499
   69SLPC   C39 5932   2.654  -0.389   9.418 -0.0053  0.5962  0.1972
   69SLPC   H9X 5933   2.690  -0.293   9.375  1.4969  0.2202  0.5732
   69SLPC   H9Y 5934   2.548  -0.406   9.391  0.3586 -2.1254  0.2824
   69SLPC  C310 5935   2.726  -0.498   9.334 -0.2206  0.0316  0.1382
   69SLPC  H10X 5936   2.696  -0.600   9.367 -0.9906  0.1958 -0.0513
   69SLPC  H10Y 5937   2.836  -0.487   9.338 -0.2561  0.3277  0.2910
   69SLPC  C311 5938   2.681  -0.498   9.184 -0.5378 -0.6374 -0.0702
   69SLPC  H11X 5939   2.576  -0.534   9.195 -0.0932 -2.6592 -2.2697
   69SLPC  H11Y 5940   2.740  -0.571   9.125 -0.5565  0.0350 -0.9233
   69SLPC  C312 5941   2.679  -0.362   9.113  0.5057 -0.2945  0.2198
   69SLPC  H12X 5942   2.773  -0.304   9.109  1.4246 -1.7257  0.6877
   69SLPC  H12Y 5943   2.612  -0.299   9.175 -0.7496 -1.9080  0.5507
   69SLPC  C313 5944   2.629  -0.360   8.968 -0.4819  0.8245  0.3553
   69SLPC  H13X 5945   2.610  -0.256   8.935 -0.8616  0.2291 -1.3632
   69SLPC  H13Y 5946   2.536  -0.418   8.955  1.6493 -2.3047 -1.5150
   69SLPC  C314 5947   2.737  -0.415   8.876  0.2718  0.1813  0.0293
   69SLPC  H14X 5948   2.780  -0.498   8.935 -0.5520  0.6486  1.3004
   69SLPC  H14Y 5949   2.820  -0.345   8.850  0.2416  0.9208  1.8417
   69SLPC  C315 5950   2.679  -0.485   8.751 -0.3498  0.5018 -0.0820
   69SLPC  H15X 5951   2.588  -0.543   8.775 -0.4686  0.5283 -0.4675
   69SLPC  H15Y 5952   2.758  -0.557   8.720  0.5296 -0.2597  3.5872
   69SLPC  C316 5953   2.644  -0.397   8.629 -0.0416 -0.0596 -0.0910
   69SLPC  H16X 5954   2.562  -0.328   8.655 -0.8990 -1.8583  2.1249
   69SLPC  H16Y 5955   2.613  -0.478   8.559  1.5164 -1.4207  0.7396
   69SLPC  C317 5956   2.760  -0.312   8.567  0.2395 -0.2002 -0.0381
   69SLPC  H17X 5957   2.850  -0.377   8.557  0.4163  0.2502 -1.5096
   69SLPC  H17Y 5958   2.789  -0.239   8.645  0.6032  0.9878 -1.2778
   69SLPC  C318 5959   2.726  -0.232   8.436  0.1335 -0.5770  0.3193
   69SLPC  H18X 5960   2.684  -0.309   8.368  0.8268 -2.1938  1.6581
   69SLPC  H18Y 5961   2.814  -0.180   8.393 -0.6401 -1.0855 -1.9450
   69SLPC  H18Z 5962   2.645  -0.159   8.459  0.5383  0.0149 -0.1270
   70SLPC     N 5963   3.635   4.921  10.932  0.2188 -0.0192  0.4159
   70SLPC   C13 5964   3.618   5.052  10.869 -0.0162  0.1873 -0.1342
   70SLPC  H13A 5965   3.711   5.080  10.822 -0.8223  0.3647 -1.6517
   70SLPC  H13B 5966   3.547   5.063  10.789 -2.8096  1.7505  2.4530
   70SLPC  H13C 5967   3.590   5.132  10.936 -2.2346 -1.3568  0.8907
   70SLPC   C14 5968   3.735   4.945  11.035 -0.1762 -0.8605  0.1474
   70SLPC  H14A 5969   3.755   4.856  11.093  0.3604  0.8556  2.7221
   70SLPC  H14B 5970   3.835   4.974  11.005 -0.9508 -0.3282 -1.9694
   70SLPC  H14C 5971   3.688   5.016  11.102  2.7788  1.2066  0.1256
   70SLPC   C15 5972   3.692   4.831  10.834  0.1398  0.4798  0.8188
   70SLPC  H15A 5973   3.620   4.779  10.772 -1.0088  1.1013  1.6155
   70SLPC  H15B 5974   3.769   4.875  10.772 -0.1703  0.0303  0.1139
   70SLPC  H15C 5975   3.740   4.745  10.879  3.2967  2.9230  2.4016
   70SLPC   C12 5976   3.511   4.867  10.996  1.0688  0.3556  0.1443
   70SLPC  H12A 5977   3.439   4.857  10.916  0.8035  2.2493  0.1218
   70SLPC  H12B 5978   3.464   4.943  11.056  0.3250 -0.0779  0.1115
   70SLPC   C11 5979   3.510   4.733  11.080 -0.2039 -0.0045  0.0248
   70SLPC  H11A 5980   3.408   4.701  11.112 -0.1433  0.8583  1.1165
   70SLPC  H11B 5981   3.555   4.747  11.181  1.0049  1.6096 -0.7170
   70SLPC     P 5982   3.493   4.541  10.904  0.4938 -0.2056  0.4679
   70SLPC   O13 5983   3.570   4.430  10.835 -0.2109 -0.7712 -1.1092
   70SLPC   O14 5984   3.367   4.495  10.970 -0.5497  0.3686 -0.2061
   70SLPC   O12 5985   3.576   4.623  11.011  0.4872 -0.2488 -0.4403
   70SLPC   O11 5986   3.457   4.648  10.791  0.2620 -0.1502  0.4423
   70SLPC    C1 5987   3.350   4.633  10.698  0.4194  0.0476 -0.2014
   70SLPC    HA 5988   3.253   4.624  10.752  2.2670 -0.9756  3.0634
   70SLPC    HB 5989   3.334   4.729  10.644 -2.0783  0.0502  0.4891
   70SLPC    C2 5990   3.371   4.523  10.590 -0.4687  0.5004  0.2794
   70SLPC    HS 5991   3.412   4.437  10.647  0.5789  1.7380  1.4361
   70SLPC   O21 5992   3.472   4.567  10.497 -0.0454  0.1092  0.0646
   70SLPC   C21 5993   3.525   4.475  10.426  0.3116  0.2707 -0.1972
   70SLPC   O22 5994   3.499   4.353  10.440  0.2843 -0.4674  0.4133
   70SLPC   C22 5995   3.609   4.535  10.308 -0.5205 -0.0615 -0.4538
   70SLPC   H2R 5996   3.527   4.595  10.263 -0.7564 -1.1545 -1.5133
   70SLPC   H2S 5997   3.696   4.588  10.351 -0.8374 -0.0313  0.1460
   70SLPC    C3 5998   3.234   4.483  10.529 -0.9462  0.3738 -0.3016
   70SLPC    HX 5999   3.178   4.422  10.603  0.3198  1.3600  1.5149
   70SLPC    HY 6000   3.247   4.412  10.444 -1.3313  2.9353 -2.5704
   70SLPC   O31 6001   3.150   4.591  10.491  0.5334 -0.1317 -0.3302
   70SLPC   C31 6002   3.160   4.632  10.360  0.2779  0.6461  0.0694
   70SLPC   O32 6003   3.238   4.574  10.283  0.3445 -0.0729 -1.0401
   70SLPC   C32 6004   3.061   4.733  10.320 -0.7833 -0.2176  0.7922
   70SLPC   H2X 6005   3.085   4.833  10.360 -2.5038  1.5917 -2.4529
   70SLPC   H2Y 6006   2.959   4.708  10.355 -2.3716  3.6272 -0.8045
   70SLPC   C23 6007   3.671   4.422  10.219 -0.2511 -0.7274 -0.1320
   70SLPC   H3R 6008   3.586   4.368  10.172 -1.6942  2.1442 -0.9087
   70SLPC   H3S 6009   3.746   4.356  10.268  1.7159  1.8127  0.3527
   70SLPC   C24 6010   3.753   4.486  10.103 -0.8885 -0.0731  0.3978
   70SLPC   H4R 6011   3.840   4.547  10.136 -0.1515 -1.7047  1.5217
   70SLPC   H4S 6012   3.673   4.557  10.072 -1.5525 -0.8306  0.3508
   70SLPC   C25 6013   3.799   4.383  10.005 -0.3922  0.6014 -0.0869
   70SLPC   H5R 6014   3.721   4.306   9.987 -0.8602  1.5876 -2.4080
   70SLPC   H5S 6015   3.888   4.337  10.054 -0.9960  1.2531  1.6663
   70SLPC   C26 6016   3.859   4.443   9.876  0.4461 -0.3973 -0.7863
   70SLPC   H6R 6017   3.960   4.480   9.903 -0.0155 -1.4996  2.7636
   70SLPC   H6S 6018   3.786   4.518   9.838  1.6022  1.4268  0.4971
   70SLPC   C27 6019   3.862   4.331   9.770 -0.6179  0.7686  0.0666
   70SLPC   H7R 6020   3.758   4.294   9.756 -0.8848  1.9026 -1.0072
   70SLPC   H7S 6021   3.927   4.252   9.813  1.5384  3.3212  1.6848
   70SLPC   C28 6022   3.921   4.376   9.636  0.5067 -0.7476  0.8069
   70SLPC   H8R 6023   4.020   4.422   9.655  0.8440 -0.4928 -1.4953
   70SLPC   H8S 6024   3.864   4.468   9.609  0.4989 -0.2052  2.5975
   70SLPC   C29 6025   3.910   4.273   9.522  0.8014 -0.3802  0.5801
   70SLPC   H9R 6026   3.839   4.190   9.529  0.9591 -0.6704 -0.9377
   70SLPC  C210 6027   3.993   4.260   9.409 -0.1429 -0.6420 -0.1887
   70SLPC  H10R 6028   3.989   4.186   9.328  2.1546 -0.6540 -0.3213
   70SLPC  C211 6029   4.105   4.356   9.388  0.3258 -0.7761  0.1351
   70SLPC  H11R 6030   4.193   4.300   9.349  0.5225 -0.5991  0.3251
   70SLPC  H11S 6031   4.154   4.389   9.482  0.5812  4.6150 -1.7586
   70SLPC  C212 6032   4.067   4.473   9.296  0.0289 -0.2638  0.0452
   70SLPC  H12R 6033   4.010   4.454   9.204 -2.0301 -0.1526  1.2929
   70SLPC  C213 6034   4.099   4.600   9.323  0.0802 -0.2422  0.6845
   70SLPC  H13R 6035   4.070   4.679   9.252  0.8595  0.2412  0.8891
   70SLPC  C214 6036   4.184   4.650   9.441  0.6007 -0.4646  0.1571
   70SLPC  H14R 6037   4.276   4.590   9.463  0.9249 -0.2987 -0.7466
   70SLPC  H14S 6038   4.112   4.638   9.525  0.9004 -1.3982  0.2866
   70SLPC  C215 6039   4.225   4.799   9.415 -0.1163 -0.5468  0.1157
   70SLPC  H15R 6040   4.129   4.854   9.406  1.8289  3.3499  1.9615
   70SLPC  H15S 6041   4.276   4.801   9.317 -0.1015 -1.3430  0.1046
   70SLPC  C216 6042   4.313   4.853   9.526 -0.4769  0.7317  0.2388
   70SLPC  H16R 6043   4.340   4.955   9.493 -0.6038  0.8264  0.4293
   70SLPC  H16S 6044   4.410   4.799   9.529 -0.8415  0.0741  0.2204
   70SLPC  C217 6045   4.261   4.837   9.666  0.0299  0.1144 -0.7902
   70SLPC  H17R 6046   4.252   4.726   9.674 -1.9670  0.2320 -1.2785
   70SLPC  H17S 6047   4.159   4.881   9.666 -0.3135 -0.6599 -0.6994
   70SLPC  C218 6048   4.338   4.888   9.787 -0.1683  0.7549 -0.8000
   70SLPC  H18R 6049   4.349   4.998   9.789  0.7443  0.6545  0.1085
   70SLPC  H18S 6050   4.442   4.849   9.783  0.1655  1.7165 -2.0922
   70SLPC  H18T 6051   4.296   4.851   9.883  0.0607 -3.2733 -2.1437
   70SLPC   C33 6052   3.048   4.746  10.162 -0.2739 -0.0196  0.3386
   70SLPC   H3X 6053   3.153   4.739  10.126 -0.1575  0.1920  0.6379
   70SLPC   H3Y 6054   3.008   4.843  10.127 -2.3694 -1.0109 -0.0859
   70SLPC   C34 6055   2.969   4.619  10.107 -0.8390 -0.2534 -0.4138
   70SLPC   H4X 6056   2.864   4.623  10.143 -0.9339  0.3115 -0.7515
   70SLPC   H4Y 6057   3.016   4.530  10.153 -0.0002  0.2711 -0.2558
   70SLPC   C35 6058   2.988   4.610   9.957  0.2810 -0.6450  0.1874
   70SLPC   H5X 6059   3.097   4.604   9.934  1.1051 -1.5145  3.9855
   70SLPC   H5Y 6060   2.938   4.699   9.914  1.8877  0.1631 -0.0547
   70SLPC   C36 6061   2.925   4.487   9.896 -0.4587 -0.6702  0.4523
   70SLPC   H6X 6062   2.818   4.491   9.923 -0.4596  0.3027  0.2975
   70SLPC   H6Y 6063   2.971   4.391   9.929 -0.1035 -1.2655 -1.6851
   70SLPC   C37 6064   2.939   4.491   9.740  0.2802 -0.3427 -0.0582
   70SLPC   H7X 6065   3.048   4.494   9.716  0.3240 -0.4001  0.1296
   70SLPC   H7Y 6066   2.901   4.587   9.700  0.2865 -0.0717  0.5662
   70SLPC   C38 6067   2.879   4.374   9.664 -0.2950 -0.0140  0.1760
   70SLPC   H8X 6068   2.771   4.363   9.690 -0.9141  1.0270 -1.8310
   70SLPC   H8Y 6069   2.932   4.288   9.710  1.8406  1.0711 -0.2222
   70SLPC   C39 6070   2.896   4.388   9.514 -0.0744  0.6168 -0.2911
   70SLPC   H9X 6071   3.005   4.409   9.513 -0.1837  1.5660  2.4167
   70SLPC   H9Y 6072   2.832   4.472   9.480 -1.8027 -0.8248 -0.6950
   70SLPC  C310 6073   2.875   4.261   9.433  0.9222  0.0473 -0.4710
   70SLPC  H10X 6074   2.770   4.226   9.445  1.6713 -1.6013  1.6961
   70SLPC  H10Y 6075   2.934   4.174   9.470  0.2931  0.6117  1.9247
   70SLPC  C311 6076   2.903   4.284   9.285  0.5371 -0.6486  0.1225
   70SLPC  H11X 6077   3.011   4.309   9.274  0.4736 -0.6857 -0.5845
   70SLPC  H11Y 6078   2.853   4.378   9.254  0.8244 -0.4403  0.2810
   70SLPC  C312 6079   2.864   4.165   9.186  0.2366  0.4870 -0.0739
   70SLPC  H12X 6080   2.756   4.143   9.205  0.8453 -0.7475  2.1806
   70SLPC  H12Y 6081   2.922   4.079   9.227 -2.1251 -2.2934 -2.3509
   70SLPC  C313 6082   2.888   4.196   9.036 -0.0465  0.4038  0.3641
   70SLPC  H13X 6083   2.996   4.216   9.025 -0.1676  0.2779 -1.1788
   70SLPC  H13Y 6084   2.829   4.279   8.993 -0.9449  0.2589  1.2903
   70SLPC  C314 6085   2.859   4.066   8.946 -0.1281 -0.3546  0.4052
   70SLPC  H14X 6086   2.892   3.972   8.994 -0.0745 -1.1942 -1.2570
   70SLPC  H14Y 6087   2.908   4.072   8.847 -2.9593  0.9532 -0.9806
   70SLPC  C315 6088   2.709   4.052   8.921 -0.5425 -0.5777 -0.1596
   70SLPC  H15X 6089   2.685   4.147   8.869  1.4704 -0.4795 -0.9878
   70SLPC  H15Y 6090   2.651   4.060   9.015 -0.7745 -1.6607 -0.2059
   70SLPC  C316 6091   2.678   3.932   8.833  0.4760  0.1024 -0.2678
   70SLPC  H16X 6092   2.576   3.890   8.849  1.9006 -2.6941  1.9116
   70SLPC  H16Y 6093   2.750   3.853   8.862  1.1216  0.8962  0.3377
   70SLPC  C317 6094   2.691   3.964   8.686  0.4341  0.5179 -0.3411
   70SLPC  H17X 6095   2.780   4.021   8.652 -0.1802 -0.3382 -3.5242
   70SLPC  H17Y 6096   2.608   4.031   8.654  1.1268  1.9775  0.8512
   70SLPC  C318 6097   2.679   3.828   8.610 -0.0937 -0.3894 -0.2881
   70SLPC  H18X 6098   2.673   3.845   8.501 -1.1553 -2.9899 -0.6686
   70SLPC  H18Y 6099   2.593   3.766   8.645  1.2320 -3.7074 -2.7122
   70SLPC  H18Z 6100   2.766   3.769   8.642 -1.1185 -1.6554  0.2017
   71SLPC     N 6101   2.924   2.371  10.880  0.7320  0.8382  0.0142
   71SLPC   C13 6102   2.997   2.243  10.902  0.1206  0.4392  0.1280
   71SLPC  H13A 6103   3.033   2.233  11.003  1.2056 -2.3090 -0.4758
   71SLPC  H13B 6104   2.933   2.158  10.886  0.8098  0.2185 -1.6482
   71SLPC  H13C 6105   3.090   2.248  10.846  0.4101  2.4111  0.7684
   71SLPC   C14 6106   3.023   2.482  10.900 -0.4464  0.0384 -0.0876
   71SLPC  H14A 6107   2.988   2.573  10.855 -0.8924 -0.2025 -0.2343
   71SLPC  H14B 6108   3.040   2.507  11.003  1.3538  1.6257 -0.7487
   71SLPC  H14C 6109   3.111   2.452  10.845 -0.9536  1.8355 -1.9520
   71SLPC   C15 6110   2.818   2.383  10.986 -0.3253  0.0340 -0.3359
   71SLPC  H15A 6111   2.861   2.389  11.085  1.6009 -0.8563 -1.0909
   71SLPC  H15B 6112   2.777   2.480  10.965  0.0232 -0.0712 -1.5428
   71SLPC  H15C 6113   2.742   2.307  10.977 -1.0888  0.5566  1.5493
   71SLPC   C12 6114   2.866   2.390  10.745 -0.3379 -0.6354 -0.8758
   71SLPC  H12A 6115   2.802   2.305  10.730  0.0892 -1.4710  1.7060
   71SLPC  H12B 6116   2.945   2.382  10.672  0.9017  0.2161  0.3441
   71SLPC   C11 6117   2.764   2.499  10.714 -0.0738  0.1526 -0.0388
   71SLPC  H11A 6118   2.670   2.492  10.773 -0.3969 -1.9903 -0.7894
   71SLPC  H11B 6119   2.742   2.490  10.606 -0.6728 -0.7074  0.1563
   71SLPC     P 6120   2.749   2.763  10.730 -0.2405  0.5018  0.1584
   71SLPC   O13 6121   2.640   2.779  10.831 -0.1455 -0.1551  0.0986
   71SLPC   O14 6122   2.840   2.876  10.711  0.6813  0.3673 -0.1363
   71SLPC   O12 6123   2.821   2.629  10.750  0.0301 -0.3308 -0.2835
   71SLPC   O11 6124   2.676   2.742  10.591  0.3586 -0.0013 -0.3700
   71SLPC    C1 6125   2.731   2.746  10.465  0.3269  0.3416  0.4887
   71SLPC    HA 6126   2.842   2.743  10.471  0.4503 -0.2130 -1.4520
   71SLPC    HB 6127   2.695   2.659  10.405  2.9873 -1.4598  1.3854
   71SLPC    C2 6128   2.700   2.871  10.378 -0.2128  0.2333  0.8478
   71SLPC    HS 6129   2.589   2.875  10.369 -0.1470  1.1979  0.3554
   71SLPC   O21 6130   2.753   2.866  10.245  0.2335 -0.2125 -0.1015
   71SLPC   C21 6131   2.682   2.798  10.155  0.2150  0.0815 -0.1543
   71SLPC   O22 6132   2.572   2.746  10.174  0.0508 -0.1193 -0.7577
   71SLPC   C22 6133   2.758   2.784  10.024  0.0833  0.5837 -0.3377
   71SLPC   H2R 6134   2.860   2.828  10.032  2.0026 -3.5222 -0.9528
   71SLPC   H2S 6135   2.781   2.683   9.984  0.8531  0.0024  1.5170
   71SLPC    C3 6136   2.752   2.995  10.455  0.2222 -0.1210  0.5209
   71SLPC    HX 6137   2.857   2.974  10.483  1.2809  2.3613 -1.3744
   71SLPC    HY 6138   2.686   3.009  10.544  0.5174 -0.3842  0.7783
   71SLPC   O31 6139   2.733   3.115  10.378  0.1687  0.1251 -0.1675
   71SLPC   C31 6140   2.843   3.185  10.355 -0.0140  0.2516  1.1280
   71SLPC   O32 6141   2.947   3.189  10.418 -0.1654 -0.3263 -0.2734
   71SLPC   C32 6142   2.818   3.278  10.238 -0.7180  0.1549 -0.1127
   71SLPC   H2X 6143   2.831   3.382  10.277 -1.8279  0.7574 -1.3252
   71SLPC   H2Y 6144   2.711   3.276  10.208 -0.8550  0.3788  0.3569
   71SLPC   C23 6145   2.681   2.860   9.912  0.0841 -0.5396 -0.1402
   71SLPC   H3R 6146   2.686   2.967   9.943  1.8600 -0.6717  0.0838
   71SLPC   H3S 6147   2.579   2.819   9.903 -0.3633  0.5761 -0.2399
   71SLPC   C24 6148   2.742   2.852   9.779 -0.3575 -0.0620  0.4365
   71SLPC   H4R 6149   2.773   2.748   9.756 -1.9118 -0.6927  1.1405
   71SLPC   H4S 6150   2.832   2.916   9.768  0.3668 -1.1277  0.0336
   71SLPC   C25 6151   2.654   2.902   9.663  0.2746 -0.1719 -0.0056
   71SLPC   H5R 6152   2.594   2.981   9.712 -0.7952 -0.4331 -0.8504
   71SLPC   H5S 6153   2.584   2.821   9.632 -1.0684  1.3301 -1.0204
   71SLPC   C26 6154   2.727   2.965   9.538 -0.3140  0.2202  0.1133
   71SLPC   H6R 6155   2.790   3.048   9.575  0.6131  1.2904 -3.6194
   71SLPC   H6S 6156   2.642   2.992   9.471 -2.0834 -1.5195  1.5968
   71SLPC   C27 6157   2.823   2.872   9.469 -0.9384  0.7151 -0.1739
   71SLPC   H7R 6158   2.786   2.768   9.484  1.5137  0.0802  1.9161
   71SLPC   H7S 6159   2.921   2.878   9.521 -0.4967  0.8124 -1.0038
   71SLPC   C28 6160   2.846   2.903   9.319  0.5389  0.3623  0.7244
   71SLPC   H8R 6161   2.873   3.010   9.308  2.6513 -0.1371  0.9916
   71SLPC   H8S 6162   2.747   2.890   9.268 -0.2851 -0.9447  2.5999
   71SLPC   C29 6163   2.949   2.820   9.254 -0.7646  0.2018  0.2005
   71SLPC   H9R 6164   3.039   2.807   9.316 -1.3748  0.9860  1.2842
   71SLPC  C210 6165   2.952   2.778   9.129 -0.0190 -0.6823  0.4796
   71SLPC  H10R 6166   3.042   2.720   9.101  1.5211  0.9422  1.9899
   71SLPC  C211 6167   2.832   2.793   9.028  0.3549 -0.0645 -0.5515
   71SLPC  H11R 6168   2.736   2.757   9.071 -0.3913  0.0707 -2.0506
   71SLPC  H11S 6169   2.853   2.723   8.944  2.4184 -1.3075  0.9404
   71SLPC  C212 6170   2.814   2.934   8.974  0.3100 -0.6676 -0.4255
   71SLPC  H12R 6171   2.905   2.990   9.001  0.7226 -1.3863 -0.3197
   71SLPC  C213 6172   2.705   2.973   8.894 -0.1212  0.4355 -0.1502
   71SLPC  H13R 6173   2.698   3.080   8.869 -2.8053 -0.3474 -2.9530
   71SLPC  C214 6174   2.593   2.880   8.845 -0.0914 -0.6572  0.2732
   71SLPC  H14R 6175   2.492   2.924   8.855 -0.7591 -2.2632  0.7715
   71SLPC  H14S 6176   2.585   2.779   8.891 -2.3562  0.0808  1.5938
   71SLPC  C215 6177   2.604   2.856   8.700 -0.5158 -0.5185  0.3282
   71SLPC  H15R 6178   2.539   2.772   8.668  0.2180 -0.4133 -1.4842
   71SLPC  H15S 6179   2.706   2.825   8.672  0.1189 -0.0667  2.0792
   71SLPC  C216 6180   2.555   2.976   8.615  0.0016 -0.5618 -0.8706
   71SLPC  H16R 6181   2.590   3.077   8.646 -3.8768  0.6709 -0.2728
   71SLPC  H16S 6182   2.447   2.982   8.641  0.3099  1.0824  0.1244
   71SLPC  C217 6183   2.588   2.958   8.468 -0.4188 -0.0346  1.0613
   71SLPC  H17R 6184   2.537   2.873   8.419  3.0576 -1.0876 -0.9058
   71SLPC  H17S 6185   2.698   2.944   8.468 -0.6499 -2.3048 -1.8188
   71SLPC  C218 6186   2.563   3.090   8.388 -0.0721 -0.3897  0.3766
   71SLPC  H18R 6187   2.619   3.172   8.436  1.0942 -1.1264  0.2810
   71SLPC  H18S 6188   2.454   3.113   8.385  0.2560  1.1034 -0.9163
   71SLPC  H18T 6189   2.601   3.067   8.286 -1.9376  1.7866 -0.8546
   71SLPC   C33 6190   2.924   3.247  10.123  0.7163  0.0117  0.1357
   71SLPC   H3X 6191   2.917   3.148  10.074 -1.2045 -0.2001  0.8140
   71SLPC   H3Y 6192   3.023   3.258  10.172  1.1074 -2.4564 -0.0412
   71SLPC   C34 6193   2.918   3.343  10.008 -0.0054  0.0908 -0.4052
   71SLPC   H4X 6194   2.989   3.316   9.926  1.3217  0.2591  0.6721
   71SLPC   H4Y 6195   2.914   3.450  10.038 -0.6521 -0.1416  0.3519
   71SLPC   C35 6196   2.771   3.339   9.947 -0.1174  0.1574 -0.3368
   71SLPC   H5X 6197   2.699   3.365  10.028 -0.7772 -3.5501  0.3522
   71SLPC   H5Y 6198   2.738   3.239   9.912  2.3659  0.3012 -3.2415
   71SLPC   C36 6199   2.756   3.438   9.831  0.0228 -0.1373 -0.1016
   71SLPC   H6X 6200   2.818   3.524   9.863  0.4670 -0.5987  0.2788
   71SLPC   H6Y 6201   2.648   3.463   9.827  0.7192  2.9062 -0.8886
   71SLPC   C37 6202   2.803   3.398   9.692  0.1557  0.3239 -0.2786
   71SLPC   H7X 6203   2.730   3.317   9.670 -0.2993  0.8962 -0.9156
   71SLPC   H7Y 6204   2.907   3.359   9.694  0.3043  0.7322  0.1356
   71SLPC   C38 6205   2.779   3.509   9.594 -0.5682  0.4524  0.0718
   71SLPC   H8X 6206   2.868   3.575   9.586  0.7349 -1.2852  0.0755
   71SLPC   H8Y 6207   2.704   3.579   9.638 -0.3584  1.0583 -0.5259
   71SLPC   C39 6208   2.759   3.469   9.440  0.4983  0.3661 -0.0886
   71SLPC   H9X 6209   2.759   3.551   9.365  0.0668  0.0995 -0.3845
   71SLPC   H9Y 6210   2.651   3.445   9.430  1.0815 -0.8504 -4.2744
   71SLPC  C310 6211   2.846   3.348   9.387 -0.7562  0.1478 -0.4654
   71SLPC  H10X 6212   2.811   3.258   9.441 -0.6450  0.2919 -0.1515
   71SLPC  H10Y 6213   2.951   3.368   9.415 -0.9300 -1.2496  1.2471
   71SLPC  C311 6214   2.829   3.313   9.236 -0.3158 -0.2827  0.1763
   71SLPC  H11X 6215   2.721   3.318   9.210 -0.4698  1.7357  1.1099
   71SLPC  H11Y 6216   2.863   3.209   9.218  1.3146 -0.3616  3.4489
   71SLPC  C312 6217   2.907   3.408   9.140 -0.5459  0.5574 -0.2291
   71SLPC  H12X 6218   3.015   3.386   9.153 -0.2746  0.3724 -2.6166
   71SLPC  H12Y 6219   2.874   3.506   9.181 -1.6958 -0.0720  0.3714
   71SLPC  C313 6220   2.888   3.398   8.987 -0.4141 -0.7688 -0.1125
   71SLPC  H13X 6221   2.885   3.288   8.974  0.3623 -0.6872 -1.0805
   71SLPC  H13Y 6222   2.979   3.442   8.940 -0.2342 -1.2889 -0.2515
   71SLPC  C314 6223   2.760   3.462   8.924 -0.0773  1.5691  0.7041
   71SLPC  H14X 6224   2.734   3.562   8.963 -0.3940  1.8317 -0.1912
   71SLPC  H14Y 6225   2.685   3.390   8.964  0.5603  0.8449  0.6341
   71SLPC  C315 6226   2.760   3.464   8.768 -0.4032 -0.1874 -0.7378
   71SLPC  H15X 6227   2.857   3.420   8.736  1.1940  0.7469  2.5100
   71SLPC  H15Y 6228   2.768   3.570   8.738 -1.0089  0.7628  2.2348
   71SLPC  C316 6229   2.635   3.396   8.704 -0.0989  0.9245 -0.9821
   71SLPC  H16X 6230   2.642   3.285   8.697  1.3225  1.0381 -1.6186
   71SLPC  H16Y 6231   2.636   3.421   8.596 -2.2440  1.3728 -0.9298
   71SLPC  C317 6232   2.495   3.427   8.760  0.3788 -0.3544  0.1018
   71SLPC  H17X 6233   2.481   3.536   8.741 -3.3736 -0.5309  1.2709
   71SLPC  H17Y 6234   2.498   3.411   8.870  0.4229  1.2625  0.3491
   71SLPC  C318 6235   2.378   3.354   8.698 -0.1066  0.3281  0.2926
   71SLPC  H18X 6236   2.361   3.398   8.597 -0.2870  1.0735  0.6412
   71SLPC  H18Y 6237   2.287   3.384   8.756 -1.8817  3.0247 -3.6593
   71SLPC  H18Z 6238   2.386   3.243   8.693  1.4583  0.3986  1.1221
   72SLPC     N 6239   4.106   1.991  10.729  0.0822  0.1898  0.1892
   72SLPC   C13 6240   4.225   2.057  10.784  0.3115 -0.1205  0.7489
   72SLPC  H13A 6241   4.197   2.110  10.873 -0.1501 -0.0032  0.5333
   72SLPC  H13B 6242   4.304   1.989  10.812 -0.2459 -0.3845  1.6955
   72SLPC  H13C 6243   4.268   2.124  10.712 -1.7343  0.1217 -0.2773
   72SLPC   C14 6244   3.987   2.083  10.732 -0.1793  0.0995 -0.4519
   72SLPC  H14A 6245   3.988   2.163  10.660 -1.6114 -0.1286 -0.7296
   72SLPC  H14B 6246   3.899   2.021  10.728 -0.2146  0.0042  1.2568
   72SLPC  H14C 6247   3.985   2.129  10.830 -0.6293  0.2341 -0.5263
   72SLPC   C15 6248   4.078   1.880  10.829  0.5592  0.3248 -0.0505
   72SLPC  H15A 6249   4.166   1.817  10.836 -1.1425 -1.9533  1.7679
   72SLPC  H15B 6250   4.059   1.922  10.926 -1.3540 -1.3371  0.3224
   72SLPC  H15C 6251   3.979   1.839  10.810  1.3677 -0.4670 -2.7502
   72SLPC   C12 6252   4.124   1.939  10.595  0.1586 -0.1519 -0.6491
   72SLPC  H12A 6253   4.136   2.019  10.523 -0.7838 -0.0744 -0.7269
   72SLPC  H12B 6254   4.031   1.892  10.568 -1.2701  2.2854 -0.0708
   72SLPC   C11 6255   4.234   1.837  10.560 -0.2668 -0.7012  0.5879
   72SLPC  H11A 6256   4.327   1.887  10.597 -1.4620  1.2768  0.9685
   72SLPC  H11B 6257   4.239   1.838  10.449 -0.7616  0.1382  0.5682
   72SLPC     P 6258   4.106   1.609  10.572  0.2877 -0.4181 -0.5317
   72SLPC   O13 6259   4.122   1.470  10.621  0.0961  0.5093 -0.3028
   72SLPC   O14 6260   3.974   1.677  10.606  0.2516 -0.2633 -0.2747
   72SLPC   O12 6261   4.225   1.705  10.624 -0.5734 -0.1164  0.2224
   72SLPC   O11 6262   4.128   1.622  10.416 -0.1342 -0.2421  0.0010
   72SLPC    C1 6263   4.224   1.532  10.357  0.1460 -0.2880  0.1748
   72SLPC    HA 6264   4.287   1.475  10.429 -0.0884  0.1719  0.7469
   72SLPC    HB 6265   4.162   1.469  10.289 -0.0550  1.0543 -0.9010
   72SLPC    C2 6266   4.329   1.612  10.270  0.3223 -0.3432 -0.5304
   72SLPC    HS 6267   4.358   1.711  10.312 -1.4356  0.1193 -0.3401
   72SLPC   O21 6268   4.271   1.642  10.145  0.0805 -0.0544  0.0741
   72SLPC   C21 6269   4.347   1.670  10.038 -0.5348  0.0815  0.0704
   72SLPC   O22 6270   4.463   1.706  10.042  0.1429 -0.2516 -0.1425
   72SLPC   C22 6271   4.271   1.634   9.906 -0.5015  0.1489  0.1657
   72SLPC   H2R 6272   4.229   1.531   9.910  0.4247 -0.2214  0.4856
   72SLPC   H2S 6273   4.195   1.713   9.891 -0.5980  0.0689  0.2289
   72SLPC    C3 6274   4.461   1.528  10.266 -0.3273  0.2526  0.0827
   72SLPC    HX 6275   4.478   1.511  10.374  2.1299  0.5587 -0.2401
   72SLPC    HY 6276   4.546   1.591  10.232 -0.1562  1.6505  2.9704
   72SLPC   O31 6277   4.439   1.413  10.184  0.3127  0.7468  0.1711
   72SLPC   C31 6278   4.504   1.305  10.223  0.1415  0.2201  0.3019
   72SLPC   O32 6279   4.567   1.297  10.328 -0.2910 -0.4922 -0.1131
   72SLPC   C32 6280   4.482   1.181  10.139 -0.2123 -0.0015 -0.4948
   72SLPC   H2X 6281   4.413   1.110  10.189 -1.4772  1.9137  0.5479
   72SLPC   H2Y 6282   4.588   1.146  10.137  0.2439  1.3102  0.0796
   72SLPC   C23 6283   4.370   1.637   9.786  0.4177 -0.5284  0.0381
   72SLPC   H3R 6284   4.439   1.554   9.814  0.8755 -0.4870 -0.9434
   72SLPC   H3S 6285   4.426   1.733   9.785 -0.5163  0.0312 -2.0139
   72SLPC   C24 6286   4.317   1.618   9.647  0.6285 -0.2942  0.2548
   72SLPC   H4R 6287   4.240   1.696   9.628  0.0349 -0.9833 -0.2022
   72SLPC   H4S 6288   4.260   1.523   9.642 -1.1197  0.5429  2.8906
   72SLPC   C25 6289   4.434   1.630   9.549  0.2835  0.1703 -0.2801
   72SLPC   H5R 6290   4.504   1.546   9.560  1.4973  1.0610 -1.0411
   72SLPC   H5S 6291   4.492   1.723   9.568  0.0079  0.1200  0.8666
   72SLPC   C26 6292   4.381   1.634   9.406  0.1557 -0.5704 -0.4770
   72SLPC   H6R 6293   4.390   1.737   9.367 -0.3316  0.2897  1.5688
   72SLPC   H6S 6294   4.270   1.619   9.405  0.1646 -0.6125 -1.5382
   72SLPC   C27 6295   4.448   1.529   9.306 -0.4455 -0.0711  0.1001
   72SLPC   H7R 6296   4.448   1.429   9.354  2.1455  2.1682  5.1520
   72SLPC   H7S 6297   4.555   1.556   9.288 -0.7664  0.5923 -0.8581
   72SLPC   C28 6298   4.379   1.524   9.171  0.6333 -0.1086 -0.0076
   72SLPC   H8R 6299   4.387   1.623   9.123 -0.4567  0.4544  0.9423
   72SLPC   H8S 6300   4.269   1.519   9.167  0.6341 -0.3342  0.2513
   72SLPC   C29 6301   4.436   1.416   9.082 -0.0438 -0.1238 -0.0921
   72SLPC   H9R 6302   4.396   1.314   9.080 -1.7513  0.5250  0.2469
   72SLPC  C210 6303   4.549   1.443   9.010  0.2225 -0.5438 -0.1309
   72SLPC  H10R 6304   4.588   1.363   8.945 -1.7650 -0.8974 -0.9032
   72SLPC  C211 6305   4.617   1.584   9.005 -0.1665  0.5582 -0.0573
   72SLPC  H11R 6306   4.611   1.639   9.101 -3.5875 -1.8855  1.2234
   72SLPC  H11S 6307   4.573   1.651   8.928  0.6121 -1.2949 -2.2111
   72SLPC  C212 6308   4.766   1.568   8.979 -0.3150  0.1698  0.2774
   72SLPC  H12R 6309   4.835   1.601   9.058 -0.3278  1.3699 -0.1994
   72SLPC  C213 6310   4.830   1.529   8.860  0.2659  0.0342 -0.1326
   72SLPC  H13R 6311   4.939   1.525   8.850  0.4363 -2.4612  2.1520
   72SLPC  C214 6312   4.766   1.494   8.725 -0.1145  0.1656 -0.3016
   72SLPC  H14R 6313   4.655   1.496   8.729 -0.0790  1.1211  0.6716
   72SLPC  H14S 6314   4.800   1.393   8.694 -1.7674 -0.5567  0.1855
   72SLPC  C215 6315   4.813   1.587   8.610 -0.5598 -0.0152  0.4051
   72SLPC  H15R 6316   4.924   1.585   8.619 -0.4596  1.4547 -0.2816
   72SLPC  H15S 6317   4.772   1.689   8.630  0.4687  0.6556 -0.8179
   72SLPC  C216 6318   4.780   1.538   8.470 -0.2199 -0.7550 -1.0818
   72SLPC  H16R 6319   4.670   1.523   8.462 -0.2593  0.0796 -2.1340
   72SLPC  H16S 6320   4.826   1.439   8.449  0.4428 -0.9217  0.9821
   72SLPC  C217 6321   4.823   1.637   8.363 -0.4129 -0.5073  0.1158
   72SLPC  H17R 6322   4.932   1.651   8.378 -0.5894  1.2464 -0.1039
   72SLPC  H17S 6323   4.767   1.730   8.386  0.2550 -0.1301  0.2195
   72SLPC  C218 6324   4.796   1.578   8.232  0.2803  0.7315  0.1519
   72SLPC  H18R 6325   4.818   1.659   8.159 -0.9923  2.1506  1.2921
   72SLPC  H18S 6326   4.687   1.565   8.214  0.6292 -0.5355 -1.0447
   72SLPC  H18T 6327   4.864   1.494   8.207  1.5699  1.7943  0.0192
   72SLPC   C33 6328   4.433   1.220   9.994  0.4483  0.2887 -0.7675
   72SLPC   H3X 6329   4.486   1.315   9.970 -0.7060  1.8479  2.5391
   72SLPC   H3Y 6330   4.324   1.238  10.005  1.0516  1.1646  5.2432
   72SLPC   C34 6331   4.446   1.116   9.888 -0.3246 -0.0903  0.3498
   72SLPC   H4X 6332   4.365   1.123   9.812  0.7044 -1.4328 -0.9206
   72SLPC   H4Y 6333   4.434   1.017   9.937 -1.6450 -1.4385 -2.5281
   72SLPC   C35 6334   4.592   1.118   9.817  0.2775 -0.4035 -0.5179
   72SLPC   H5X 6335   4.597   1.043   9.735 -1.0940 -0.4158 -0.5961
   72SLPC   H5Y 6336   4.672   1.092   9.889  0.0844 -1.2617 -0.6012
   72SLPC   C36 6337   4.629   1.255   9.759 -0.2497  0.1522  0.1919
   72SLPC   H6X 6338   4.646   1.327   9.842  1.0944  0.0962 -0.0251
   72SLPC   H6Y 6339   4.542   1.291   9.699  1.1157  3.3992  0.0838
   72SLPC   C37 6340   4.740   1.245   9.658 -0.0626  0.3376  0.4084
   72SLPC   H7X 6341   4.716   1.167   9.582  0.4734  0.4888  0.0790
   72SLPC   H7Y 6342   4.830   1.199   9.705 -0.9857 -2.1187 -0.1285
   72SLPC   C38 6343   4.768   1.365   9.580  0.1000 -0.8213  0.9560
   72SLPC   H8X 6344   4.799   1.452   9.641  0.0431  0.8924 -1.4095
   72SLPC   H8Y 6345   4.673   1.397   9.533 -1.3905 -2.7063  2.5601
   72SLPC   C39 6346   4.873   1.345   9.470 -0.3564  0.4961  0.2416
   72SLPC   H9X 6347   4.963   1.288   9.501 -0.1154  0.2312 -0.9230
   72SLPC   H9Y 6348   4.916   1.442   9.436  0.6501 -0.7548 -2.2315
   72SLPC  C310 6349   4.822   1.282   9.343 -0.0103  0.0433  0.0245
   72SLPC  H10X 6350   4.726   1.336   9.330  0.0866  0.1915 -0.0706
   72SLPC  H10Y 6351   4.802   1.175   9.366  0.7414  0.0588  0.7745
   72SLPC  C311 6352   4.929   1.288   9.231 -0.2562 -0.2627 -0.0975
   72SLPC  H11X 6353   5.027   1.247   9.263  0.5892  2.2995  0.7356
   72SLPC  H11Y 6354   4.949   1.391   9.193 -1.2115 -0.1844 -0.3926
   72SLPC  C312 6355   4.880   1.212   9.107  1.1371 -0.1132  0.1560
   72SLPC  H12X 6356   4.786   1.261   9.073  0.5720 -1.8655 -0.9317
   72SLPC  H12Y 6357   4.854   1.110   9.144 -0.7790 -0.2167 -1.3496
   72SLPC  C313 6358   4.976   1.204   8.984  1.0003 -0.0873  0.1197
   72SLPC  H13X 6359   5.059   1.140   9.019 -1.0530 -1.5067  2.5405
   72SLPC  H13Y 6360   5.018   1.302   8.952 -2.8858  0.5706 -3.4629
   72SLPC  C314 6361   4.900   1.137   8.859 -0.6448  0.2553 -0.3198
   72SLPC  H14X 6362   4.810   1.198   8.832  0.3010  1.3978 -0.9283
   72SLPC  H14Y 6363   4.877   1.034   8.894 -1.4045  0.2055 -0.9430
   72SLPC  C315 6364   4.980   1.117   8.727 -0.1583 -0.7079  0.1602
   72SLPC  H15X 6365   5.057   1.040   8.749  3.0970  1.3622 -3.2963
   72SLPC  H15Y 6366   5.024   1.219   8.718 -2.2435  0.1407 -0.6644
   72SLPC  C316 6367   4.898   1.073   8.609 -0.6354  0.6313 -0.0503
   72SLPC  H16X 6368   4.801   1.125   8.596 -2.0048 -1.9260 -0.1975
   72SLPC  H16Y 6369   4.871   0.970   8.640  0.7699  0.1917 -0.2515
   72SLPC  C317 6370   4.987   1.058   8.485 -0.0290 -0.4300  0.5159
   72SLPC  H17X 6371   4.923   0.996   8.419 -0.3902  1.2449 -0.7360
   72SLPC  H17Y 6372   5.073   0.998   8.522  1.1272  1.1853  0.5110
   72SLPC  C318 6373   5.040   1.186   8.431 -0.2441  0.3848  0.0667
   72SLPC  H18X 6374   4.965   1.263   8.403 -0.2396 -0.2639 -1.7757
   72SLPC  H18Y 6375   5.105   1.166   8.343 -0.5226 -1.9967  0.3689
   72SLPC  H18Z 6376   5.101   1.244   8.503 -0.2370  0.8754 -0.3332
   73SLPC     N 6377   5.009   0.081  10.687 -0.2110 -0.3270 -0.1187
   73SLPC   C13 6378   5.115   0.054  10.589 -0.3021 -0.9301 -0.1527
   73SLPC  H13A 6379   5.087   0.076  10.487  2.5106 -1.7820 -1.1641
   73SLPC  H13B 6380   5.202   0.113  10.609 -0.1684 -1.2117  0.0904
   73SLPC  H13C 6381   5.145  -0.050  10.591  1.8179 -0.3089  0.6878
   73SLPC   C14 6382   4.985   0.227  10.692 -0.4120 -0.8493 -0.3274
   73SLPC  H14A 6383   4.934   0.272  10.609 -3.9952  1.0763  2.7561
   73SLPC  H14B 6384   4.924   0.244  10.780  2.1616  1.7682  1.0499
   73SLPC  H14C 6385   5.075   0.283  10.715 -0.2917 -0.7250 -1.1028
   73SLPC   C15 6386   5.055   0.040  10.818 -0.1557 -1.3538 -0.4926
   73SLPC  H15A 6387   4.975   0.076  10.881 -0.3196  1.2785 -2.1670
   73SLPC  H15B 6388   5.074  -0.066  10.832 -0.1241 -0.9393  2.9708
   73SLPC  H15C 6389   5.141   0.095  10.852 -0.9043 -0.9738  0.8201
   73SLPC   C12 6390   4.881   0.011  10.649 -0.2662 -0.2265 -0.0961
   73SLPC  H12A 6391   4.842   0.052  10.557 -1.2914 -1.4599 -0.2268
   73SLPC  H12B 6392   4.799   0.040  10.713 -0.3846 -1.1523  0.1786
   73SLPC   C11 6393   4.879  -0.148  10.638 -0.2694 -0.2470 -0.3287
   73SLPC  H11A 6394   4.951  -0.192  10.566  0.1972 -2.2273  1.2906
   73SLPC  H11B 6395   4.778  -0.169  10.596 -0.2472 -1.3995  0.1572
   73SLPC     P 6396   4.770  -0.208  10.877  0.3053 -0.3268  0.3188
   73SLPC   O13 6397   4.820  -0.268  11.000 -0.0388  0.0505 -0.5499
   73SLPC   O14 6398   4.720  -0.069  10.886 -0.2694  0.9713 -0.5799
   73SLPC   O12 6399   4.885  -0.214  10.768  0.1036 -0.3202 -0.0057
   73SLPC   O11 6400   4.649  -0.291  10.813 -0.1159  0.3903  0.0942
   73SLPC    C1 6401   4.657  -0.432  10.789  0.8707  0.4202 -0.2750
   73SLPC    HA 6402   4.758  -0.475  10.805 -0.3049 -1.9940  1.0512
   73SLPC    HB 6403   4.593  -0.478  10.868  1.4303 -1.4129 -0.8552
   73SLPC    C2 6404   4.615  -0.457  10.641 -0.3030 -0.3130  0.8569
   73SLPC    HS 6405   4.693  -0.400  10.586 -0.4044  0.0197  1.0539
   73SLPC   O21 6406   4.480  -0.403  10.625 -0.2289  0.4527 -0.3472
   73SLPC   C21 6407   4.471  -0.285  10.562  0.0883 -0.2280 -0.2512
   73SLPC   O22 6408   4.562  -0.223  10.509 -0.2475 -0.4889  0.1626
   73SLPC   C22 6409   4.334  -0.222  10.591 -1.1010  0.3203 -0.2432
   73SLPC   H2R 6410   4.332  -0.201  10.700  1.1357  0.6975 -0.2452
   73SLPC   H2S 6411   4.340  -0.124  10.540  0.8081  0.8612  0.9830
   73SLPC    C3 6412   4.615  -0.609  10.609  0.0375  0.1073  0.6567
   73SLPC    HX 6413   4.532  -0.649  10.671 -1.9037  0.7724 -1.4104
   73SLPC    HY 6414   4.715  -0.650  10.633 -0.9095 -1.3605  2.2176
   73SLPC   O31 6415   4.579  -0.614  10.461  0.4811  0.4778 -0.0207
   73SLPC   C31 6416   4.485  -0.708  10.422 -0.6230  0.2384 -1.4185
   73SLPC   O32 6417   4.431  -0.785  10.500  0.5322 -0.3239 -0.3516
   73SLPC   C32 6418   4.493  -0.729  10.270  0.4668 -0.3667 -0.9615
   73SLPC   H2X 6419   4.520  -0.836  10.260 -0.9402 -0.7293 -1.0765
   73SLPC   H2Y 6420   4.574  -0.671  10.221  1.3410 -2.1826 -1.6964
   73SLPC   C23 6421   4.220  -0.308  10.534 -0.3709  0.0959  0.1594
   73SLPC   H3R 6422   4.123  -0.254  10.535 -0.4184  0.0199 -0.3619
   73SLPC   H3S 6423   4.213  -0.400  10.597  1.1459 -0.3979 -0.3602
   73SLPC   C24 6424   4.245  -0.347  10.385 -0.2059 -0.2113  0.8554
   73SLPC   H4R 6425   4.165  -0.422  10.365 -0.5917  0.8068 -1.5601
   73SLPC   H4S 6426   4.342  -0.398  10.365  0.5260  1.5757 -0.3136
   73SLPC   C25 6427   4.258  -0.230  10.287  0.9904  0.1348  1.2624
   73SLPC   H5R 6428   4.348  -0.177  10.324  0.8916  1.6892 -0.6783
   73SLPC   H5S 6429   4.168  -0.166  10.300 -0.8567 -1.9329 -0.9706
   73SLPC   C26 6430   4.287  -0.264  10.143 -0.1405 -0.6408 -0.0421
   73SLPC   H6R 6431   4.213  -0.335  10.102 -0.9348 -0.0241  0.3232
   73SLPC   H6S 6432   4.379  -0.325  10.158  0.1977  0.3542  2.0616
   73SLPC   C27 6433   4.312  -0.147  10.043 -0.1192 -0.5638 -0.4920
   73SLPC   H7R 6434   4.410  -0.097  10.059  0.4697 -1.8541  0.0876
   73SLPC   H7S 6435   4.238  -0.067  10.060  0.2871 -0.0546 -1.1164
   73SLPC   C28 6436   4.301  -0.189   9.895  0.6907  0.7447  0.3385
   73SLPC   H8R 6437   4.195  -0.220   9.879 -0.2915  3.2978  1.6477
   73SLPC   H8S 6438   4.362  -0.274   9.857 -0.3094  0.7625 -1.3362
   73SLPC   C29 6439   4.321  -0.067   9.809  0.5674 -0.2724  0.2788
   73SLPC   H9R 6440   4.260   0.020   9.838  2.5989  0.9699  0.9762
   73SLPC  C210 6441   4.381  -0.050   9.693 -0.1431  0.6300 -0.3223
   73SLPC  H10R 6442   4.369   0.048   9.646  2.1778 -0.0312 -2.4256
   73SLPC  C211 6443   4.454  -0.156   9.613  0.4526  0.2528  0.6222
   73SLPC  H11R 6444   4.374  -0.221   9.571 -0.5163  0.8708  1.5020
   73SLPC  H11S 6445   4.517  -0.215   9.683 -0.4402  0.2797  1.4591
   73SLPC  C212 6446   4.540  -0.097   9.502  0.2151  0.2877 -0.1454
   73SLPC  H12R 6447   4.631  -0.051   9.544  0.3563 -0.5810  0.5205
   73SLPC  C213 6448   4.514  -0.087   9.367  0.1532  1.0832  0.1878
   73SLPC  H13R 6449   4.593  -0.035   9.312  0.2668 -0.1128 -0.8100
   73SLPC  C214 6450   4.397  -0.142   9.283  0.0667  0.7896 -0.3803
   73SLPC  H14R 6451   4.320  -0.180   9.353  2.5486 -1.1270  1.3815
   73SLPC  H14S 6452   4.443  -0.223   9.223  3.3543  0.8654  1.9252
   73SLPC  C215 6453   4.360  -0.044   9.175 -0.1840  0.0642  0.2805
   73SLPC  H15R 6454   4.341   0.054   9.225 -0.1652  1.4666 -2.3577
   73SLPC  H15S 6455   4.265  -0.080   9.130 -1.2341  0.9636  1.7196
   73SLPC  C216 6456   4.456  -0.010   9.058 -0.1986  0.1818  0.1429
   73SLPC  H16R 6457   4.479  -0.103   9.001 -0.6997  0.9842 -1.3941
   73SLPC  H16S 6458   4.551   0.018   9.108  0.2553 -1.2865  0.1295
   73SLPC  C217 6459   4.406   0.092   8.960  0.1579  0.0490  0.1868
   73SLPC  H17R 6460   4.365   0.175   9.022 -1.5023 -0.4576 -0.2252
   73SLPC  H17S 6461   4.334   0.046   8.889  1.1907 -1.3138  0.0057
   73SLPC  C218 6462   4.524   0.149   8.874 -0.7323  0.2169 -0.3513
   73SLPC  H18R 6463   4.489   0.241   8.822 -0.8140  1.7050  2.2687
   73SLPC  H18S 6464   4.579   0.088   8.799  1.4052  2.5287 -0.7554
   73SLPC  H18T 6465   4.598   0.181   8.950 -0.3376  2.0509 -1.4646
   73SLPC   C33 6466   4.359  -0.703  10.188 -0.8002  0.1943 -0.3524
   73SLPC   H3X 6467   4.320  -0.599  10.190  0.1752  0.5870 -1.3743
   73SLPC   H3Y 6468   4.283  -0.773  10.230 -0.8271  0.4385  0.0115
   73SLPC   C34 6469   4.386  -0.740  10.037 -0.1064  0.2121 -0.4767
   73SLPC   H4X 6470   4.296  -0.743   9.972  0.6671  1.6277 -1.6717
   73SLPC   H4Y 6471   4.427  -0.843  10.038 -0.2616  0.1470 -0.7117
   73SLPC   C35 6472   4.488  -0.654   9.976  0.0346 -0.4060  0.2178
   73SLPC   H5X 6473   4.581  -0.657  10.038  0.5709  1.8475 -0.4073
   73SLPC   H5Y 6474   4.456  -0.548   9.972 -0.6606 -0.5758  1.1735
   73SLPC   C36 6475   4.533  -0.680   9.836  0.2608 -0.1873 -0.5487
   73SLPC   H6X 6476   4.512  -0.781   9.794 -0.1785  0.5953 -2.2553
   73SLPC   H6Y 6477   4.643  -0.664   9.831  0.3737  0.2583  2.5404
   73SLPC   C37 6478   4.460  -0.574   9.735 -0.7063  0.2285  0.4057
   73SLPC   H7X 6479   4.490  -0.473   9.771  1.2103 -0.4883  0.8531
   73SLPC   H7Y 6480   4.350  -0.587   9.747 -0.2680 -3.2099  1.3147
   73SLPC   C38 6481   4.503  -0.609   9.590  0.0426  0.2015  0.3412
   73SLPC   H8X 6482   4.516  -0.719   9.581 -2.0235 -0.3676  3.4649
   73SLPC   H8Y 6483   4.609  -0.575   9.585 -0.3101  1.9344  3.1169
   73SLPC   C39 6484   4.416  -0.549   9.477  0.1419 -0.1581 -0.0297
   73SLPC   H9X 6485   4.431  -0.442   9.452 -1.9812  0.4247  1.1119
   73SLPC   H9Y 6486   4.310  -0.546   9.507  0.4203 -0.1655  0.9757
   73SLPC  C310 6487   4.430  -0.627   9.348  0.1202 -0.2189 -0.2875
   73SLPC  H10X 6488   4.402  -0.732   9.370  0.8110 -0.5660 -1.0480
   73SLPC  H10Y 6489   4.533  -0.626   9.306 -0.2881 -1.9157 -1.3771
   73SLPC  C311 6490   4.339  -0.575   9.233  0.1226 -0.1320  0.5102
   73SLPC  H11X 6491   4.358  -0.468   9.211 -0.1415  0.0598  1.1929
   73SLPC  H11Y 6492   4.238  -0.589   9.277  0.9974  0.3657  2.7259
   73SLPC  C312 6493   4.345  -0.672   9.111  0.7603 -0.1059 -0.3737
   73SLPC  H12X 6494   4.260  -0.654   9.041 -1.2693 -0.3910  1.9444
   73SLPC  H12Y 6495   4.333  -0.777   9.145  0.6711 -0.3510 -1.1465
   73SLPC  C313 6496   4.469  -0.647   9.023  0.7458 -0.0883 -0.1400
   73SLPC  H13X 6497   4.554  -0.688   9.082  2.7901  0.5877 -2.5171
   73SLPC  H13Y 6498   4.482  -0.538   9.007 -1.0840 -0.1537 -2.3750
   73SLPC  C314 6499   4.458  -0.707   8.878  0.4067 -0.5708 -0.0056
   73SLPC  H14X 6500   4.380  -0.644   8.831  0.6546 -0.7730 -0.7021
   73SLPC  H14Y 6501   4.428  -0.814   8.885 -0.0631 -0.3426  1.7361
   73SLPC  C315 6502   4.592  -0.710   8.804 -0.5306  0.0578 -0.4250
   73SLPC  H15X 6503   4.660  -0.764   8.873  0.7829 -0.1123 -1.8239
   73SLPC  H15Y 6504   4.631  -0.607   8.796 -1.3419  0.2599 -2.0806
   73SLPC  C316 6505   4.594  -0.796   8.673  0.0362  0.0228 -0.0301
   73SLPC  H16X 6506   4.574  -0.899   8.707  1.5748 -0.1255  0.4774
   73SLPC  H16Y 6507   4.696  -0.778   8.632  0.1203  0.0106  0.1721
   73SLPC  C317 6508   4.489  -0.757   8.569  0.5136  0.2955  0.6333
   73SLPC  H17X 6509   4.487  -0.646   8.568 -0.7263  0.2917  1.2636
   73SLPC  H17Y 6510   4.388  -0.796   8.599  1.5493 -1.6925  1.6933
   73SLPC  C318 6511   4.524  -0.804   8.426 -0.1527 -0.0742 -0.4283
   73SLPC  H18X 6512   4.477  -0.736   8.352 -0.2767  1.3827  0.9496
   73SLPC  H18Y 6513   4.501  -0.912   8.411 -0.7911 -0.0346  0.2431
   73SLPC  H18Z 6514   4.632  -0.785   8.409 -0.5325  3.0469  0.3447
   74SLPC     N 6515   5.706   0.691  10.717 -0.5720  0.1672  0.3165
   74SLPC   C13 6516   5.709   0.826  10.779 -0.0283  0.2960 -0.2068
   74SLPC  H13A 6517   5.744   0.900  10.708  1.3629  0.7687  0.9641
   74SLPC  H13B 6518   5.615   0.867  10.813 -0.4566  0.5026 -1.5976
   74SLPC  H13C 6519   5.783   0.825  10.858 -0.2847 -1.4782  0.0195
   74SLPC   C14 6520   5.633   0.599  10.810 -0.1514 -0.2181 -0.5133
   74SLPC  H14A 6521   5.701   0.576  10.891  0.5188 -1.9421 -1.5428
   74SLPC  H14B 6522   5.547   0.648  10.854  1.5290  0.9611  1.5753
   74SLPC  H14C 6523   5.593   0.506  10.772 -3.3466 -0.4299  2.9902
   74SLPC   C15 6524   5.852   0.651  10.699 -0.2890 -0.0368 -0.1006
   74SLPC  H15A 6525   5.863   0.544  10.688  1.0627 -0.0947  1.5661
   74SLPC  H15B 6526   5.907   0.712  10.628 -0.7315  0.4403 -0.0393
   74SLPC  H15C 6527   5.895   0.681  10.794 -0.6462  0.1933 -0.0085
   74SLPC   C12 6528   5.649   0.687  10.576  0.5353  0.2278 -0.4112
   74SLPC  H12A 6529   5.546   0.717  10.579  1.0797  2.4361 -2.0363
   74SLPC  H12B 6530   5.652   0.588  10.533  3.4696 -0.3637  1.0311
   74SLPC   C11 6531   5.694   0.793  10.474 -0.1119  0.7820 -0.1257
   74SLPC  H11A 6532   5.635   0.773  10.383  0.9265  2.3807 -1.1706
   74SLPC  H11B 6533   5.802   0.776  10.457  0.2662  1.1016  1.8129
   74SLPC     P 6534   5.531   0.993  10.535  0.0895 -0.0704  0.0943
   74SLPC   O13 6535   5.429   0.884  10.555 -0.2114 -0.1758 -0.2955
   74SLPC   O14 6536   5.539   1.100  10.637 -0.1265 -0.1044 -0.1159
   74SLPC   O12 6537   5.673   0.926  10.516 -0.0985  0.1562  0.2324
   74SLPC   O11 6538   5.512   1.060  10.388  0.5983 -0.5593 -0.1039
   74SLPC    C1 6539   5.612   1.136  10.322 -0.3880 -0.0417 -0.6577
   74SLPC    HA 6540   5.690   1.177  10.390 -1.9868  1.0829  0.5344
   74SLPC    HB 6541   5.659   1.076  10.240 -0.1146 -0.4570 -0.2076
   74SLPC    C2 6542   5.549   1.270  10.264  0.3826 -0.5269  0.9752
   74SLPC    HS 6543   5.460   1.242  10.203 -0.0316  2.2066  0.2731
   74SLPC   O21 6544   5.647   1.338  10.188  0.2117 -0.3257 -0.4816
   74SLPC   C21 6545   5.683   1.266  10.077  0.1226 -0.3581  0.5732
   74SLPC   O22 6546   5.631   1.165  10.035 -0.3227 -0.4212  0.1077
   74SLPC   C22 6547   5.776   1.365   9.998  0.2504 -0.1978  0.3032
   74SLPC   H2R 6548   5.717   1.457   9.977  1.1862  0.6662  1.4193
   74SLPC   H2S 6549   5.865   1.390  10.060  2.0507 -2.4322 -1.2936
   74SLPC    C3 6550   5.483   1.365  10.369  0.1299  0.2735 -0.2508
   74SLPC    HX 6551   5.570   1.378  10.438  1.4664 -1.3080 -1.6027
   74SLPC    HY 6552   5.397   1.311  10.413  1.1418 -0.2786  1.1056
   74SLPC   O31 6553   5.435   1.487  10.305  0.2585 -0.4646  0.1859
   74SLPC   C31 6554   5.522   1.589  10.290 -0.6229 -0.2352 -0.0461
   74SLPC   O32 6555   5.625   1.608  10.354 -0.1589  0.3412  0.6651
   74SLPC   C32 6556   5.465   1.694  10.187 -0.3423  0.2997 -0.2583
   74SLPC   H2X 6557   5.385   1.750  10.239 -0.7586 -0.3268 -0.2137
   74SLPC   H2Y 6558   5.420   1.628  10.109  0.8662 -1.1367  0.2283
   74SLPC   C23 6559   5.819   1.300   9.866  0.7030 -0.1754  0.2942
   74SLPC   H3R 6560   5.721   1.271   9.824 -0.0993  0.9932  1.3558
   74SLPC   H3S 6561   5.877   1.206   9.885 -1.4016 -1.6018 -0.2066
   74SLPC   C24 6562   5.887   1.397   9.779 -0.7449 -0.1694 -0.3979
   74SLPC   H4R 6563   5.976   1.431   9.835 -1.4115 -0.8971  1.1207
   74SLPC   H4S 6564   5.810   1.471   9.748 -1.1205 -0.8780 -1.1671
   74SLPC   C25 6565   5.935   1.342   9.643 -0.0485  0.4414  0.2614
   74SLPC   H5R 6566   5.847   1.281   9.612 -0.3147  0.0577  1.7067
   74SLPC   H5S 6567   6.021   1.272   9.651 -0.8438 -0.5006  0.6382
   74SLPC   C26 6568   5.965   1.448   9.543 -0.2144 -0.2757  0.5327
   74SLPC   H6R 6569   6.058   1.498   9.579 -0.1553 -0.1197  0.1698
   74SLPC   H6S 6570   5.898   1.537   9.548  1.2272  0.8358  0.4323
   74SLPC   C27 6571   5.991   1.396   9.406  0.1334 -0.0081 -0.2167
   74SLPC   H7R 6572   5.913   1.323   9.375  0.5675 -0.5863  0.0351
   74SLPC   H7S 6573   6.094   1.353   9.401  0.2938  0.4124 -0.5142
   74SLPC   C28 6574   5.981   1.504   9.297 -0.7601  0.1997 -0.8502
   74SLPC   H8R 6575   6.012   1.458   9.201 -1.9573 -2.5424  0.0057
   74SLPC   H8S 6576   6.053   1.586   9.314  1.4116 -1.8933  0.3515
   74SLPC   C29 6577   5.835   1.543   9.277 -0.7906  0.0697 -0.0092
   74SLPC   H9R 6578   5.796   1.611   9.354  0.4706  0.2136  0.5141
   74SLPC  C210 6579   5.762   1.498   9.171  0.1221 -0.1896 -0.2406
   74SLPC  H10R 6580   5.664   1.548   9.169 -0.2521 -0.9704 -3.2525
   74SLPC  C211 6581   5.795   1.414   9.054 -0.2867 -0.5653 -0.2021
   74SLPC  H11R 6582   5.885   1.350   9.068  0.2445  0.4446  1.1279
   74SLPC  H11S 6583   5.812   1.481   8.967  2.1955  0.8289  1.3126
   74SLPC  C212 6584   5.672   1.329   9.041 -0.0566  0.0692 -0.0865
   74SLPC  H12R 6585   5.577   1.385   9.040 -1.2661 -1.8913  1.3384
   74SLPC  C213 6586   5.658   1.194   9.055 -0.1249 -0.5204 -0.3346
   74SLPC  H13R 6587   5.560   1.147   9.041 -0.3945 -0.6387  1.7884
   74SLPC  C214 6588   5.778   1.100   9.083 -0.6363  0.8246 -0.0206
   74SLPC  H14R 6589   5.756   1.020   9.157  0.3004  1.4674  0.9654
   74SLPC  H14S 6590   5.856   1.165   9.128  1.4519 -0.6921 -1.3502
   74SLPC  C215 6591   5.822   1.027   8.955 -0.3443 -0.4785  0.1836
   74SLPC  H15R 6592   5.743   0.952   8.937  0.1052 -2.2349  4.9397
   74SLPC  H15S 6593   5.904   0.962   8.993 -0.5962  0.2264  2.0008
   74SLPC  C216 6594   5.857   1.108   8.827 -0.2824  0.5397 -0.2797
   74SLPC  H16R 6595   5.919   1.196   8.855 -0.3746  0.9742 -1.4046
   74SLPC  H16S 6596   5.762   1.136   8.775 -1.4262  0.6527  1.8333
   74SLPC  C217 6597   5.950   1.044   8.721  0.4366 -0.0917  0.5247
   74SLPC  H17R 6598   6.048   1.027   8.769 -0.2328 -1.8909  1.3059
   74SLPC  H17S 6599   5.965   1.126   8.648  0.8462 -0.3702  0.2943
   74SLPC  C218 6600   5.897   0.921   8.650 -0.4336  0.4583 -0.0710
   74SLPC  H18R 6601   5.796   0.944   8.610 -0.4865  1.2217  0.5030
   74SLPC  H18S 6602   5.891   0.834   8.718 -1.6394 -0.4238 -1.2617
   74SLPC  H18T 6603   5.963   0.890   8.566 -2.2538  0.1046 -1.4022
   74SLPC   C33 6604   5.563   1.786  10.128 -0.2470  0.3825 -0.2709
   74SLPC   H3X 6605   5.664   1.741  10.118 -0.9950 -1.5384  0.6329
   74SLPC   H3Y 6606   5.576   1.880  10.186  2.0282 -0.2223  0.2277
   74SLPC   C34 6607   5.519   1.843   9.996 -0.2973 -0.4166  0.7384
   74SLPC   H4X 6608   5.597   1.915   9.963  0.3727 -0.7333  1.6111
   74SLPC   H4Y 6609   5.418   1.890   9.993 -0.2534 -0.2537  1.7540
   74SLPC   C35 6610   5.524   1.747   9.874  0.7014 -0.0541 -0.7799
   74SLPC   H5X 6611   5.437   1.678   9.876 -0.1195  1.0162  0.8808
   74SLPC   H5Y 6612   5.615   1.684   9.885  1.2896  0.6250 -1.7154
   74SLPC   C36 6613   5.530   1.827   9.742  0.4741  0.0711 -0.4313
   74SLPC   H6X 6614   5.630   1.875   9.735  1.3900 -1.8440 -0.7679
   74SLPC   H6Y 6615   5.454   1.909   9.736 -1.0514 -1.2851 -0.0450
   74SLPC   C37 6616   5.517   1.755   9.608  0.5646 -0.7155 -0.3994
   74SLPC   H7X 6617   5.427   1.691   9.619  0.9452 -1.4715 -1.5319
   74SLPC   H7Y 6618   5.603   1.686   9.605  0.5335 -0.9215  2.4832
   74SLPC   C38 6619   5.521   1.848   9.483 -0.0700  0.1233  0.1054
   74SLPC   H8X 6620   5.626   1.881   9.465 -0.2617  0.5347 -0.2691
   74SLPC   H8Y 6621   5.442   1.924   9.495  0.7106  0.7450  1.5487
   74SLPC   C39 6622   5.483   1.763   9.353  0.2794  0.1624 -0.4347
   74SLPC   H9X 6623   5.378   1.728   9.365 -0.0739  1.0982 -0.7296
   74SLPC   H9Y 6624   5.549   1.674   9.359 -0.5089 -0.3911  0.0962
   74SLPC  C310 6625   5.507   1.842   9.228 -0.0745  0.0247 -0.8196
   74SLPC  H10X 6626   5.617   1.852   9.226 -0.2090  1.6684 -1.3274
   74SLPC  H10Y 6627   5.451   1.939   9.232 -0.4448 -0.2466  0.8817
   74SLPC  C311 6628   5.458   1.775   9.097 -0.3631  0.5183 -0.2257
   74SLPC  H11X 6629   5.348   1.789   9.104 -0.7626 -2.3076 -0.5296
   74SLPC  H11Y 6630   5.481   1.667   9.106 -1.5224  0.3947  1.4125
   74SLPC  C312 6631   5.513   1.831   8.964 -0.0528 -0.0061 -0.1559
   74SLPC  H12X 6632   5.470   1.933   8.965 -1.2974 -0.5183 -0.8369
   74SLPC  H12Y 6633   5.456   1.770   8.891 -3.7649 -0.2306  2.7761
   74SLPC  C313 6634   5.661   1.831   8.954 -0.0339 -0.0583  0.0534
   74SLPC  H13X 6635   5.717   1.737   8.972  2.3709  1.3180  0.0063
   74SLPC  H13Y 6636   5.690   1.909   9.028 -1.7678  0.6500  0.0117
   74SLPC  C314 6637   5.703   1.900   8.821  1.1146  0.1482 -0.5338
   74SLPC  H14X 6638   5.813   1.885   8.831  0.8733  0.0631  2.3522
   74SLPC  H14Y 6639   5.683   2.009   8.831  0.7134  0.2847 -2.6050
   74SLPC  C315 6640   5.659   1.850   8.681  0.5200 -0.8490  0.2460
   74SLPC  H15X 6641   5.549   1.861   8.668  0.9474  2.0539 -1.2948
   74SLPC  H15Y 6642   5.683   1.741   8.685  2.9116 -0.3236  0.7167
   74SLPC  C316 6643   5.740   1.906   8.568 -0.6862  0.2277  0.7217
   74SLPC  H16X 6644   5.844   1.924   8.602 -0.0873  1.2621 -1.5521
   74SLPC  H16Y 6645   5.698   2.004   8.537 -0.4124  0.3241  0.6527
   74SLPC  C317 6646   5.751   1.808   8.446 -0.0663  0.2066  0.0682
   74SLPC  H17X 6647   5.648   1.771   8.426 -0.1106 -0.0358  0.7183
   74SLPC  H17Y 6648   5.819   1.726   8.478 -0.1546 -0.6758 -1.9851
   74SLPC  C318 6649   5.821   1.870   8.332 -0.3174 -0.0140 -0.1775
   74SLPC  H18X 6650   5.922   1.904   8.361  0.6428 -2.2257 -0.7603
   74SLPC  H18Y 6651   5.774   1.955   8.278  3.7046  2.5062  0.1054
   74SLPC  H18Z 6652   5.834   1.797   8.249  0.2933  0.6470 -0.6647
   75SLPC     N 6653   2.812   4.555   6.389 -0.3777  0.0977 -0.1531
   75SLPC   C13 6654   2.924   4.580   6.487 -0.7042 -0.2412 -0.3808
   75SLPC  H13A 6655   2.952   4.489   6.539 -0.0532  0.4569  0.5191
   75SLPC  H13B 6656   3.014   4.617   6.442  0.3713  2.7212  3.8588
   75SLPC  H13C 6657   2.897   4.661   6.554  0.1464  0.7310 -1.2000
   75SLPC   C14 6658   2.853   4.455   6.291  0.8202 -0.1504  0.4546
   75SLPC  H14A 6659   2.955   4.475   6.263  0.9980  1.9239  2.3998
   75SLPC  H14B 6660   2.864   4.362   6.344 -2.9174  0.3061  2.1959
   75SLPC  H14C 6661   2.786   4.449   6.207  0.4798  2.6740  0.4613
   75SLPC   C15 6662   2.792   4.683   6.310 -0.1568 -0.2751 -0.2287
   75SLPC  H15A 6663   2.765   4.766   6.373 -1.0617 -0.4112 -0.4306
   75SLPC  H15B 6664   2.880   4.711   6.253  0.0070 -0.0519  0.1341
   75SLPC  H15C 6665   2.718   4.664   6.234 -0.4131 -0.3038  0.0294
   75SLPC   C12 6666   2.678   4.520   6.450  0.5355  0.5511  0.1683
   75SLPC  H12A 6667   2.602   4.499   6.376  0.8536 -1.1384  0.3047
   75SLPC  H12B 6668   2.636   4.608   6.496 -1.9993 -1.7850  2.4718
   75SLPC   C11 6669   2.676   4.393   6.534 -0.2021  0.3815 -0.3287
   75SLPC  H11A 6670   2.573   4.378   6.573 -0.3896  0.5700 -0.7580
   75SLPC  H11B 6671   2.743   4.417   6.620  1.0071 -0.0958 -1.1136
   75SLPC     P 6672   2.780   4.144   6.543  0.0627 -0.1219 -0.6417
   75SLPC   O13 6673   2.693   4.041   6.491  0.4642 -0.8495 -0.4983
   75SLPC   O14 6674   2.926   4.124   6.527 -0.6855  0.0775 -0.1615
   75SLPC   O12 6675   2.733   4.276   6.470  0.5438  0.1882 -0.2215
   75SLPC   O11 6676   2.755   4.161   6.691  0.2431 -0.9693  0.2343
   75SLPC    C1 6677   2.633   4.138   6.762 -0.7982 -0.3402 -0.4978
   75SLPC    HA 6678   2.561   4.215   6.726 -0.0612  0.5320 -0.1189
   75SLPC    HB 6679   2.592   4.036   6.747  0.7660 -1.4439  2.4432
   75SLPC    C2 6680   2.648   4.164   6.912 -0.2508 -0.4463  1.5075
   75SLPC    HS 6681   2.687   4.268   6.915 -2.8848  0.5326  3.7977
   75SLPC   O21 6682   2.736   4.069   6.970  0.1861 -0.7610  0.5284
   75SLPC   C21 6683   2.783   4.086   7.092 -0.2229  0.6750  0.2055
   75SLPC   O22 6684   2.757   4.176   7.168  0.2514  0.1534 -0.4029
   75SLPC   C22 6685   2.874   3.962   7.117 -0.1342  0.0754  0.0265
   75SLPC   H2R 6686   2.885   3.902   7.024  0.6906 -0.9597  0.7802
   75SLPC   H2S 6687   2.974   4.006   7.142 -0.9365  1.2022  1.3455
   75SLPC    C3 6688   2.506   4.160   6.983 -0.6316  0.4148  0.3873
   75SLPC    HX 6689   2.433   4.223   6.928 -0.8846 -1.2282 -1.2149
   75SLPC    HY 6690   2.526   4.202   7.083  1.3626 -0.7747  0.5294
   75SLPC   O31 6691   2.457   4.028   6.992 -0.7813  0.2820  0.3457
   75SLPC   C31 6692   2.374   3.986   6.901  0.1731 -0.3283  0.1039
   75SLPC   O32 6693   2.347   4.049   6.798  0.1660  1.1416  0.4264
   75SLPC   C32 6694   2.321   3.847   6.941 -0.0915 -1.1839  0.3153
   75SLPC   H2X 6695   2.363   3.767   6.877  1.6577  0.8260 -1.1349
   75SLPC   H2Y 6696   2.211   3.853   6.926  0.1681 -0.4633 -1.4853
   75SLPC   C23 6697   2.830   3.877   7.230  0.2704 -0.3885 -0.3686
   75SLPC   H3R 6698   2.891   3.785   7.235  0.1004 -0.6257 -2.3415
   75SLPC   H3S 6699   2.731   3.832   7.205  1.4138 -2.5111 -1.1972
   75SLPC   C24 6700   2.829   3.945   7.369  0.1261 -0.0354  0.6616
   75SLPC   H4R 6701   2.751   4.023   7.382 -1.0532 -0.4587 -3.2414
   75SLPC   H4S 6702   2.929   3.993   7.383  0.2249  0.4622 -1.5839
   75SLPC   C25 6703   2.794   3.844   7.478  0.7787 -0.3212 -0.1166
   75SLPC   H5R 6704   2.865   3.759   7.470  1.4068  0.0578  1.2730
   75SLPC   H5S 6705   2.700   3.789   7.458  0.9726 -0.0785 -1.8047
   75SLPC   C26 6706   2.777   3.897   7.624  0.3457 -0.9233  0.0894
   75SLPC   H6R 6707   2.711   3.987   7.627  0.0221 -1.2133  3.2520
   75SLPC   H6S 6708   2.869   3.939   7.668 -0.3878  0.3937  0.3958
   75SLPC   C27 6709   2.725   3.795   7.725 -0.6228  0.3963  0.2135
   75SLPC   H7R 6710   2.781   3.700   7.713 -2.8156 -0.7517 -1.3443
   75SLPC   H7S 6711   2.618   3.776   7.701 -0.2680 -1.5960  0.1887
   75SLPC   C28 6712   2.739   3.843   7.872 -0.1117 -0.3915 -0.0162
   75SLPC   H8R 6713   2.844   3.874   7.889 -1.2596  2.8722  1.5448
   75SLPC   H8S 6714   2.720   3.761   7.944  0.6956 -0.1440  0.4729
   75SLPC   C29 6715   2.640   3.958   7.897 -0.4785  0.1280 -0.0700
   75SLPC   H9R 6716   2.669   4.050   7.845 -0.3277  0.6679  0.9403
   75SLPC  C210 6717   2.530   3.963   7.973 -0.0998  0.8344 -0.9502
   75SLPC  H10R 6718   2.465   4.051   7.967  0.3975  1.1363 -1.9255
   75SLPC  C211 6719   2.478   3.850   8.059 -0.2255  0.1022 -0.4346
   75SLPC  H11R 6720   2.476   3.870   8.168 -1.3447  1.4154 -0.6838
   75SLPC  H11S 6721   2.544   3.761   8.057  1.6082  1.4388 -1.3709
   75SLPC  C212 6722   2.347   3.797   8.013  0.1983  0.4414  0.0009
   75SLPC  H12R 6723   2.354   3.702   7.958 -0.8573  0.2272  0.2311
   75SLPC  C213 6724   2.223   3.851   8.043  0.2488 -0.2855  0.3724
   75SLPC  H13R 6725   2.131   3.801   8.007 -0.2171  1.0429 -0.3309
   75SLPC  C214 6726   2.206   3.983   8.120 -0.2621  0.0066 -0.4337
   75SLPC  H14R 6727   2.117   4.044   8.094  1.0016  0.6887 -3.3251
   75SLPC  H14S 6728   2.292   4.045   8.088 -1.4425  1.6550 -0.4663
   75SLPC  C215 6729   2.201   3.959   8.272 -0.4920  0.2613 -0.9242
   75SLPC  H15R 6730   2.206   4.055   8.329  3.3028 -0.3306 -0.1317
   75SLPC  H15S 6731   2.289   3.899   8.303  0.2790  2.1216  0.6100
   75SLPC  C216 6732   2.067   3.891   8.316 -0.3402 -0.3048  0.2841
   75SLPC  H16R 6733   2.057   3.788   8.277  1.1387  0.1944 -1.5094
   75SLPC  H16S 6734   1.989   3.955   8.269  0.6990  0.5433 -0.3138
   75SLPC  C217 6735   2.037   3.897   8.468  0.0189  0.6022  0.1423
   75SLPC  H17R 6736   1.927   3.879   8.477 -0.1748  1.8410  0.3495
   75SLPC  H17S 6737   2.061   3.999   8.506 -1.6712  0.7484  0.8629
   75SLPC  C218 6738   2.102   3.786   8.554 -0.3538 -0.0645 -0.3387
   75SLPC  H18R 6739   2.212   3.802   8.556 -0.3119 -0.3693 -0.1863
   75SLPC  H18S 6740   2.077   3.688   8.507  1.8722 -0.7335 -0.2118
   75SLPC  H18T 6741   2.064   3.779   8.658  0.2479 -2.2120 -0.2358
   75SLPC   C33 6742   2.337   3.826   7.091  0.2167  0.1606  0.7855
   75SLPC   H3X 6743   2.302   3.723   7.115 -2.9521  1.3169  1.2837
   75SLPC   H3Y 6744   2.446   3.838   7.108  0.6151 -0.2320 -1.2962
   75SLPC   C34 6745   2.246   3.921   7.172  0.0574  0.2672  0.6402
   75SLPC   H4X 6746   2.143   3.888   7.149  1.1854 -2.6658 -0.4236
   75SLPC   H4Y 6747   2.254   4.030   7.151 -1.2043  0.0770 -0.8720
   75SLPC   C35 6748   2.244   3.886   7.319 -0.5323 -0.1174  0.5222
   75SLPC   H5X 6749   2.228   3.778   7.338  0.2033 -0.1840  0.7582
   75SLPC   H5Y 6750   2.160   3.944   7.363 -1.0068  0.4940 -1.1475
   75SLPC   C36 6751   2.374   3.930   7.388 -0.2491 -0.0726  0.3442
   75SLPC   H6X 6752   2.397   4.035   7.359 -1.5625 -0.0352 -0.5951
   75SLPC   H6Y 6753   2.459   3.870   7.349  1.8222  2.7134  0.4144
   75SLPC   C37 6754   2.376   3.913   7.542 -0.4270  0.3573  0.5036
   75SLPC   H7X 6755   2.477   3.937   7.581 -0.0393 -0.9574  0.3310
   75SLPC   H7Y 6756   2.358   3.807   7.574  2.3815 -0.3873 -0.2697
   75SLPC   C38 6757   2.270   3.991   7.622  0.1333 -0.1835  0.4284
   75SLPC   H8X 6758   2.293   3.985   7.731 -0.1047 -2.3566  0.3840
   75SLPC   H8Y 6759   2.174   3.947   7.588  0.3136 -0.2953  0.0695
   75SLPC   C39 6760   2.256   4.143   7.587  0.3927  0.4727  0.4453
   75SLPC   H9X 6761   2.204   4.151   7.489  0.1036  0.6531  0.6122
   75SLPC   H9Y 6762   2.356   4.192   7.582  1.3791 -1.6330 -0.6994
   75SLPC  C310 6763   2.171   4.220   7.685 -0.6589 -1.3233  0.2974
   75SLPC  H10X 6764   2.196   4.165   7.778 -0.1902 -1.3937  0.1314
   75SLPC  H10Y 6765   2.065   4.218   7.650 -0.5294  1.7058 -0.4487
   75SLPC  C311 6766   2.224   4.372   7.689 -0.4906 -0.3645 -1.0684
   75SLPC  H11X 6767   2.145   4.446   7.711  0.4515  1.6358 -4.0859
   75SLPC  H11Y 6768   2.260   4.393   7.586 -2.2909 -0.4337 -1.7307
   75SLPC  C312 6769   2.349   4.399   7.782 -0.2954  0.2135  0.5623
   75SLPC  H12X 6770   2.381   4.505   7.773 -2.9420  0.9043 -1.4679
   75SLPC  H12Y 6771   2.426   4.326   7.750 -0.8508 -1.6697  3.3525
   75SLPC  C313 6772   2.332   4.370   7.936 -0.0915 -0.8353  0.4364
   75SLPC  H13X 6773   2.416   4.409   7.997  1.2723 -0.2870 -1.7419
   75SLPC  H13Y 6774   2.336   4.259   7.945  1.5300 -0.6878  1.8070
   75SLPC  C314 6775   2.197   4.408   7.993 -0.1390 -0.2147  0.7478
   75SLPC  H14X 6776   2.116   4.369   7.927 -1.0408  1.6588  0.7252
   75SLPC  H14Y 6777   2.168   4.515   7.983 -0.5106 -0.3174  0.7052
   75SLPC  C315 6778   2.183   4.353   8.140  0.4414  0.0047  0.2864
   75SLPC  H15X 6779   2.262   4.392   8.209  1.3304 -1.7035  0.2532
   75SLPC  H15Y 6780   2.191   4.242   8.134  2.5836  0.2394 -1.7483
   75SLPC  C316 6781   2.041   4.384   8.192 -0.0314  0.6211 -1.1315
   75SLPC  H16X 6782   1.970   4.345   8.115 -1.3893  0.0902  0.3470
   75SLPC  H16Y 6783   2.028   4.494   8.199  2.7524  0.9013  0.2501
   75SLPC  C317 6784   2.022   4.307   8.324  0.1790  0.5662  0.5785
   75SLPC  H17X 6785   2.103   4.326   8.398  0.9223  1.1135 -0.3583
   75SLPC  H17Y 6786   2.023   4.198   8.305 -0.7197  0.7681 -0.6975
   75SLPC  C318 6787   1.882   4.321   8.385  0.1565  0.0044  0.0901
   75SLPC  H18X 6788   1.860   4.427   8.409 -0.9733 -0.6571  2.0960
   75SLPC  H18Y 6789   1.868   4.260   8.477  1.6662 -0.9882 -0.3119
   75SLPC  H18Z 6790   1.809   4.294   8.306 -0.2210  0.9445  0.1178
   76SLPC     N 6791   4.498   2.866   5.909 -0.2991 -0.1491  0.2586
   76SLPC   C13 6792   4.401   2.757   5.875 -0.7129  0.5755  0.6988
   76SLPC  H13A 6793   4.441   2.668   5.828 -2.0577  0.0833  0.4727
   76SLPC  H13B 6794   4.340   2.722   5.957  0.5214 -2.6805  0.3223
   76SLPC  H13C 6795   4.333   2.810   5.811  0.3184  3.0244  1.5803
   76SLPC   C14 6796   4.426   2.984   5.960  0.5723 -0.8922 -0.4974
   76SLPC  H14A 6797   4.389   2.958   6.059  0.0453 -0.2470 -0.5216
   76SLPC  H14B 6798   4.476   3.079   5.954 -3.8714  1.5952 -0.8191
   76SLPC  H14C 6799   4.334   3.000   5.906 -0.0760 -1.9394  0.2561
   76SLPC   C15 6800   4.555   2.906   5.774  0.5452 -0.3894 -0.1752
   76SLPC  H15A 6801   4.624   2.830   5.739 -0.8370 -2.3186  1.1832
   76SLPC  H15B 6802   4.475   2.920   5.704  0.0052 -0.3109  0.4517
   76SLPC  H15C 6803   4.610   2.998   5.789  0.1224  0.2060 -2.1764
   76SLPC   C12 6804   4.604   2.831   6.015 -0.1821  0.4350 -0.1513
   76SLPC  H12A 6805   4.672   2.914   6.023  1.7072 -1.2532  2.5279
   76SLPC  H12B 6806   4.670   2.760   5.966  0.6396 -0.3197  1.9442
   76SLPC   C11 6807   4.563   2.784   6.156  0.1815  0.5965 -0.3389
   76SLPC  H11A 6808   4.505   2.870   6.197  2.4214  1.4147  1.1975
   76SLPC  H11B 6809   4.655   2.757   6.212 -0.9308  1.2569  1.8708
   76SLPC     P 6810   4.357   2.640   6.243 -0.1353  0.2000 -0.0797
   76SLPC   O13 6811   4.337   2.756   6.332 -0.0915 -0.7393 -0.6738
   76SLPC   O14 6812   4.242   2.586   6.172  0.1500  0.1558 -0.6466
   76SLPC   O12 6813   4.486   2.669   6.135  0.2379  0.2263 -0.4806
   76SLPC   O11 6814   4.423   2.526   6.333 -0.0080  0.4704 -0.4365
   76SLPC    C1 6815   4.555   2.548   6.389  0.0767  0.3978  0.4007
   76SLPC    HA 6816   4.627   2.551   6.305 -1.3309  0.2199 -0.8239
   76SLPC    HB 6817   4.563   2.649   6.436  0.1826  0.3134  0.5666
   76SLPC    C2 6818   4.594   2.432   6.490  0.1451 -0.4727 -0.6252
   76SLPC    HS 6819   4.591   2.333   6.441 -1.5754 -0.0789 -1.3514
   76SLPC   O21 6820   4.507   2.440   6.609  0.0709 -0.1990  0.1515
   76SLPC   C21 6821   4.505   2.327   6.673  0.1901 -0.1286 -0.4669
   76SLPC   O22 6822   4.533   2.219   6.629 -0.1022  0.5118  0.4576
   76SLPC   C22 6823   4.447   2.335   6.813 -0.1215 -0.7751  0.8427
   76SLPC   H2R 6824   4.411   2.233   6.839 -0.2288 -1.0388 -0.3296
   76SLPC   H2S 6825   4.528   2.357   6.886  0.7695  0.7492 -0.5795
   76SLPC    C3 6826   4.739   2.451   6.542  0.1217 -0.6193 -0.2866
   76SLPC    HX 6827   4.787   2.455   6.442 -2.0988  1.2345 -1.3068
   76SLPC    HY 6828   4.781   2.359   6.589  0.1481 -0.2901  0.3364
   76SLPC   O31 6829   4.767   2.573   6.613  0.4995 -0.5163 -0.0431
   76SLPC   C31 6830   4.772   2.557   6.744  0.6835 -1.0021  1.2413
   76SLPC   O32 6831   4.765   2.448   6.801 -0.2843 -0.5280 -0.1394
   76SLPC   C32 6832   4.792   2.691   6.807 -0.0292  0.0768 -0.5493
   76SLPC   H2X 6833   4.770   2.779   6.744 -4.2032 -0.4038  0.0746
   76SLPC   H2Y 6834   4.900   2.685   6.832 -0.3414 -1.0885  0.6445
   76SLPC   C23 6835   4.327   2.429   6.835  0.6657  0.2106 -0.5364
   76SLPC   H3R 6836   4.247   2.384   6.772  0.7870 -0.2916 -0.3330
   76SLPC   H3S 6837   4.345   2.535   6.810 -1.0759  0.2145 -1.9310
   76SLPC   C24 6838   4.281   2.416   6.981 -0.4852  0.0470 -0.0059
   76SLPC   H4R 6839   4.299   2.312   7.015 -1.3367  0.0783  0.5458
   76SLPC   H4S 6840   4.174   2.436   7.006 -0.7129 -0.9843 -0.1262
   76SLPC   C25 6841   4.362   2.501   7.077 -0.2386 -0.8304  0.1672
   76SLPC   H5R 6842   4.334   2.607   7.096  2.2706 -0.3757  1.5531
   76SLPC   H5S 6843   4.463   2.510   7.031 -1.1437  0.5191 -1.6490
   76SLPC   C26 6844   4.382   2.426   7.207  0.6122  0.1007  0.9985
   76SLPC   H6R 6845   4.437   2.492   7.278  0.4730 -1.8166  2.9359
   76SLPC   H6S 6846   4.456   2.344   7.189 -0.0837  0.3266 -3.3930
   76SLPC   C27 6847   4.260   2.368   7.280  0.4813 -0.4365  0.2269
   76SLPC   H7R 6848   4.211   2.280   7.232 -0.9852 -0.1268  1.1198
   76SLPC   H7S 6849   4.183   2.448   7.273 -0.5593 -1.5205 -1.1678
   76SLPC   C28 6850   4.279   2.336   7.429 -0.1366  0.3898  0.3166
   76SLPC   H8R 6851   4.190   2.272   7.447  0.2714  0.4601  2.7271
   76SLPC   H8S 6852   4.378   2.288   7.439 -0.8679 -1.1332  0.3510
   76SLPC   C29 6853   4.273   2.464   7.511 -0.4920  0.3175 -0.2694
   76SLPC   H9R 6854   4.325   2.547   7.461 -0.4684  0.5206  0.0920
   76SLPC  C210 6855   4.227   2.476   7.634  0.4747 -0.1207 -0.3931
   76SLPC  H10R 6856   4.216   2.572   7.687 -1.9839 -1.1196  0.9888
   76SLPC  C211 6857   4.179   2.355   7.711  0.8284 -0.6652  0.2998
   76SLPC  H11R 6858   4.269   2.299   7.743  0.9249 -0.9788 -0.4906
   76SLPC  H11S 6859   4.120   2.289   7.644  1.3571 -1.6842  0.8245
   76SLPC  C212 6860   4.095   2.392   7.832  0.8751 -0.7999 -0.6888
   76SLPC  H12R 6861   3.991   2.356   7.830  0.4720  0.1878  1.1472
   76SLPC  C213 6862   4.140   2.438   7.946  0.4563  0.1635  0.9167
   76SLPC  H13R 6863   4.065   2.491   8.006 -0.7266  0.0332 -0.4417
   76SLPC  C214 6864   4.287   2.472   7.979 -0.1158 -0.9868 -0.3224
   76SLPC  H14R 6865   4.355   2.433   7.901 -0.1661  0.4436 -1.0998
   76SLPC  H14S 6866   4.310   2.420   8.075  0.9379 -1.2298 -0.7010
   76SLPC  C215 6867   4.326   2.621   7.994 -0.8738  0.3628 -0.2596
   76SLPC  H15R 6868   4.276   2.677   7.911 -0.6347 -0.7262 -1.1554
   76SLPC  H15S 6869   4.436   2.633   8.000 -0.6302 -1.7810  0.1026
   76SLPC  C216 6870   4.258   2.674   8.119  0.6325 -0.5876 -0.6835
   76SLPC  H16R 6871   4.297   2.627   8.211 -0.1662  0.4452  0.1958
   76SLPC  H16S 6872   4.155   2.636   8.103  0.7769 -0.8344 -1.0482
   76SLPC  C217 6873   4.253   2.830   8.135 -0.0072 -0.3650 -0.1238
   76SLPC  H17R 6874   4.184   2.872   8.059  0.0843  3.0498  1.5945
   76SLPC  H17S 6875   4.357   2.864   8.117 -0.5678  1.0233 -0.8298
   76SLPC  C218 6876   4.208   2.873   8.280 -0.2328  0.2538 -0.0260
   76SLPC  H18R 6877   4.116   2.812   8.289 -0.3152 -0.0047 -2.4019
   76SLPC  H18S 6878   4.203   2.984   8.276  0.6321  0.2711 -0.7095
   76SLPC  H18T 6879   4.280   2.827   8.351  1.3055  0.4590 -1.4222
   76SLPC   C33 6880   4.718   2.705   6.941 -0.6062  0.1231  0.3519
   76SLPC   H3X 6881   4.607   2.698   6.929 -0.4276 -1.2734 -0.6193
   76SLPC   H3Y 6882   4.739   2.807   6.978  0.5220 -0.3098  0.9174
   76SLPC   C34 6883   4.760   2.602   7.050 -0.2252  0.1998 -0.4264
   76SLPC   H4X 6884   4.866   2.572   7.033 -0.6276 -1.3696 -0.2223
   76SLPC   H4Y 6885   4.688   2.519   7.038 -1.1185  1.0248 -0.9181
   76SLPC   C35 6886   4.747   2.648   7.198 -0.1836 -0.8509  0.5187
   76SLPC   H5X 6887   4.649   2.700   7.205  0.3375  0.1047  0.7701
   76SLPC   H5Y 6888   4.833   2.717   7.208 -0.3216 -0.0133 -3.1157
   76SLPC   C36 6889   4.759   2.530   7.290 -0.4294 -0.5015 -0.7048
   76SLPC   H6X 6890   4.862   2.489   7.288 -0.6715 -1.7017  4.0982
   76SLPC   H6Y 6891   4.685   2.448   7.273 -1.2085 -0.1446  0.7956
   76SLPC   C37 6892   4.754   2.574   7.441 -0.2833  0.6675 -0.5340
   76SLPC   H7X 6893   4.776   2.683   7.449 -0.6946  0.7716 -0.8308
   76SLPC   H7Y 6894   4.825   2.515   7.503 -1.1087  0.6515  0.4144
   76SLPC   C38 6895   4.609   2.552   7.501 -0.2069  0.1382 -0.1343
   76SLPC   H8X 6896   4.580   2.446   7.515  0.8517 -0.0781  0.4654
   76SLPC   H8Y 6897   4.542   2.602   7.428  0.4033  1.2913  0.0930
   76SLPC   C39 6898   4.596   2.620   7.638  0.3674 -0.3977 -0.4244
   76SLPC   H9X 6899   4.495   2.605   7.684  0.2658 -1.1360 -0.8748
   76SLPC   H9Y 6900   4.613   2.730   7.636 -1.5845 -0.0864 -1.8711
   76SLPC  C310 6901   4.698   2.579   7.746  0.6013  0.1411 -0.4430
   76SLPC  H10X 6902   4.802   2.578   7.706 -0.3179 -1.6782 -2.9837
   76SLPC  H10Y 6903   4.685   2.474   7.779 -1.3236  0.1725 -1.0573
   76SLPC  C311 6904   4.725   2.673   7.873 -0.1830 -0.4065 -0.6722
   76SLPC  H11X 6905   4.625   2.692   7.917  0.8429 -0.3817  1.7112
   76SLPC  H11Y 6906   4.755   2.772   7.833  1.7319  0.1615  2.0367
   76SLPC  C312 6907   4.823   2.611   7.977 -0.1332 -0.2056 -0.4483
   76SLPC  H12X 6908   4.921   2.588   7.928 -0.8258 -2.3147 -0.9136
   76SLPC  H12Y 6909   4.770   2.520   8.012 -2.2580  0.5554 -1.5812
   76SLPC  C313 6910   4.828   2.697   8.106 -0.6914 -0.8051  0.4345
   76SLPC  H13X 6911   4.731   2.695   8.159 -0.7398  0.4106  0.4122
   76SLPC  H13Y 6912   4.849   2.803   8.078 -0.1667 -0.7524  1.0270
   76SLPC  C314 6913   4.929   2.651   8.209  0.6008  0.1309 -0.4919
   76SLPC  H14X 6914   4.930   2.725   8.292  0.7390  0.5888 -0.8924
   76SLPC  H14Y 6915   5.030   2.654   8.161  0.2235  0.7488 -1.2558
   76SLPC  C315 6916   4.890   2.516   8.272 -0.3997  0.2229  0.2121
   76SLPC  H15X 6917   4.940   2.426   8.230  0.8795 -1.1187  4.3616
   76SLPC  H15Y 6918   4.780   2.506   8.277 -0.5879  2.5310  1.6182
   76SLPC  C316 6919   4.922   2.506   8.422  0.5299  0.0227 -0.2036
   76SLPC  H16X 6920   4.854   2.432   8.471  1.6275 -1.4318 -0.8384
   76SLPC  H16Y 6921   4.904   2.609   8.458 -0.6635  0.0171 -0.7706
   76SLPC  C317 6922   5.062   2.451   8.453 -0.9432  0.3537  0.7472
   76SLPC  H17X 6923   5.149   2.515   8.430 -2.0288  0.9490 -1.9312
   76SLPC  H17Y 6924   5.084   2.362   8.390 -2.8159  0.4829 -0.1303
   76SLPC  C318 6925   5.078   2.397   8.596 -0.0413 -0.4668 -0.3064
   76SLPC  H18X 6926   5.025   2.468   8.662 -0.7519 -1.4746  0.2171
   76SLPC  H18Y 6927   5.185   2.395   8.626  0.1503 -2.2195 -1.0329
   76SLPC  H18Z 6928   5.033   2.295   8.598 -0.6943 -0.1521  3.0611
   77SLPC     N 6929   1.306   2.273   6.259  0.0657  0.2742 -0.4168
   77SLPC   C13 6930   1.285   2.403   6.177  0.0854 -0.2006  0.2547
   77SLPC  H13A 6931   1.308   2.491   6.235  0.2914 -0.3934  0.4692
   77SLPC  H13B 6932   1.339   2.402   6.084  1.0769 -0.0977  0.8177
   77SLPC  H13C 6933   1.179   2.405   6.159 -0.1770  0.6253  1.7345
   77SLPC   C14 6934   1.267   2.155   6.178 -0.4377  0.4547 -0.5157
   77SLPC  H14A 6935   1.322   2.139   6.087 -0.0496 -0.4204 -0.1356
   77SLPC  H14B 6936   1.295   2.065   6.232 -4.3901  0.1645  1.2454
   77SLPC  H14C 6937   1.164   2.155   6.146 -1.3320  1.4034  2.1671
   77SLPC   C15 6938   1.217   2.276   6.378  0.0296 -0.2581  0.0921
   77SLPC  H15A 6939   1.115   2.267   6.344  0.5172 -0.3502 -1.3865
   77SLPC  H15B 6940   1.257   2.188   6.427 -0.4541 -0.4004  0.2347
   77SLPC  H15C 6941   1.218   2.363   6.441 -2.1043  0.8810 -1.4123
   77SLPC   C12 6942   1.454   2.255   6.301  0.1645 -0.1127 -0.0950
   77SLPC  H12A 6943   1.483   2.335   6.368 -0.1404 -0.3435  0.3183
   77SLPC  H12B 6944   1.524   2.272   6.221  0.3152 -1.8402 -0.3517
   77SLPC   C11 6945   1.502   2.123   6.369  0.4945 -0.2229  0.4151
   77SLPC  H11A 6946   1.598   2.141   6.422  1.3304 -1.1053 -0.7602
   77SLPC  H11B 6947   1.525   2.045   6.294 -1.3468 -0.8741  0.4913
   77SLPC     P 6948   1.360   1.920   6.468  0.0697 -0.2124 -0.1844
   77SLPC   O13 6949   1.283   1.884   6.345 -0.3222 -0.1252 -0.0559
   77SLPC   O14 6950   1.480   1.840   6.496 -0.5399  0.1572 -0.6114
   77SLPC   O12 6951   1.401   2.075   6.466 -0.1472 -0.0129 -0.2664
   77SLPC   O11 6952   1.272   1.913   6.606 -0.6813 -0.1171 -0.0448
   77SLPC    C1 6953   1.187   2.025   6.647 -0.8327 -0.3014 -0.3171
   77SLPC    HA 6954   1.257   2.110   6.660  0.3475 -1.2215 -0.5589
   77SLPC    HB 6955   1.117   2.050   6.564  0.5440  1.8413 -0.8577
   77SLPC    C2 6956   1.106   2.015   6.784  0.2447  0.4828  0.2949
   77SLPC    HS 6957   1.079   2.113   6.829  0.1646  0.2598  0.7335
   77SLPC   O21 6958   1.179   1.924   6.868  0.8381  0.2642 -0.2083
   77SLPC   C21 6959   1.274   1.986   6.935 -0.6588 -0.0565  0.4571
   77SLPC   O22 6960   1.300   2.108   6.935 -0.5565  0.1940 -0.3308
   77SLPC   C22 6961   1.349   1.894   7.043 -0.4732  0.5687 -0.3048
   77SLPC   H2R 6962   1.436   1.852   6.988 -0.6311 -0.9350  0.5788
   77SLPC   H2S 6963   1.397   1.958   7.120  0.1260  1.1265 -1.1233
   77SLPC    C3 6964   0.969   1.941   6.761 -0.2099  0.8881  0.6037
   77SLPC    HX 6965   0.991   1.840   6.721  0.5997  1.7161 -1.0674
   77SLPC    HY 6966   0.909   1.999   6.688  0.7352 -0.1314 -1.0163
   77SLPC   O31 6967   0.902   1.940   6.890 -0.2239 -0.4818  0.1745
   77SLPC   C31 6968   0.774   1.904   6.889  0.0913  0.4930 -0.0182
   77SLPC   O32 6969   0.706   1.884   6.791 -0.1922  0.2015 -0.2349
   77SLPC   C32 6970   0.721   1.894   7.029 -0.8270  0.0549  0.1466
   77SLPC   H2X 6971   0.661   1.801   7.025  0.9632 -1.0981 -0.2096
   77SLPC   H2Y 6972   0.654   1.978   7.058  0.9607  1.8466 -0.8210
   77SLPC   C23 6973   1.266   1.790   7.117  0.5740  0.5159 -0.0319
   77SLPC   H3R 6974   1.330   1.735   7.189 -0.7552  0.9962  1.5436
   77SLPC   H3S 6975   1.239   1.721   7.034 -1.9576 -1.1453  2.0607
   77SLPC   C24 6976   1.147   1.853   7.193 -0.1101 -0.1255 -0.6115
   77SLPC   H4R 6977   1.099   1.766   7.243 -1.8228 -0.2125 -2.3614
   77SLPC   H4S 6978   1.078   1.891   7.115 -0.2513 -1.3217 -1.0784
   77SLPC   C25 6979   1.184   1.965   7.293 -0.4109 -0.1624 -0.1690
   77SLPC   H5R 6980   1.098   2.031   7.315 -0.8232 -1.3111  1.8370
   77SLPC   H5S 6981   1.242   2.035   7.230  1.7314 -1.4024  0.3743
   77SLPC   C26 6982   1.264   1.927   7.415  0.7980 -0.3650  0.2674
   77SLPC   H6R 6983   1.358   1.875   7.389  0.4552 -2.5550  3.0827
   77SLPC   H6S 6984   1.211   1.851   7.478  1.6961 -2.1028 -1.0460
   77SLPC   C27 6985   1.300   2.053   7.492 -0.0205  0.3132 -0.1799
   77SLPC   H7R 6986   1.210   2.118   7.487 -1.8548 -1.9238  2.2581
   77SLPC   H7S 6987   1.380   2.107   7.436 -1.1022  1.2388 -0.8584
   77SLPC   C28 6988   1.358   2.029   7.631 -0.0468 -0.5242  0.3718
   77SLPC   H8R 6989   1.414   2.124   7.646 -0.1673 -0.8560  3.2256
   77SLPC   H8S 6990   1.437   1.952   7.615  1.2471  0.8683 -0.0864
   77SLPC   C29 6991   1.259   2.006   7.742  0.1250  0.1953 -0.3305
   77SLPC   H9R 6992   1.155   1.991   7.712 -0.0973  1.2965 -0.1025
   77SLPC  C210 6993   1.291   1.994   7.869 -0.0965  0.5922 -0.3037
   77SLPC  H10R 6994   1.214   1.974   7.945  1.1697 -0.7250  0.6607
   77SLPC  C211 6995   1.434   2.006   7.917 -0.1112 -0.0714 -0.0955
   77SLPC  H11R 6996   1.510   1.988   7.838  0.1895 -1.5187  0.5219
   77SLPC  H11S 6997   1.452   1.936   8.000  0.0289  0.2299  0.1292
   77SLPC  C212 6998   1.446   2.146   7.977  0.1114 -0.4228 -0.1796
   77SLPC  H12R 6999   1.418   2.227   7.907 -0.8910  0.6716  1.4234
   77SLPC  C213 7000   1.495   2.193   8.091 -0.0613  1.3971 -0.4062
   77SLPC  H13R 7001   1.501   2.301   8.112  0.9750  1.0690  1.0186
   77SLPC  C214 7002   1.546   2.102   8.206  0.3700  0.6496  0.0730
   77SLPC  H14R 7003   1.554   2.001   8.161  0.5893  1.4708 -1.7664
   77SLPC  H14S 7004   1.468   2.096   8.286  1.2623 -0.0069  0.9102
   77SLPC  C215 7005   1.672   2.151   8.284 -0.4169  0.0118 -0.2585
   77SLPC  H15R 7006   1.683   2.258   8.257 -0.7446 -0.1483 -1.0279
   77SLPC  H15S 7007   1.765   2.108   8.240 -0.0076 -0.8268  1.3792
   77SLPC  C216 7008   1.665   2.133   8.439 -0.4138  0.6531  0.2699
   77SLPC  H16R 7009   1.577   2.186   8.481 -0.8846  1.0251 -1.1557
   77SLPC  H16S 7010   1.757   2.168   8.491  0.8539  0.2259 -1.5855
   77SLPC  C217 7011   1.649   1.987   8.469 -0.1082 -0.2509  0.1347
   77SLPC  H17R 7012   1.599   1.933   8.387  0.1520  1.2708 -1.0554
   77SLPC  H17S 7013   1.589   1.992   8.563 -0.7667  0.0573 -0.3025
   77SLPC  C218 7014   1.785   1.918   8.492 -0.4192 -0.1872 -0.5649
   77SLPC  H18R 7015   1.771   1.810   8.510  0.4180 -0.2068 -0.0077
   77SLPC  H18S 7016   1.830   1.959   8.585 -0.3663  1.4807 -1.3080
   77SLPC  H18T 7017   1.851   1.936   8.404  0.0614  1.1346  0.0416
   77SLPC   C33 7018   0.820   1.854   7.140 -0.2081  0.0245  0.0814
   77SLPC   H3X 7019   0.885   1.943   7.151 -2.9366  1.7914  2.6799
   77SLPC   H3Y 7020   0.883   1.773   7.095 -0.6087  0.8528 -2.0210
   77SLPC   C34 7021   0.759   1.811   7.271  0.2759 -0.2533  0.4151
   77SLPC   H4X 7022   0.838   1.784   7.344  1.3505  2.3651  0.2711
   77SLPC   H4Y 7023   0.700   1.719   7.250 -3.4976  1.6161  2.3179
   77SLPC   C35 7024   0.667   1.924   7.340  0.0479  0.6563  0.4468
   77SLPC   H5X 7025   0.615   1.887   7.431 -1.4085  2.3905  0.3456
   77SLPC   H5Y 7026   0.592   1.942   7.260  2.0604  2.7868 -0.9906
   77SLPC   C36 7027   0.728   2.061   7.373 -0.3065 -0.1966  0.0568
   77SLPC   H6X 7028   0.641   2.126   7.398  1.2396  1.8329  0.2865
   77SLPC   H6Y 7029   0.781   2.116   7.292  1.2584 -0.1040  1.1135
   77SLPC   C37 7030   0.820   2.070   7.492  0.5318 -0.3460  0.3269
   77SLPC   H7X 7031   0.885   2.160   7.494  1.0052 -0.6462 -0.9113
   77SLPC   H7Y 7032   0.884   1.980   7.491  0.9999 -0.0856 -3.3393
   77SLPC   C38 7033   0.737   2.071   7.617 -0.1581  0.6884 -0.3158
   77SLPC   H8X 7034   0.670   1.983   7.627  0.5070  0.2680  0.5431
   77SLPC   H8Y 7035   0.682   2.167   7.622 -1.3649 -0.0426  0.5279
   77SLPC   C39 7036   0.839   2.068   7.729 -0.5441 -1.0147  0.1266
   77SLPC   H9X 7037   0.924   2.138   7.713 -1.2460 -0.3937 -0.9757
   77SLPC   H9Y 7038   0.885   1.967   7.727  0.9256 -0.3745  0.4583
   77SLPC  C310 7039   0.787   2.094   7.873  0.6332  0.4158  0.6046
   77SLPC  H10X 7040   0.703   2.022   7.885  0.2610  0.3620 -2.0776
   77SLPC  H10Y 7041   0.732   2.189   7.892  1.4719  1.4039 -1.7004
   77SLPC  C311 7042   0.893   2.073   7.974  0.8101 -0.6537 -0.2619
   77SLPC  H11X 7043   0.938   1.971   7.973  2.7575  0.1881 -0.1800
   77SLPC  H11Y 7044   0.849   2.077   8.076  0.4604 -0.9512 -0.4002
   77SLPC  C312 7045   1.007   2.174   7.971  0.2928 -0.0017 -0.4940
   77SLPC  H12X 7046   1.063   2.171   7.875  1.5285 -0.2501  0.2168
   77SLPC  H12Y 7047   1.078   2.149   8.053  1.8600  0.8367 -1.5575
   77SLPC  C313 7048   0.976   2.332   7.995 -0.1907  0.0696 -0.1881
   77SLPC  H13X 7049   0.932   2.381   7.906 -0.8677 -1.1711 -0.5463
   77SLPC  H13Y 7050   1.074   2.384   7.996 -0.2832  0.2509 -0.8557
   77SLPC  C314 7051   0.912   2.369   8.131  0.0681  0.6880  0.7088
   77SLPC  H14X 7052   0.802   2.351   8.130  0.4409 -1.9163 -1.2965
   77SLPC  H14Y 7053   0.931   2.478   8.141  1.1488  0.6340 -0.5489
   77SLPC  C315 7054   0.972   2.300   8.255  0.2263  0.3417  0.8384
   77SLPC  H15X 7055   1.083   2.292   8.256  0.3912  2.2556  0.4956
   77SLPC  H15Y 7056   0.932   2.197   8.244  1.4088 -0.1067  0.6386
   77SLPC  C316 7057   0.914   2.369   8.380  0.4415  0.0981  0.2554
   77SLPC  H16X 7058   0.937   2.289   8.453  1.8516  1.9947  1.9760
   77SLPC  H16Y 7059   0.806   2.393   8.379  0.3311 -0.2824  1.3937
   77SLPC  C317 7060   0.994   2.487   8.418 -0.0840  0.2053 -0.2367
   77SLPC  H17X 7061   0.963   2.581   8.368 -0.9808  0.4691  0.8030
   77SLPC  H17Y 7062   1.098   2.459   8.390  1.4046  4.7698  0.3081
   77SLPC  C318 7063   0.975   2.503   8.569 -0.3369  0.4723 -0.2803
   77SLPC  H18X 7064   0.868   2.513   8.599  0.0848 -0.3247  1.5832
   77SLPC  H18Y 7065   1.024   2.597   8.604  0.2024 -1.4757  4.6325
   77SLPC  H18Z 7066   1.027   2.427   8.631  1.1233  1.5142 -0.2010
   78SLPC     N 7067   3.003   2.926   6.282 -0.0881  0.1035 -0.0144
   78SLPC   C13 7068   3.002   3.077   6.287  0.2541 -0.2104  0.7187
   78SLPC  H13A 7069   3.067   3.114   6.209  0.2091 -0.2858  0.6455
   78SLPC  H13B 7070   2.902   3.119   6.284  1.3568  2.4490 -2.5443
   78SLPC  H13C 7071   3.045   3.117   6.378  2.5092 -0.3071 -0.2765
   78SLPC   C14 7072   3.144   2.882   6.292  0.5186 -1.0782  0.1253
   78SLPC  H14A 7073   3.195   2.915   6.202 -0.0109  3.0537  1.2323
   78SLPC  H14B 7074   3.195   2.915   6.381  0.8209 -0.9982 -0.0729
   78SLPC  H14C 7075   3.139   2.775   6.282  2.6151 -0.9592 -3.0593
   78SLPC   C15 7076   2.953   2.891   6.149  0.0186  0.1074  0.2843
   78SLPC  H15A 7077   2.945   2.784   6.133  1.9893 -0.1235  0.8085
   78SLPC  H15B 7078   2.856   2.935   6.129  0.4258  0.1709 -1.6278
   78SLPC  H15C 7079   3.019   2.934   6.075  0.7794 -1.4220  0.0623
   78SLPC   C12 7080   2.913   2.871   6.392  0.5742  0.2071  0.1185
   78SLPC  H12A 7081   2.964   2.862   6.486 -1.1801  2.3825  1.3265
   78SLPC  H12B 7082   2.890   2.768   6.369 -1.4636  0.6877 -0.1769
   78SLPC   C11 7083   2.776   2.936   6.409 -0.3524 -0.1268 -0.4752
   78SLPC  H11A 7084   2.793   3.036   6.455  2.9201 -0.5425 -0.7149
   78SLPC  H11B 7085   2.720   2.883   6.490  1.8694 -1.7548  0.0208
   78SLPC     P 7086   2.563   3.024   6.284  0.2845  0.2140  0.0700
   78SLPC   O13 7087   2.582   3.157   6.227  0.0087 -0.6958  0.3869
   78SLPC   O14 7088   2.446   2.945   6.233  0.5004 -0.2280 -0.0499
   78SLPC   O12 7089   2.697   2.939   6.288  0.7715  0.8681 -0.5221
   78SLPC   O11 7090   2.536   3.038   6.437  0.0941  0.7521  0.4335
   78SLPC    C1 7091   2.472   2.942   6.521 -0.2598  0.1223 -0.3466
   78SLPC    HA 7092   2.365   2.941   6.490 -0.4077 -1.0065  0.1628
   78SLPC    HB 7093   2.519   2.843   6.508  1.9449  1.3704 -2.2223
   78SLPC    C2 7094   2.468   2.995   6.671 -0.1734  0.6645  0.3069
   78SLPC    HS 7095   2.394   3.076   6.686 -3.3131 -1.8689 -0.9108
   78SLPC   O21 7096   2.608   3.016   6.714 -0.1942  0.5855 -0.2035
   78SLPC   C21 7097   2.651   3.135   6.705  0.2285  1.0466  0.4448
   78SLPC   O22 7098   2.588   3.226   6.654 -0.4760  0.2758  0.5319
   78SLPC   C22 7099   2.793   3.151   6.765 -0.3764  0.8138  0.1964
   78SLPC   H2R 7100   2.869   3.101   6.700  0.5196 -0.3179  2.0819
   78SLPC   H2S 7101   2.813   3.260   6.758 -1.7756  1.0348 -0.6634
   78SLPC    C3 7102   2.404   2.892   6.765  0.6135  0.1989  0.1232
   78SLPC    HX 7103   2.473   2.805   6.779  1.2354  0.5676 -0.6314
   78SLPC    HY 7104   2.314   2.858   6.711  0.5015 -0.5299  0.7516
   78SLPC   O31 7105   2.378   2.935   6.901 -0.3126  0.3334 -0.3585
   78SLPC   C31 7106   2.269   3.008   6.913  0.5263  0.2493 -0.1145
   78SLPC   O32 7107   2.197   3.037   6.818 -0.4177  0.7747  0.0673
   78SLPC   C32 7108   2.263   3.072   7.058  0.5114 -0.1781  0.2161
   78SLPC   H2X 7109   2.368   3.091   7.091 -0.1066 -2.2666  3.6755
   78SLPC   H2Y 7110   2.220   2.997   7.128  0.0234  0.6890  0.8516
   78SLPC   C23 7111   2.801   3.101   6.906 -0.0870 -0.0973 -0.2894
   78SLPC   H3R 7112   2.775   2.993   6.911  0.2121 -0.0644  2.6312
   78SLPC   H3S 7113   2.740   3.144   6.988  1.1007 -0.1393  0.6332
   78SLPC   C24 7114   2.953   3.102   6.952 -0.7172 -0.3003  0.5751
   78SLPC   H4R 7115   2.983   3.209   6.946  0.9649 -0.6713  2.0091
   78SLPC   H4S 7116   3.008   3.037   6.881 -1.5547  0.4435 -0.7912
   78SLPC   C25 7117   2.984   3.055   7.095  0.9328  0.2296  0.1623
   78SLPC   H5R 7118   3.093   3.041   7.112  1.0446  0.1085 -0.6339
   78SLPC   H5S 7119   2.942   2.955   7.121  0.4565  0.5363  0.5747
   78SLPC   C26 7120   2.941   3.156   7.204 -0.5497  0.2319  0.8195
   78SLPC   H6R 7121   2.856   3.104   7.252 -0.2498  0.2944  1.4142
   78SLPC   H6S 7122   2.917   3.256   7.162  2.2576  0.2810 -0.8281
   78SLPC   C27 7123   3.047   3.172   7.308 -0.5852  0.0694 -0.3519
   78SLPC   H7R 7124   3.017   3.250   7.381 -0.6155 -1.0486  0.8636
   78SLPC   H7S 7125   3.137   3.209   7.255 -1.4153  1.4665 -0.8121
   78SLPC   C28 7126   3.077   3.046   7.385 -0.4881  0.1194 -0.0071
   78SLPC   H8R 7127   3.103   2.964   7.315  0.6955 -0.6334  1.2603
   78SLPC   H8S 7128   2.980   3.021   7.433 -1.2895  1.3100 -0.9992
   78SLPC   C29 7129   3.184   3.069   7.488 -0.3460 -0.0910 -0.8062
   78SLPC   H9R 7130   3.285   3.073   7.445 -0.5160 -1.1905 -1.2961
   78SLPC  C210 7131   3.165   3.070   7.621 -0.0252  0.3649  0.6736
   78SLPC  H10R 7132   3.251   3.091   7.686 -0.0975 -2.2809  1.6963
   78SLPC  C211 7133   3.043   3.036   7.704  0.0898  0.0321 -0.5935
   78SLPC  H11R 7134   2.965   2.993   7.638 -0.7256  1.4969 -0.5882
   78SLPC  H11S 7135   2.991   3.129   7.736 -1.7077 -0.9277 -0.6235
   78SLPC  C212 7136   3.068   2.932   7.810  0.2943  0.0552  0.0531
   78SLPC  H12R 7137   3.113   2.840   7.769 -0.8703  0.2055 -1.6164
   78SLPC  C213 7138   3.035   2.925   7.932 -0.3405 -0.2427 -0.3699
   78SLPC  H13R 7139   3.069   2.841   7.994  1.1881  1.4111  1.0864
   78SLPC  C214 7140   2.964   3.036   8.006  0.6249 -0.1535 -0.1788
   78SLPC  H14R 7141   2.994   3.140   7.980  0.8549 -0.2993 -0.5005
   78SLPC  H14S 7142   2.972   3.013   8.114 -0.3348 -1.1958 -0.3299
   78SLPC  C215 7143   2.810   3.041   7.988 -0.3163  0.2690 -0.0080
   78SLPC  H15R 7144   2.777   3.055   7.883  0.7467 -0.7307 -0.4787
   78SLPC  H15S 7145   2.771   3.113   8.065  0.7484  0.8058  0.0373
   78SLPC  C216 7146   2.737   2.904   8.022 -0.0134 -0.1269  0.5976
   78SLPC  H16R 7147   2.776   2.875   8.123  0.2149 -2.3250 -0.0834
   78SLPC  H16S 7148   2.769   2.821   7.956  0.0019 -0.2185  0.7199
   78SLPC  C217 7149   2.588   2.921   8.035  0.0137 -0.8136  0.9058
   78SLPC  H17R 7150   2.550   3.009   8.091 -4.2000 -2.0540  0.1827
   78SLPC  H17S 7151   2.556   2.829   8.088 -1.4892 -1.4448 -1.0019
   78SLPC  C218 7152   2.519   2.911   7.891 -0.2006  0.2310 -0.2017
   78SLPC  H18R 7153   2.413   2.942   7.891 -0.0241  0.8407 -0.1567
   78SLPC  H18S 7154   2.517   2.803   7.861 -0.5295  0.0029  0.6435
   78SLPC  H18T 7155   2.586   2.964   7.819  0.4021 -0.2041  0.0320
   78SLPC   C33 7156   2.165   3.191   7.073  0.0394 -1.0171 -0.1245
   78SLPC   H3X 7157   2.064   3.169   7.031 -1.2839 -1.4844  3.1459
   78SLPC   H3Y 7158   2.205   3.274   7.011  2.5636 -1.0708  1.3912
   78SLPC   C34 7159   2.131   3.234   7.220  0.1501 -0.3718  0.2803
   78SLPC   H4X 7160   2.083   3.152   7.277  2.0083 -0.4567  1.7659
   78SLPC   H4Y 7161   2.047   3.307   7.214 -1.0081 -1.3449  3.5556
   78SLPC   C35 7162   2.241   3.281   7.317 -0.2735 -0.4474 -0.0796
   78SLPC   H5X 7163   2.281   3.381   7.291 -0.8229 -0.0048  0.7572
   78SLPC   H5Y 7164   2.324   3.210   7.296 -0.2620 -0.1166 -1.1827
   78SLPC   C36 7165   2.211   3.264   7.467  0.1632 -0.2423 -0.1964
   78SLPC   H6X 7166   2.122   3.322   7.497 -0.6463 -1.1115 -0.8978
   78SLPC   H6Y 7167   2.291   3.319   7.521 -0.5666  2.5172 -1.8432
   78SLPC   C37 7168   2.205   3.121   7.511  0.3798 -0.3333  0.0245
   78SLPC   H7X 7169   2.298   3.062   7.498  0.2009 -0.6393  0.1477
   78SLPC   H7Y 7170   2.149   3.055   7.442  0.7447  1.3651 -1.9656
   78SLPC   C38 7171   2.136   3.099   7.645 -0.6985  0.4672  1.0571
   78SLPC   H8X 7172   2.137   2.991   7.669 -0.4813  0.4641  1.0415
   78SLPC   H8Y 7173   2.033   3.139   7.636 -1.0403 -0.6573 -0.0696
   78SLPC   C39 7174   2.214   3.172   7.758  0.5755  0.4292  0.8169
   78SLPC   H9X 7175   2.180   3.277   7.751 -0.8372 -0.0900 -0.4935
   78SLPC   H9Y 7176   2.325   3.173   7.745  0.5718  2.5662  0.8666
   78SLPC  C310 7177   2.167   3.109   7.894 -0.0924  0.3776 -0.3271
   78SLPC  H10X 7178   2.186   3.000   7.880  0.4103  0.6117 -1.5642
   78SLPC  H10Y 7179   2.057   3.117   7.903 -0.3505 -0.2738 -2.6773
   78SLPC  C311 7180   2.249   3.162   8.017  0.6934  0.1267 -0.0845
   78SLPC  H11X 7181   2.255   3.272   8.023 -4.0858  0.5803 -1.8517
   78SLPC  H11Y 7182   2.355   3.132   8.006 -0.0897 -2.5327 -0.7390
   78SLPC  C312 7183   2.200   3.111   8.152  0.0913  0.2444 -0.8787
   78SLPC  H12X 7184   2.090   3.123   8.163 -0.0446  0.3961 -2.3473
   78SLPC  H12Y 7185   2.243   3.180   8.228 -0.5730 -1.4135  1.0530
   78SLPC  C313 7186   2.246   2.971   8.187  0.3280  0.8373 -0.2910
   78SLPC  H13X 7187   2.351   2.965   8.224  1.0595 -0.6036 -2.5100
   78SLPC  H13Y 7188   2.246   2.905   8.098  1.7472  0.4385 -0.0131
   78SLPC  C314 7189   2.166   2.903   8.306 -0.1073 -0.3200  0.0934
   78SLPC  H14X 7190   2.061   2.895   8.272  0.5056 -1.6031 -1.6329
   78SLPC  H14Y 7191   2.173   2.964   8.398 -2.3436 -0.2663  0.2543
   78SLPC  C315 7192   2.211   2.756   8.338 -0.5743 -0.6972  0.6229
   78SLPC  H15X 7193   2.322   2.760   8.340 -0.5317 -0.2336 -1.2794
   78SLPC  H15Y 7194   2.179   2.690   8.255 -0.3842 -0.0593  0.0365
   78SLPC  C316 7195   2.158   2.707   8.472 -0.0196 -0.5805 -0.2955
   78SLPC  H16X 7196   2.209   2.750   8.560 -0.0648  1.2559 -1.1406
   78SLPC  H16Y 7197   2.193   2.602   8.472 -0.3891 -0.7141 -1.8643
   78SLPC  C317 7198   2.015   2.726   8.487 -0.3002 -0.4135  0.1103
   78SLPC  H17X 7199   1.966   2.645   8.429  1.9299 -1.3484 -0.5269
   78SLPC  H17Y 7200   1.978   2.825   8.454 -0.6606 -0.7991 -0.6562
   78SLPC  C318 7201   1.974   2.724   8.637  0.1658  0.0606  0.4218
   78SLPC  H18X 7202   2.011   2.634   8.691 -2.1627 -1.0451  0.2374
   78SLPC  H18Y 7203   1.867   2.738   8.663 -0.4019 -0.8323 -1.4015
   78SLPC  H18Z 7204   2.027   2.808   8.686  1.5139 -0.7446  0.3559
   79SLPC     N 7205   0.540   5.017   5.905 -0.2960  0.2996 -0.2427
   79SLPC   C13 7206   0.554   5.142   5.985  0.4174 -0.6427 -0.3065
   79SLPC  H13A 7207   0.533   5.229   5.924  1.7321 -0.3435 -0.3443
   79SLPC  H13B 7208   0.480   5.144   6.063 -0.7626  0.2462 -1.4187
   79SLPC  H13C 7209   0.647   5.160   6.037 -0.4530  0.0056  1.0530
   79SLPC   C14 7210   0.660   5.001   5.817 -0.5836 -0.1902 -0.3354
   79SLPC  H14A 7211   0.748   5.029   5.874 -1.1085  1.8819 -0.4940
   79SLPC  H14B 7212   0.670   4.898   5.786  0.4098  0.2538 -1.5381
   79SLPC  H14C 7213   0.656   5.069   5.733  2.3410  1.4407  0.7643
   79SLPC   C15 7214   0.424   5.023   5.806  0.8579 -0.0906 -0.4201
   79SLPC  H15A 7215   0.437   5.107   5.739  1.2447 -0.0469 -0.2928
   79SLPC  H15B 7216   0.428   4.939   5.739 -0.1226  0.7083 -1.4960
   79SLPC  H15C 7217   0.327   5.033   5.853  1.0713  1.1221 -0.2108
   79SLPC   C12 7218   0.515   4.899   5.993 -0.9505 -0.2667  1.3019
   79SLPC  H12A 7219   0.530   4.805   5.941  0.5434  1.1847 -0.9465
   79SLPC  H12B 7220   0.414   4.891   6.031 -1.7381 -0.9207 -0.8519
   79SLPC   C11 7221   0.601   4.890   6.121  0.6663  0.6213 -0.8856
   79SLPC  H11A 7222   0.707   4.897   6.090  0.7857  1.1266 -0.3563
   79SLPC  H11B 7223   0.580   4.788   6.159  1.4013  0.7020 -0.2650
   79SLPC     P 7224   0.446   4.992   6.320 -0.3097  0.2748 -0.0038
   79SLPC   O13 7225   0.428   5.120   6.392 -0.6338 -0.1073 -0.3016
   79SLPC   O14 7226   0.326   4.944   6.245  0.7438 -0.3736 -0.2215
   79SLPC   O12 7227   0.570   4.993   6.223  0.8865 -0.1862  0.0665
   79SLPC   O11 7228   0.484   4.878   6.428 -0.6641 -0.0385 -0.0406
   79SLPC    C1 7229   0.398   4.815   6.528  0.0818  0.5402 -0.0551
   79SLPC    HA 7230   0.291   4.809   6.498 -0.2940  1.4144  1.0640
   79SLPC    HB 7231   0.439   4.713   6.544 -0.0097  0.7556  1.6938
   79SLPC    C2 7232   0.398   4.890   6.664  0.4596 -0.6407  0.4854
   79SLPC    HS 7233   0.365   4.994   6.644 -1.8786 -1.1415  1.5745
   79SLPC   O21 7234   0.536   4.887   6.727  0.5972 -0.0192  0.1499
   79SLPC   C21 7235   0.576   5.008   6.772 -0.0532  0.6191 -0.5880
   79SLPC   O22 7236   0.518   5.115   6.756  0.9357  0.4997  0.1493
   79SLPC   C22 7237   0.706   4.999   6.855 -0.5682  0.6135 -0.2396
   79SLPC   H2R 7238   0.721   4.892   6.881  0.8771  1.1470  1.2366
   79SLPC   H2S 7239   0.790   5.006   6.782 -0.6737 -1.1677 -0.5388
   79SLPC    C3 7240   0.295   4.827   6.756  0.0873  0.1891 -0.4514
   79SLPC    HX 7241   0.315   4.718   6.750 -1.0553 -0.2827  3.2450
   79SLPC    HY 7242   0.200   4.864   6.712  0.7829  2.6525  0.0198
   79SLPC   O31 7243   0.300   4.863   6.897  0.2315  0.2846 -0.4795
   79SLPC   C31 7244   0.247   4.974   6.939 -0.0365 -0.4273 -0.3981
   79SLPC   O32 7245   0.188   5.060   6.872  0.3759 -0.0900  0.5239
   79SLPC   C32 7246   0.258   4.985   7.085  0.4691  0.3432  1.0748
   79SLPC   H2X 7247   0.249   5.090   7.121 -0.0482  0.6061  0.2142
   79SLPC   H2Y 7248   0.359   4.958   7.121  1.8825  2.8624 -0.8662
   79SLPC   C23 7249   0.724   5.112   6.966  0.4497  0.4418  0.2672
   79SLPC   H3R 7250   0.688   5.212   6.932  0.2601  0.5632  0.8261
   79SLPC   H3S 7251   0.832   5.122   6.988  1.0711 -1.4094 -1.7438
   79SLPC   C24 7252   0.640   5.072   7.096 -0.3810 -0.4388  0.1264
   79SLPC   H4R 7253   0.647   4.961   7.103  1.5116 -0.4184 -1.0438
   79SLPC   H4S 7254   0.539   5.115   7.076 -0.8620 -0.4375  2.5072
   79SLPC   C25 7255   0.704   5.139   7.224  0.5885  0.9241  0.5284
   79SLPC   H5R 7256   0.720   5.245   7.195 -0.6042  0.4260 -2.1279
   79SLPC   H5S 7257   0.804   5.095   7.246  0.8076 -0.6352 -3.2237
   79SLPC   C26 7258   0.613   5.134   7.348 -0.3707 -1.2286 -0.1496
   79SLPC   H6R 7259   0.508   5.151   7.315 -0.5293 -1.1581  0.3934
   79SLPC   H6S 7260   0.636   5.218   7.417 -1.8017 -0.8436 -0.1136
   79SLPC   C27 7261   0.602   4.990   7.411 -0.4143  0.1388  0.6579
   79SLPC   H7R 7262   0.606   4.911   7.334 -1.5562 -1.0517  1.7909
   79SLPC   H7S 7263   0.506   4.985   7.467 -0.1865 -1.1560  0.9425
   79SLPC   C28 7264   0.710   4.963   7.524 -0.5358 -0.2549 -0.0302
   79SLPC   H8R 7265   0.809   4.969   7.475 -0.4500 -0.8622  0.0562
   79SLPC   H8S 7266   0.688   4.861   7.564  0.8653 -0.6387 -0.2262
   79SLPC   C29 7267   0.703   5.055   7.634 -0.4155  0.1816  0.3468
   79SLPC   H9R 7268   0.735   5.157   7.609 -0.0793 -0.0903 -0.3380
   79SLPC  C210 7269   0.660   5.028   7.763 -0.4464 -0.4976 -0.1840
   79SLPC  H10R 7270   0.673   5.103   7.843 -0.7273 -0.2715 -0.3484
   79SLPC  C211 7271   0.616   4.900   7.834 -0.5044  0.1931 -0.4651
   79SLPC  H11R 7272   0.566   4.834   7.760  0.3540  0.5767 -1.3981
   79SLPC  H11S 7273   0.552   4.924   7.921  2.5302 -1.2350  2.2578
   79SLPC  C212 7274   0.733   4.826   7.886 -0.3175 -0.7920  0.9295
   79SLPC  H12R 7275   0.801   4.803   7.803 -1.9421  0.2115 -0.7326
   79SLPC  C213 7276   0.756   4.793   8.018  0.4585  0.6715  0.0011
   79SLPC  H13R 7277   0.845   4.730   8.033 -1.6220 -2.7807 -1.4427
   79SLPC  C214 7278   0.669   4.823   8.136  0.3042 -0.7898 -0.0919
   79SLPC  H14R 7279   0.619   4.728   8.165  1.7359 -0.9902  1.8190
   79SLPC  H14S 7280   0.593   4.900   8.111  0.6087 -0.4126  0.1380
   79SLPC  C215 7281   0.753   4.882   8.250 -0.3787 -0.5461  0.4368
   79SLPC  H15R 7282   0.834   4.812   8.279 -0.3997 -1.1238 -0.8712
   79SLPC  H15S 7283   0.697   4.894   8.346  1.5380  0.8890  1.3982
   79SLPC  C216 7284   0.817   5.025   8.210  0.5851 -0.3636 -0.4511
   79SLPC  H16R 7285   0.771   5.061   8.115  0.0078 -1.6829 -0.6913
   79SLPC  H16S 7286   0.927   5.014   8.197  0.8008 -0.0064  0.9900
   79SLPC  C217 7287   0.793   5.127   8.320 -0.1112 -0.3104 -0.0387
   79SLPC  H17R 7288   0.852   5.095   8.409  0.3809  0.1801 -0.1845
   79SLPC  H17S 7289   0.685   5.124   8.346 -0.2280  0.3985 -0.4378
   79SLPC  C218 7290   0.839   5.263   8.272  0.6433  0.0058 -1.2169
   79SLPC  H18R 7291   0.835   5.340   8.352 -0.7024  2.2823 -3.3981
   79SLPC  H18S 7292   0.778   5.304   8.188 -2.6998  0.1800  1.1924
   79SLPC  H18T 7293   0.941   5.261   8.228  1.2845  0.1576  0.2438
   79SLPC   C33 7294   0.163   4.885   7.157 -0.4084  0.4380  0.1480
   79SLPC   H3X 7295   0.196   4.782   7.130 -0.4570  0.0618  1.4895
   79SLPC   H3Y 7296   0.057   4.898   7.128 -0.9771  0.8475  2.3747
   79SLPC   C34 7297   0.173   4.896   7.315  0.2723 -0.1671  0.7279
   79SLPC   H4X 7298   0.155   4.998   7.356 -2.3298 -0.2049 -0.2352
   79SLPC   H4Y 7299   0.274   4.858   7.342  1.2728  2.1433  0.4037
   79SLPC   C35 7300   0.076   4.805   7.386 -0.0633  0.9301  0.4929
   79SLPC   H5X 7301   0.102   4.701   7.359  1.2407  1.2577  0.4307
   79SLPC   H5Y 7302  -0.019   4.818   7.330  0.1613 -0.3478 -0.2080
   79SLPC   C36 7303   0.064   4.833   7.540 -0.0488  0.3795 -0.1317
   79SLPC   H6X 7304  -0.029   4.780   7.569  0.5865  0.0230  1.2692
   79SLPC   H6Y 7305   0.035   4.939   7.558  1.3353  0.6308  0.7249
   79SLPC   C37 7306   0.174   4.764   7.626  0.5446 -0.9691  0.2392
   79SLPC   H7X 7307   0.273   4.785   7.580 -0.0908 -0.5236 -0.9633
   79SLPC   H7Y 7308   0.148   4.658   7.645  0.2519 -0.6150  1.8652
   79SLPC   C38 7309   0.194   4.840   7.759 -0.0301  0.2836  0.3623
   79SLPC   H8X 7310   0.279   4.782   7.800  1.9383  0.0667 -3.7995
   79SLPC   H8Y 7311   0.095   4.834   7.809 -0.3603 -0.6613 -0.3905
   79SLPC   C39 7312   0.237   4.986   7.735 -0.0878 -0.0070  0.1626
   79SLPC   H9X 7313   0.140   5.039   7.721 -1.3536 -1.2588  3.5115
   79SLPC   H9Y 7314   0.315   4.996   7.657 -0.2099 -0.0174  0.0403
   79SLPC  C310 7315   0.300   5.049   7.861  0.7922  0.7778 -0.7384
   79SLPC  H10X 7316   0.342   5.147   7.830  0.4397  1.0684 -0.3085
   79SLPC  H10Y 7317   0.381   4.992   7.910 -0.9465  1.1252  2.6542
   79SLPC  C311 7318   0.184   5.068   7.962  0.2911 -0.4832  0.2345
   79SLPC  H11X 7319   0.124   4.975   7.966 -0.7313  0.2029  0.8801
   79SLPC  H11Y 7320   0.110   5.140   7.921 -2.0347 -2.2103  1.3275
   79SLPC  C312 7321   0.218   5.112   8.104  0.4092  0.2302  0.1213
   79SLPC  H12X 7322   0.281   5.203   8.102  2.8779 -1.4596 -0.2884
   79SLPC  H12Y 7323   0.253   5.031   8.172  1.8941  1.6444  1.0810
   79SLPC  C313 7324   0.089   5.158   8.176 -0.3961 -0.2590 -0.0867
   79SLPC  H13X 7325  -0.000   5.091   8.171 -1.2069  0.7329  0.9060
   79SLPC  H13Y 7326   0.056   5.253   8.130 -0.3673 -0.1684  0.0792
   79SLPC  C314 7327   0.098   5.186   8.330  0.4620  0.2178  0.5128
   79SLPC  H14X 7328   0.184   5.254   8.349  0.2678  0.4236  0.6614
   79SLPC  H14Y 7329   0.119   5.097   8.394 -2.7900 -0.7883  0.2756
   79SLPC  C315 7330  -0.025   5.264   8.377  0.3948  0.3623  0.1080
   79SLPC  H15X 7331  -0.117   5.206   8.356  0.5885  0.6262 -1.5361
   79SLPC  H15Y 7332  -0.028   5.366   8.333  2.1716  0.2009 -0.4462
   79SLPC  C316 7333  -0.025   5.286   8.533 -0.1868  0.1598  0.1869
   79SLPC  H16X 7334  -0.071   5.381   8.566  0.0180 -0.0353  1.0387
   79SLPC  H16Y 7335   0.082   5.298   8.558  0.2936 -1.5352 -0.9213
   79SLPC  C317 7336  -0.066   5.178   8.633  0.6605 -0.6073  0.3693
   79SLPC  H17X 7337  -0.040   5.216   8.734  4.7831 -2.0020 -0.0671
   79SLPC  H17Y 7338  -0.003   5.088   8.614  0.3750 -0.1735 -2.8071
   79SLPC  C318 7339  -0.210   5.135   8.621  0.4957 -0.2866 -0.4786
   79SLPC  H18X 7340  -0.261   5.233   8.605  0.5700 -0.3471 -1.0723
   79SLPC  H18Y 7341  -0.246   5.090   8.716  0.4746  1.0549  0.1800
   79SLPC  H18Z 7342  -0.238   5.069   8.537 -0.1172 -0.2810 -0.2795
   80SLPC     N 7343   2.094   3.218   6.179 -0.4768 -0.0571 -0.7409
   80SLPC   C13 7344   2.091   3.190   6.032 -0.4087  0.1223 -0.2270
   80SLPC  H13A 7345   2.150   3.102   6.013  0.4221  0.7287 -0.4866
   80SLPC  H13B 7346   1.993   3.173   5.990  0.1157 -0.0484 -1.4026
   80SLPC  H13C 7347   2.137   3.272   5.979 -0.9145  0.1958 -0.5515
   80SLPC   C14 7348   2.002   3.328   6.210  0.1438 -0.3862  0.3651
   80SLPC  H14A 7349   1.996   3.342   6.317 -3.0129 -1.4194  0.3743
   80SLPC  H14B 7350   2.040   3.419   6.168  0.1191 -0.5460 -0.0050
   80SLPC  H14C 7351   1.899   3.321   6.177  0.2881 -1.0885  0.0553
   80SLPC   C15 7352   2.235   3.251   6.221  0.2474  0.6331  0.1869
   80SLPC  H15A 7353   2.256   3.272   6.325  4.5895 -1.9311 -0.0387
   80SLPC  H15B 7354   2.300   3.177   6.178 -1.0475 -0.2506 -0.2940
   80SLPC  H15C 7355   2.265   3.345   6.178  0.5181  1.7566  2.7603
   80SLPC   C12 7356   2.042   3.095   6.255 -0.9786 -0.4517  0.5394
   80SLPC  H12A 7357   2.057   3.100   6.361  1.7427 -1.3031  0.2160
   80SLPC  H12B 7358   2.099   3.009   6.223 -0.5616  0.8299 -2.3143
   80SLPC   C11 7359   1.897   3.057   6.230 -0.0758  0.5160  0.3593
   80SLPC  H11A 7360   1.886   2.960   6.283  0.6044 -0.0248 -0.4595
   80SLPC  H11B 7361   1.883   3.056   6.119 -1.1285  0.2603  0.4941
   80SLPC     P 7362   1.788   3.153   6.443 -0.4234  0.1186 -0.0654
   80SLPC   O13 7363   1.910   3.111   6.513 -0.7626 -0.1975 -0.6945
   80SLPC   O14 7364   1.735   3.288   6.482  0.5726 -0.0074  0.5908
   80SLPC   O12 7365   1.811   3.153   6.287 -0.7681  0.3070  0.3609
   80SLPC   O11 7366   1.679   3.046   6.448 -0.3688  0.3939 -0.1715
   80SLPC    C1 7367   1.704   2.916   6.484  0.2592 -0.8090 -0.7672
   80SLPC    HA 7368   1.631   2.864   6.418  1.4885 -0.6836 -2.2493
   80SLPC    HB 7369   1.807   2.881   6.465  0.2658 -1.5406  0.6075
   80SLPC    C2 7370   1.670   2.873   6.631 -0.2800  0.3053  0.2944
   80SLPC    HS 7371   1.561   2.892   6.641 -0.4576  0.7351 -2.1625
   80SLPC   O21 7372   1.755   2.944   6.721  0.2319  0.2615  0.4781
   80SLPC   C21 7373   1.701   3.040   6.796 -0.9939 -0.2006 -0.4302
   80SLPC   O22 7374   1.583   3.067   6.807  0.3667  0.6260 -0.7364
   80SLPC   C22 7375   1.812   3.106   6.884  0.4378 -0.1634  0.1320
   80SLPC   H2R 7376   1.856   3.024   6.944 -0.6622 -2.0578 -1.5709
   80SLPC   H2S 7377   1.875   3.155   6.806 -3.5535  1.0430 -2.4727
   80SLPC    C3 7378   1.692   2.718   6.651 -0.0225 -0.6441  0.1041
   80SLPC    HX 7379   1.792   2.686   6.686  0.1092  0.0867  0.4010
   80SLPC    HY 7380   1.694   2.666   6.554  0.8439 -0.2937 -0.0716
   80SLPC   O31 7381   1.589   2.669   6.729  0.2508 -0.0042 -0.3529
   80SLPC   C31 7382   1.610   2.648   6.856 -0.1994  0.7298 -1.4258
   80SLPC   O32 7383   1.717   2.644   6.915 -0.4141  0.0235 -0.4456
   80SLPC   C32 7384   1.474   2.626   6.926 -0.6340  0.8105 -0.4988
   80SLPC   H2X 7385   1.415   2.551   6.869 -0.0456  0.0567 -0.1355
   80SLPC   H2Y 7386   1.424   2.725   6.922  1.0942  1.8444  2.2164
   80SLPC   C23 7387   1.753   3.197   6.989  0.1120  0.5409 -0.3583
   80SLPC   H3R 7388   1.668   3.255   6.948 -1.1266 -0.2502  1.0391
   80SLPC   H3S 7389   1.828   3.274   7.017  0.9552 -0.0600 -0.9304
   80SLPC   C24 7390   1.715   3.110   7.115  0.4268 -0.0238 -0.3313
   80SLPC   H4R 7391   1.795   3.056   7.170  1.0839  0.5471 -0.7245
   80SLPC   H4S 7392   1.655   3.026   7.072 -0.0586  0.7306 -1.1298
   80SLPC   C25 7393   1.622   3.191   7.201  0.2442 -0.1468 -0.0022
   80SLPC   H5R 7394   1.560   3.246   7.128 -0.2141 -0.1069  0.4147
   80SLPC   H5S 7395   1.675   3.268   7.261 -0.1604  0.2110 -0.1044
   80SLPC   C26 7396   1.540   3.100   7.293  0.2501 -0.1111  0.3189
   80SLPC   H6R 7397   1.606   3.028   7.345  0.3375  0.9945  1.7566
   80SLPC   H6S 7398   1.480   3.042   7.220 -0.3800  0.8474  0.0724
   80SLPC   C27 7399   1.451   3.174   7.390  0.6941  0.0557  0.5466
   80SLPC   H7R 7400   1.373   3.235   7.341 -0.2663 -0.0093  1.9707
   80SLPC   H7S 7401   1.513   3.249   7.443  0.0325 -0.6145  2.3015
   80SLPC   C28 7402   1.373   3.088   7.496 -1.1990 -0.3573  0.6025
   80SLPC   H8R 7403   1.458   3.045   7.554 -0.2982 -0.1511 -0.5575
   80SLPC   H8S 7404   1.308   3.014   7.445 -0.3188  0.0075 -1.0822
   80SLPC   C29 7405   1.281   3.179   7.581  0.3711 -0.5430  0.5721
   80SLPC   H9R 7406   1.198   3.224   7.525 -0.1976 -1.6779  0.4835
   80SLPC  C210 7407   1.291   3.199   7.712  0.4159 -0.0236 -0.0160
   80SLPC  H10R 7408   1.234   3.284   7.753  0.2713  0.6140 -1.4877
   80SLPC  C211 7409   1.389   3.141   7.809  0.1488  0.1253  0.2978
   80SLPC  H11R 7410   1.451   3.072   7.748  0.5504  1.5421 -0.9398
   80SLPC  H11S 7411   1.336   3.066   7.871 -0.8525 -0.6300 -1.4190
   80SLPC  C212 7412   1.476   3.227   7.899  0.7242  0.1010  0.1852
   80SLPC  H12R 7413   1.573   3.258   7.857  1.1545  0.8383  1.6826
   80SLPC  C213 7414   1.461   3.260   8.032  0.3588 -0.4018  0.1560
   80SLPC  H13R 7415   1.536   3.336   8.061  1.6117 -1.6318  0.1897
   80SLPC  C214 7416   1.343   3.216   8.115 -0.4241  0.2519 -0.6586
   80SLPC  H14R 7417   1.293   3.133   8.062 -0.4632  0.9069 -1.6439
   80SLPC  H14S 7418   1.268   3.298   8.127 -1.0462 -0.4381  0.2006
   80SLPC  C215 7419   1.370   3.148   8.251 -0.5192  0.0026  0.3275
   80SLPC  H15R 7420   1.429   3.217   8.315 -1.0041 -0.3447  1.1618
   80SLPC  H15S 7421   1.434   3.058   8.238  1.9797  1.2571  3.4283
   80SLPC  C216 7422   1.239   3.114   8.323 -0.2788 -0.7574  0.1262
   80SLPC  H16R 7423   1.184   3.023   8.292  0.9945 -1.5055  0.0292
   80SLPC  H16S 7424   1.172   3.203   8.319  0.6354 -0.0015  1.2095
   80SLPC  C217 7425   1.276   3.097   8.476 -0.7097 -0.3114  0.3485
   80SLPC  H17R 7426   1.280   3.203   8.508  3.1786 -0.2597 -0.0405
   80SLPC  H17S 7427   1.380   3.063   8.495 -0.1137  2.1594  1.6397
   80SLPC  C218 7428   1.175   3.024   8.553  0.6888  0.7090  0.0853
   80SLPC  H18R 7429   1.214   3.011   8.656  1.2834  0.5793 -0.1560
   80SLPC  H18S 7430   1.164   2.926   8.503  1.6802  1.2461 -1.2138
   80SLPC  H18T 7431   1.080   3.081   8.563 -0.2728 -1.0408  1.0201
   80SLPC   C33 7432   1.496   2.594   7.080 -0.0653 -0.2386  0.4612
   80SLPC   H3X 7433   1.585   2.529   7.086  0.7709  0.9039  0.5799
   80SLPC   H3Y 7434   1.405   2.536   7.109 -1.8729  1.3094 -1.9447
   80SLPC   C34 7435   1.514   2.710   7.177 -0.3048  0.0641 -0.5365
   80SLPC   H4X 7436   1.425   2.776   7.177 -0.0756  0.3802 -1.4236
   80SLPC   H4Y 7437   1.599   2.768   7.135  0.6380 -0.5635  0.4674
   80SLPC   C35 7438   1.549   2.648   7.320 -0.0198  0.4820 -0.2593
   80SLPC   H5X 7439   1.621   2.564   7.313 -1.2432 -0.7034  1.1574
   80SLPC   H5Y 7440   1.455   2.599   7.353  1.7992 -3.9260 -1.2920
   80SLPC   C36 7441   1.611   2.746   7.409  0.1869  0.6067 -0.5357
   80SLPC   H6X 7442   1.548   2.838   7.407  0.4824  0.8262  0.0934
   80SLPC   H6Y 7443   1.714   2.779   7.384  0.3920  1.1901  1.0120
   80SLPC   C37 7444   1.619   2.684   7.550 -0.2118 -0.0135  0.1250
   80SLPC   H7X 7445   1.697   2.605   7.545  0.0832  0.3093 -0.3849
   80SLPC   H7Y 7446   1.522   2.631   7.566  0.6124 -2.1368 -1.6593
   80SLPC   C38 7447   1.645   2.781   7.666 -0.0320 -0.8385 -0.3155
   80SLPC   H8X 7448   1.629   2.740   7.768  2.0158  0.7323  0.6580
   80SLPC   H8Y 7449   1.564   2.856   7.659  2.4599  1.8259 -1.7109
   80SLPC   C39 7450   1.784   2.833   7.666 -0.9326 -0.1376  0.0378
   80SLPC   H9X 7451   1.814   2.875   7.568  2.7485 -2.6629 -0.0234
   80SLPC   H9Y 7452   1.849   2.746   7.690 -0.9322  0.0798  0.8559
   80SLPC  C310 7453   1.804   2.935   7.777  0.1803  0.1896  0.1503
   80SLPC  H10X 7454   1.738   3.024   7.775  0.9346  0.7656  0.2881
   80SLPC  H10Y 7455   1.911   2.964   7.787  0.4148 -1.2741  2.2330
   80SLPC  C311 7456   1.790   2.879   7.927  0.7375 -0.0166  0.1928
   80SLPC  H11X 7457   1.883   2.829   7.963 -0.2354 -0.9319  1.4723
   80SLPC  H11Y 7458   1.703   2.811   7.938 -1.6689  3.2548  2.3395
   80SLPC  C312 7459   1.769   2.986   8.035 -0.4187 -0.1605 -0.3877
   80SLPC  H12X 7460   1.679   3.049   8.022 -1.3224 -1.0904  1.2376
   80SLPC  H12Y 7461   1.857   3.054   8.041  0.3967 -1.2931  0.9205
   80SLPC  C313 7462   1.757   2.915   8.171  0.8158 -0.0257  0.4512
   80SLPC  H13X 7463   1.834   2.840   8.196 -0.6351 -1.2174  1.3874
   80SLPC  H13Y 7464   1.660   2.862   8.178  1.5679 -1.9149 -2.4465
   80SLPC  C314 7465   1.758   3.021   8.284  0.0258  0.4491 -0.3702
   80SLPC  H14X 7466   1.686   3.104   8.272 -0.3867  0.2041  0.3594
   80SLPC  H14Y 7467   1.863   3.056   8.294 -0.1882  0.7250  0.9815
   80SLPC  C315 7468   1.708   2.959   8.418 -0.1844 -0.3746  0.6074
   80SLPC  H15X 7469   1.771   2.872   8.447  0.1152  0.4823  2.6556
   80SLPC  H15Y 7470   1.608   2.922   8.389 -1.3068  3.1328 -0.2565
   80SLPC  C316 7471   1.686   3.063   8.531  0.1040 -0.7132 -0.8096
   80SLPC  H16X 7472   1.615   3.140   8.493  1.4194  0.4654 -0.9068
   80SLPC  H16Y 7473   1.787   3.104   8.550  0.2382 -0.6560 -1.6659
   80SLPC  C317 7474   1.631   2.995   8.658 -0.8832 -0.1730  0.5974
   80SLPC  H17X 7475   1.693   2.905   8.681  1.7680  1.2949 -0.5387
   80SLPC  H17Y 7476   1.533   2.950   8.630 -1.1885  0.9279 -0.1133
   80SLPC  C318 7477   1.628   3.078   8.780 -0.2033  0.5047 -0.6944
   80SLPC  H18X 7478   1.548   3.155   8.769 -2.3887 -1.2433  2.3398
   80SLPC  H18Y 7479   1.718   3.143   8.791 -0.5955  0.6948  1.7733
   80SLPC  H18Z 7480   1.613   3.021   8.874  1.9502  1.3403  0.1936
   81SAPS     N 7481   3.002   5.368  11.195 -0.0443 -0.4414 -0.2312
   81SAPS   HN1 7482   3.053   5.338  11.281 -0.3541  1.0649  0.4902
   81SAPS   HN2 7483   2.993   5.292  11.124  1.9191 -1.2257  0.3272
   81SAPS   HN3 7484   3.057   5.449  11.160 -1.8454  0.8657 -0.1062
   81SAPS   C12 7485   2.863   5.398  11.218  0.2886 -0.0156 -0.2336
   81SAPS  H12A 7486   2.833   5.316  11.282  1.3319 -0.5673 -0.4389
   81SAPS   C13 7487   2.837   5.536  11.296  0.5836 -0.6689 -1.0384
   81SAPS  O13A 7488   2.927   5.607  11.351  0.0618  0.4974  0.2126
   81SAPS  O13B 7489   2.721   5.581  11.283 -0.3359 -0.0654  0.2261
   81SAPS   C11 7490   2.786   5.409  11.087  0.0434  0.2059 -0.9714
   81SAPS  H11A 7491   2.823   5.503  11.039  0.9711  0.4616  0.2152
   81SAPS  H11B 7492   2.678   5.422  11.107 -0.3680 -0.3380 -2.7956
   81SAPS     P 7493   2.699   5.208  10.938  0.0465 -0.1609 -0.4223
   81SAPS   O13 7494   2.765   5.102  10.850 -0.2991  0.2595 -0.3469
   81SAPS   O14 7495   2.616   5.160  11.048 -0.3225 -0.0674  0.3532
   81SAPS   O12 7496   2.813   5.293  11.011 -0.2824  0.5016  0.7015
   81SAPS   O11 7497   2.614   5.301  10.860  0.5738  0.4274 -0.6643
   81SAPS    C1 7498   2.660   5.406  10.778 -0.1790  0.3335 -0.0087
   81SAPS    HA 7499   2.631   5.502  10.825 -0.5071 -0.0312  0.5383
   81SAPS    HB 7500   2.769   5.420  10.765  0.1799 -0.3917  2.0598
   81SAPS    C2 7501   2.580   5.405  10.643 -0.6128 -1.4191 -0.1333
   81SAPS    HS 7502   2.474   5.398  10.675 -0.6225  1.0325  0.4559
   81SAPS   O21 7503   2.637   5.297  10.566  0.3620  0.5676 -0.1999
   81SAPS   C21 7504   2.550   5.203  10.529  0.7924  0.2402  0.6319
   81SAPS   O22 7505   2.431   5.209  10.543  0.1472  0.0328 -0.0260
   81SAPS   C22 7506   2.621   5.075  10.472  0.0994 -0.1226  0.6190
   81SAPS   H2R 7507   2.718   5.075  10.527  0.8234  2.2000 -0.5789
   81SAPS   H2S 7508   2.552   4.991  10.493  0.9639 -1.6988 -2.5546
   81SAPS    C3 7509   2.607   5.537  10.560  0.3706  0.7928 -0.7649
   81SAPS    HX 7510   2.718   5.545  10.550  0.7347 -0.8011  1.5446
   81SAPS    HY 7511   2.571   5.624  10.619 -2.2047 -0.9628  0.3291
   81SAPS   O31 7512   2.534   5.533  10.439 -0.6018  0.4723  0.2151
   81SAPS   C31 7513   2.604   5.500  10.331 -0.5762 -0.1538 -0.7408
   81SAPS   O32 7514   2.729   5.487  10.331 -0.6041 -0.6805  0.4422
   81SAPS   C32 7515   2.508   5.479  10.215  0.7098 -0.6378 -0.1408
   81SAPS   H2X 7516   2.471   5.580  10.188 -0.7305 -0.4631  2.3715
   81SAPS   H2Y 7517   2.424   5.418  10.256 -1.0886  1.3866 -0.7291
   81SAPS   C23 7518   2.650   5.101  10.321 -0.1181 -0.4841 -0.3338
   81SAPS   H3R 7519   2.705   5.196  10.305 -0.3705 -0.3380 -0.3290
   81SAPS   H3S 7520   2.553   5.115  10.269  0.5594 -0.2748 -1.5682
   81SAPS   C24 7521   2.742   5.004  10.248 -0.6452  0.3724  0.0851
   81SAPS   H4R 7522   2.837   5.009  10.305 -1.1166  1.2841  0.7988
   81SAPS   H4S 7523   2.764   5.032  10.143 -1.5533 -0.5273 -0.3561
   81SAPS   C25 7524   2.698   4.859  10.249  0.2246 -0.8408  0.5297
   81SAPS   H5R 7525   2.757   4.795  10.316 -0.9240 -1.1366  1.2791
   81SAPS   C26 7526   2.609   4.802  10.163  0.5183 -1.1126 -1.1948
   81SAPS   H6R 7527   2.574   4.698  10.172 -1.0577 -0.5167 -0.0796
   81SAPS   C27 7528   2.540   4.872  10.046 -0.3135 -0.4576  0.0353
   81SAPS   H7R 7529   2.530   4.981  10.063 -1.8631 -0.5984  0.1170
   81SAPS   H7S 7530   2.438   4.828  10.042 -0.9300  0.6740  2.5028
   81SAPS   C28 7531   2.631   4.853   9.917  0.4951 -0.1927  0.2680
   81SAPS   H8R 7532   2.736   4.879   9.934 -0.0732  1.5968  1.2412
   81SAPS   C29 7533   2.586   4.800   9.806 -0.2023  0.2858 -0.2526
   81SAPS   H9R 7534   2.653   4.783   9.721 -0.0520  0.6910 -0.2159
   81SAPS  C210 7535   2.445   4.762   9.770 -0.1387 -0.2907 -0.1199
   81SAPS  H10R 7536   2.418   4.779   9.664 -0.6780  0.6681  0.1640
   81SAPS  H10S 7537   2.380   4.831   9.827 -0.3328 -0.8478  0.3386
   81SAPS  C211 7538   2.419   4.620   9.811  0.3604  0.1796 -0.7897
   81SAPS  H11R 7539   2.384   4.610   9.915  0.9312  0.1269 -0.6021
   81SAPS  C212 7540   2.439   4.514   9.735  0.3071  0.6453 -0.8210
   81SAPS  H12R 7541   2.434   4.424   9.798 -2.0456  0.1294 -1.7053
   81SAPS  C213 7542   2.483   4.506   9.592 -0.4480  0.3049  0.7149
   81SAPS  H13R 7543   2.499   4.397   9.574 -1.3741  0.3978 -0.7109
   81SAPS  H13S 7544   2.575   4.565   9.580  0.7564 -2.1856 -3.1060
   81SAPS  C214 7545   2.402   4.541   9.474  0.8126 -0.4033  0.5036
   81SAPS  H14R 7546   2.306   4.587   9.501  0.4970 -1.3874  1.0978
   81SAPS  C215 7547   2.424   4.506   9.344 -0.1933  0.1649 -0.4222
   81SAPS  H15R 7548   2.349   4.517   9.264 -0.5470 -2.6524 -0.5232
   81SAPS  C216 7549   2.533   4.425   9.280  0.7262  0.0345  0.2251
   81SAPS  H16R 7550   2.487   4.331   9.240 -0.5655 -0.3561  2.5226
   81SAPS  H16S 7551   2.608   4.402   9.359  1.9948  0.5852 -0.8211
   81SAPS  C217 7552   2.607   4.509   9.167 -0.4365 -0.3683  0.4663
   81SAPS  H17R 7553   2.683   4.442   9.122 -0.7379 -0.0246 -0.5605
   81SAPS  H17S 7554   2.657   4.592   9.221 -1.3536 -0.7299  1.8971
   81SAPS  C218 7555   2.532   4.559   9.040 -0.0307  0.9024  0.1210
   81SAPS  H18R 7556   2.467   4.641   9.078  0.6561  2.2227 -1.5267
   81SAPS  H18S 7557   2.468   4.482   8.992  1.0088 -0.9677  1.6374
   81SAPS  C219 7558   2.625   4.611   8.924  0.1106 -0.2145  0.3999
   81SAPS  H19R 7559   2.713   4.554   8.887  0.5492  0.3996  0.4936
   81SAPS  H19S 7560   2.680   4.683   8.989 -1.9417  0.4350  1.4746
   81SAPS  C220 7561   2.560   4.698   8.810  0.0534 -0.1398 -0.5542
   81SAPS  H20R 7562   2.493   4.772   8.859 -1.5804  0.3118 -3.3632
   81SAPS  H20S 7563   2.508   4.634   8.736 -1.2545  0.6183 -0.3039
   81SAPS  H20T 7564   2.642   4.752   8.757  0.0881  1.4708  1.0742
   81SAPS   C33 7565   2.566   5.418  10.082  0.6489 -0.5569 -0.1529
   81SAPS   H3X 7566   2.553   5.308  10.085 -1.3429 -0.3426  0.3926
   81SAPS   H3Y 7567   2.674   5.441  10.069  0.3294  2.5355  1.9693
   81SAPS   C34 7568   2.499   5.471   9.958 -0.5889 -0.0412 -0.4647
   81SAPS   H4X 7569   2.478   5.580   9.967  4.1842  0.7865  2.1801
   81SAPS   H4Y 7570   2.404   5.416   9.940 -1.1263  0.8345 -0.3510
   81SAPS   C35 7571   2.586   5.445   9.831  0.2786  0.5432 -0.4891
   81SAPS   H5X 7572   2.611   5.337   9.825 -0.6875  0.3668 -1.5502
   81SAPS   H5Y 7573   2.688   5.489   9.839  0.0274  0.7339  1.9698
   81SAPS   C36 7574   2.513   5.491   9.703  0.0414 -0.1499 -0.1413
   81SAPS   H6X 7575   2.539   5.597   9.680 -1.2637 -0.1248 -1.5450
   81SAPS   H6Y 7576   2.406   5.487   9.730  0.5558  0.2713  2.0557
   81SAPS   C37 7577   2.549   5.402   9.585  0.0495  0.2142  0.0641
   81SAPS   H7X 7578   2.472   5.399   9.504  1.6904 -2.2784 -1.4682
   81SAPS   H7Y 7579   2.553   5.295   9.617 -2.1381  1.5439  5.3288
   81SAPS   C38 7580   2.681   5.444   9.515  0.2346  0.2775 -0.2735
   81SAPS   H8X 7581   2.753   5.445   9.599 -0.1753  0.2886  0.0770
   81SAPS   H8Y 7582   2.677   5.549   9.481  1.4904 -0.0326 -1.4430
   81SAPS   C39 7583   2.728   5.336   9.419  0.0274 -0.7731 -0.6756
   81SAPS   H9X 7584   2.645   5.312   9.348 -0.5428 -1.0984  0.0911
   81SAPS   H9Y 7585   2.761   5.246   9.475  0.2852  0.7866  1.7557
   81SAPS  C310 7586   2.855   5.385   9.335 -0.0684  0.0117 -1.3347
   81SAPS  H10X 7587   2.889   5.291   9.287  0.4945  0.6803 -2.2560
   81SAPS  H10Y 7588   2.929   5.409   9.413 -0.1016  0.3699 -1.4103
   81SAPS  C311 7589   2.820   5.503   9.233 -0.6380 -0.2292  0.4000
   81SAPS  H11X 7590   2.744   5.568   9.281 -0.2556 -0.1191  0.8638
   81SAPS  H11Y 7591   2.783   5.454   9.141  0.8272  0.6116 -0.6518
   81SAPS  C312 7592   2.939   5.596   9.195 -0.2078  0.8998 -0.0490
   81SAPS  H12X 7593   2.985   5.642   9.285  0.3634 -0.5186  0.4037
   81SAPS  H12Y 7594   2.899   5.685   9.142  0.7934  1.5760  0.3001
   81SAPS  C313 7595   3.043   5.542   9.106 -0.7001 -0.2397  0.5535
   81SAPS  H13X 7596   2.992   5.491   9.022 -1.5112 -2.3439  2.2713
   81SAPS  H13Y 7597   3.104   5.472   9.167  1.2097 -0.6524 -1.7728
   81SAPS  C314 7598   3.121   5.651   9.039 -0.9817  0.2455  0.4172
   81SAPS  H14X 7599   3.160   5.710   9.125  0.3379 -0.6920  0.4870
   81SAPS  H14Y 7600   3.064   5.714   8.968 -3.5412 -0.6553  1.6218
   81SAPS  C315 7601   3.235   5.599   8.954  1.1496  0.0819  0.2214
   81SAPS  H15X 7602   3.195   5.542   8.868 -1.3998  0.3138  1.1923
   81SAPS  H15Y 7603   3.303   5.534   9.014  2.3323 -0.4943 -1.6960
   81SAPS  C316 7604   3.336   5.716   8.908 -0.4819  0.4653 -0.2179
   81SAPS  H16X 7605   3.373   5.783   8.989 -1.2066  1.3748 -0.6278
   81SAPS  H16Y 7606   3.283   5.784   8.837  0.7075  1.4592 -0.1781
   81SAPS  C317 7607   3.453   5.669   8.826  0.1544  0.0006  0.6528
   81SAPS  H17X 7608   3.428   5.647   8.720 -0.2477  1.2863  0.4810
   81SAPS  H17Y 7609   3.499   5.582   8.879  1.6549  1.1931  1.3624
   81SAPS  C318 7610   3.557   5.783   8.821 -0.2044 -0.3407  0.1154
   81SAPS  H18X 7611   3.628   5.766   8.737 -0.5654 -0.0503 -0.2450
   81SAPS  H18Y 7612   3.624   5.792   8.910  0.0645  1.9433 -0.2728
   81SAPS  H18Z 7613   3.501   5.876   8.799 -0.7161 -0.9745 -1.2892
   82SAPS     N 7614   1.865   4.001  11.031 -1.2490  0.1069  0.0806
   82SAPS   HN1 7615   1.911   4.055  11.108 -1.3795 -0.4313  0.5416
   82SAPS   HN2 7616   1.912   3.910  11.016 -0.6832  0.3082  0.5987
   82SAPS   HN3 7617   1.857   4.057  10.944  0.0657 -0.4645 -0.4176
   82SAPS   C12 7618   1.722   3.972  11.079  0.1737  0.5840 -0.2225
   82SAPS  H12A 7619   1.707   3.866  11.096 -2.2570  0.8829 -0.4353
   82SAPS   C13 7620   1.678   4.051  11.210 -0.2987  0.6641  0.1364
   82SAPS  O13A 7621   1.752   4.134  11.264  0.1709 -0.0996 -0.2436
   82SAPS  O13B 7622   1.574   4.016  11.261  0.1069 -0.2795 -0.3072
   82SAPS   C11 7623   1.634   4.009  10.957 -0.4736 -0.0882  0.3392
   82SAPS  H11A 7624   1.528   4.003  10.991 -0.2529  2.4505  1.5268
   82SAPS  H11B 7625   1.647   3.935  10.875 -0.7769  0.7695 -0.4917
   82SAPS     P 7626   1.551   4.230  10.840  0.1296  0.2703 -0.3745
   82SAPS   O13 7627   1.470   4.269  10.954  1.0014  0.0030  0.3036
   82SAPS   O14 7628   1.624   4.340  10.772  0.5735  0.8427  0.3238
   82SAPS   O12 7629   1.663   4.131  10.899 -0.7704  0.2258 -0.1948
   82SAPS   O11 7630   1.474   4.147  10.732  0.3345  0.4927 -0.2197
   82SAPS    C1 7631   1.541   4.091  10.614 -0.0715  0.0192 -0.4398
   82SAPS    HA 7632   1.650   4.075  10.624 -0.0921 -0.2775 -0.7064
   82SAPS    HB 7633   1.513   3.984  10.602  0.6242 -0.2480  0.2518
   82SAPS    C2 7634   1.517   4.172  10.483 -0.1562  0.0706  0.4634
   82SAPS    HS 7635   1.566   4.270  10.500  1.8903 -0.6341 -1.2131
   82SAPS   O21 7636   1.379   4.183  10.459  0.2570  0.3157 -0.2003
   82SAPS   C21 7637   1.338   4.292  10.394  0.3535  0.4887 -0.1848
   82SAPS   O22 7638   1.410   4.387  10.368  0.4562  0.2096  0.1520
   82SAPS   C22 7639   1.188   4.290  10.361 -0.9576 -0.3843  0.5550
   82SAPS   H2R 7640   1.147   4.277  10.463 -1.8853  3.0237  0.6614
   82SAPS   H2S 7641   1.168   4.389  10.315  2.4559  0.5534  0.9509
   82SAPS    C3 7642   1.589   4.106  10.358  0.1167  0.7883 -0.1257
   82SAPS    HX 7643   1.547   4.003  10.360  2.2893 -0.1486 -1.9470
   82SAPS    HY 7644   1.698   4.101  10.376 -0.1680  1.4703  1.9694
   82SAPS   O31 7645   1.543   4.162  10.237  0.1289 -0.2197  0.0043
   82SAPS   C31 7646   1.624   4.247  10.182  0.1315 -0.3372  0.0233
   82SAPS   O32 7647   1.733   4.284  10.220  0.2432  0.0394 -0.0077
   82SAPS   C32 7648   1.567   4.279  10.041 -0.3714  0.5893 -0.5312
   82SAPS   H2X 7649   1.597   4.383  10.014 -0.9113  0.7516 -0.5021
   82SAPS   H2Y 7650   1.457   4.267  10.041 -0.3901  0.7112  0.2138
   82SAPS   C23 7651   1.142   4.174  10.267 -0.7130  0.0089 -0.5149
   82SAPS   H3R 7652   1.146   4.077  10.321  0.3756 -0.4206 -1.3673
   82SAPS   H3S 7653   1.202   4.169  10.174 -1.0964  0.0032 -0.7636
   82SAPS   C24 7654   0.998   4.197  10.224  0.2247 -0.3942 -0.2838
   82SAPS   H4R 7655   0.985   4.268  10.139  0.9761 -1.5168 -1.3726
   82SAPS   H4S 7656   0.946   4.243  10.310 -0.3067  1.8913 -1.7949
   82SAPS   C25 7657   0.931   4.064  10.201  0.2881  0.2456  0.3104
   82SAPS   H5R 7658   0.913   4.012  10.296  0.1793  0.2447  0.2889
   82SAPS   C26 7659   0.897   3.998  10.090  0.1535 -0.0439  0.4016
   82SAPS   H6R 7660   0.859   3.896  10.101  2.2187 -1.1200 -2.1763
   82SAPS   C27 7661   0.929   4.061   9.960 -0.2283 -0.0811  0.3112
   82SAPS   H7R 7662   1.037   4.049   9.936 -0.4768 -1.8426  0.0484
   82SAPS   H7S 7663   0.915   4.171   9.954 -1.0752 -0.2647 -1.1905
   82SAPS   C28 7664   0.862   3.995   9.847 -0.0656  0.0745 -0.7152
   82SAPS   H8R 7665   0.780   3.924   9.866  2.4511 -2.3565  1.6294
   82SAPS   C29 7666   0.883   4.031   9.721  0.4810  0.2740 -0.0609
   82SAPS   H9R 7667   0.823   3.971   9.651  0.0355  2.6572 -1.8035
   82SAPS  C210 7668   0.955   4.152   9.672  0.2949  0.2338  0.1838
   82SAPS  H10R 7669   1.046   4.162   9.735  1.1840 -1.6784 -0.7495
   82SAPS  H10S 7670   0.889   4.240   9.685 -0.9863 -0.8344  1.1905
   82SAPS  C211 7671   1.013   4.179   9.536  0.2396  0.0222  0.8728
   82SAPS  H11R 7672   1.107   4.236   9.543  0.1079  0.1853  1.3641
   82SAPS  C212 7673   0.967   4.157   9.412 -0.4523  0.0289  0.0597
   82SAPS  H12R 7674   1.030   4.192   9.329 -0.2246  0.1184  0.2700
   82SAPS  C213 7675   0.830   4.098   9.374  0.2186  0.5078 -0.8490
   82SAPS  H13R 7676   0.750   4.151   9.431  1.3353  0.0673  1.1772
   82SAPS  H13S 7677   0.835   3.994   9.412 -0.6937  0.6569 -0.2982
   82SAPS  C214 7678   0.819   4.090   9.221 -0.5466 -0.1092 -0.2161
   82SAPS  H14R 7679   0.880   4.013   9.171  1.8017  1.6976 -0.2138
   82SAPS  C215 7680   0.742   4.172   9.141 -0.3826  0.8394 -0.2465
   82SAPS  H15R 7681   0.745   4.163   9.031 -0.7074  1.3093 -0.2962
   82SAPS  C216 7682   0.650   4.280   9.184  0.6103  0.2564 -0.1524
   82SAPS  H16R 7683   0.664   4.298   9.293  0.0925  1.3567 -0.2592
   82SAPS  H16S 7684   0.545   4.248   9.169  0.0761  1.4329  0.9770
   82SAPS  C217 7685   0.662   4.429   9.127  0.3924  0.2719  0.1141
   82SAPS  H17R 7686   0.753   4.472   9.174  0.7847 -1.4686  0.9799
   82SAPS  H17S 7687   0.570   4.477   9.166 -0.0442 -0.0784 -0.4719
   82SAPS  C218 7688   0.679   4.454   8.982 -0.1220  0.0524  0.6589
   82SAPS  H18R 7689   0.602   4.387   8.937 -0.8030 -0.5153  2.5946
   82SAPS  H18S 7690   0.775   4.410   8.948 -0.5158 -2.3215  2.4568
   82SAPS  C219 7691   0.657   4.600   8.926 -0.4498  0.7540  0.3510
   82SAPS  H19R 7692   0.689   4.605   8.819  1.2655  0.2940  0.8310
   82SAPS  H19S 7693   0.723   4.670   8.982  1.3910  0.2847 -1.1596
   82SAPS  C220 7694   0.511   4.645   8.932  0.4177  0.5713  0.0900
   82SAPS  H20R 7695   0.486   4.745   8.890 -1.2976  0.1831  0.1396
   82SAPS  H20S 7696   0.490   4.652   9.041  2.3752 -1.1828  0.6053
   82SAPS  H20T 7697   0.436   4.570   8.899  1.4951 -1.0602  1.2648
   82SAPS   C33 7698   1.634   4.197   9.929  0.4764  0.3368  0.7999
   82SAPS   H3X 7699   1.609   4.089   9.943 -0.2301  0.4818  0.6655
   82SAPS   H3Y 7700   1.743   4.203   9.950  0.7524 -1.1309 -0.1578
   82SAPS   C34 7701   1.606   4.256   9.796  0.2331 -0.5412 -0.2994
   82SAPS   H4X 7702   1.638   4.175   9.727  1.1210 -1.9542  1.7355
   82SAPS   H4Y 7703   1.669   4.346   9.775  1.3464 -0.6258  2.4838
   82SAPS   C35 7704   1.462   4.307   9.770 -0.1474  0.5771 -0.0965
   82SAPS   H5X 7705   1.455   4.399   9.833  0.9306 -0.4698  1.6006
   82SAPS   H5Y 7706   1.384   4.235   9.803  0.8486 -0.9188 -0.9153
   82SAPS   C36 7707   1.447   4.333   9.619 -0.3899  0.2889  0.0054
   82SAPS   H6X 7708   1.524   4.411   9.598 -0.0827  0.1315  0.5456
   82SAPS   H6Y 7709   1.348   4.381   9.604 -0.6346  0.4346  2.0527
   82SAPS   C37 7710   1.445   4.218   9.522  0.5862  0.1018 -0.0426
   82SAPS   H7X 7711   1.354   4.154   9.522 -0.2394  1.2494 -0.1962
   82SAPS   H7Y 7712   1.541   4.162   9.526 -1.1648 -3.0415 -0.9048
   82SAPS   C38 7713   1.438   4.287   9.380 -0.0448  0.0068 -0.0961
   82SAPS   H8X 7714   1.467   4.204   9.311  1.7078  2.2646 -2.1722
   82SAPS   H8Y 7715   1.515   4.367   9.374 -2.7830  2.7074 -0.7884
   82SAPS   C39 7716   1.304   4.338   9.335 -0.0174 -0.1954 -0.4358
   82SAPS   H9X 7717   1.277   4.425   9.397  1.3767 -1.6328  2.2668
   82SAPS   H9Y 7718   1.232   4.253   9.345 -0.9297  0.6455  0.1638
   82SAPS  C310 7719   1.299   4.376   9.186  0.1857  0.1362 -0.2953
   82SAPS  H10X 7720   1.317   4.285   9.126  0.2459 -0.5708  0.7729
   82SAPS  H10Y 7721   1.377   4.451   9.159 -1.2508  2.3623  1.5216
   82SAPS  C311 7722   1.175   4.441   9.152  0.0906 -0.1491 -0.1322
   82SAPS  H11X 7723   1.142   4.517   9.226  1.0474  1.1625 -1.0224
   82SAPS  H11Y 7724   1.095   4.364   9.161 -0.7235  0.5730 -1.0455
   82SAPS  C312 7725   1.162   4.497   9.011  0.7892  0.8113 -0.4399
   82SAPS  H12X 7726   1.249   4.566   9.000  2.1908 -1.0808 -1.3626
   82SAPS  H12Y 7727   1.069   4.557   9.002 -0.1239 -0.3950  0.9110
   82SAPS  C313 7728   1.168   4.402   8.888  0.2612  0.2229 -0.4821
   82SAPS  H13X 7729   1.265   4.349   8.889  1.1434  1.8533  0.7308
   82SAPS  H13Y 7730   1.158   4.444   8.785  0.7616  0.3824 -0.4680
   82SAPS  C314 7731   1.059   4.284   8.889  0.4529 -0.5984 -0.0367
   82SAPS  H14X 7732   0.955   4.324   8.884  1.4821  1.9544 -2.4680
   82SAPS  H14Y 7733   1.066   4.232   8.987 -1.5238  1.6139  1.3388
   82SAPS  C315 7734   1.085   4.195   8.767 -0.2998 -0.8912 -0.2276
   82SAPS  H15X 7735   1.193   4.165   8.769 -0.2117 -0.4963  1.3999
   82SAPS  H15Y 7736   1.078   4.251   8.672  0.4755  0.6526  0.6049
   82SAPS  C316 7737   1.001   4.065   8.764  0.5981  0.0874 -0.3751
   82SAPS  H16X 7738   0.894   4.091   8.776 -0.4589 -3.9361 -0.5253
   82SAPS  H16Y 7739   1.014   4.008   8.858 -0.0351 -0.0341 -0.3598
   82SAPS  C317 7740   1.027   3.972   8.649 -0.0648 -0.0294 -0.1299
   82SAPS  H17X 7741   1.118   3.916   8.678  0.0383  0.1411 -0.1246
   82SAPS  H17Y 7742   1.052   4.033   8.560  0.3453  1.0805  0.7363
   82SAPS  C318 7743   0.916   3.879   8.602  0.5144  0.3753 -0.3628
   82SAPS  H18X 7744   0.949   3.834   8.505 -0.9588  0.7839 -1.0690
   82SAPS  H18Y 7745   0.821   3.936   8.596  0.5594  0.7803  2.2401
   82SAPS  H18Z 7746   0.912   3.796   8.675 -0.3693  1.2167  0.5506
   83SAPS     N 7747   3.083   5.798  11.218 -0.8869  0.1042 -0.5470
   83SAPS   HN1 7748   3.186   5.783  11.224 -0.9780 -1.0606 -1.8763
   83SAPS   HN2 7749   3.059   5.889  11.263  0.4973 -0.4161  1.3212
   83SAPS   HN3 7750   3.032   5.721  11.266  1.1250  1.1299  3.5601
   83SAPS   C12 7751   3.048   5.805  11.070 -0.6159  0.3992 -0.5004
   83SAPS  H12A 7752   3.119   5.873  11.026 -1.5180  0.9974 -1.0298
   83SAPS   C13 7753   3.066   5.674  10.992  0.3129 -0.0921  0.0020
   83SAPS  O13A 7754   3.100   5.570  11.054  0.1358 -0.0534 -0.6423
   83SAPS  O13B 7755   3.033   5.671  10.870  0.7040 -0.2778 -0.5552
   83SAPS   C11 7756   2.898   5.838  11.051  0.1632 -0.4190 -0.7223
   83SAPS  H11A 7757   2.848   5.760  11.112 -0.6022 -0.7302 -1.7472
   83SAPS  H11B 7758   2.860   5.829  10.947 -0.5528 -1.7987 -0.3468
   83SAPS     P 7759   2.792   6.087  11.014  0.4814  0.1865  0.1987
   83SAPS   O13 7760   2.646   6.061  10.998  0.1434  0.3903  0.1999
   83SAPS   O14 7761   2.832   6.216  11.077  0.4704 -0.1957  0.4460
   83SAPS   O12 7762   2.853   5.966  11.106  0.0828  0.0206  0.8905
   83SAPS   O11 7763   2.859   6.070  10.872  0.0779 -0.4773  0.1125
   83SAPS    C1 7764   2.990   6.129  10.841 -0.0842  0.4562  0.1456
   83SAPS    HA 7765   3.034   6.179  10.931  0.4974 -0.1300  0.1915
   83SAPS    HB 7766   3.064   6.051  10.815 -0.9672 -0.1493 -0.5561
   83SAPS    C2 7767   2.982   6.235  10.728  0.5435  0.3438 -0.0450
   83SAPS    HS 7768   2.899   6.307  10.746 -0.1982 -0.1643 -1.3891
   83SAPS   O21 7769   2.957   6.167  10.600  0.4865  0.2912 -0.1624
   83SAPS   C21 7770   2.836   6.143  10.570  0.2700 -0.0144  0.4245
   83SAPS   O22 7771   2.740   6.184  10.627 -0.7831 -0.4256 -0.3749
   83SAPS   C22 7772   2.851   6.028  10.466 -0.2687 -0.0770  0.5058
   83SAPS   H2R 7773   2.941   6.051  10.404 -1.3503  1.7947 -0.4165
   83SAPS   H2S 7774   2.875   5.935  10.521  0.7495 -0.5624 -0.7237
   83SAPS    C3 7775   3.105   6.316  10.713 -0.7615 -0.1140  0.3139
   83SAPS    HX 7776   3.185   6.239  10.719 -1.2865 -0.7771 -0.9006
   83SAPS    HY 7777   3.122   6.376  10.804  0.1980 -1.1220  0.8167
   83SAPS   O31 7778   3.112   6.396  10.589  0.9780 -0.2047 -0.0852
   83SAPS   C31 7779   3.217   6.364  10.508  0.1633  0.1770 -0.2218
   83SAPS   O32 7780   3.281   6.260  10.523 -0.0618 -0.1373  0.2060
   83SAPS   C32 7781   3.261   6.471  10.420  0.3631  0.0485 -0.2237
   83SAPS   H2X 7782   3.365   6.496  10.448  0.9762 -1.9838 -0.6578
   83SAPS   H2Y 7783   3.186   6.553  10.429  0.8111  0.1670  3.0516
   83SAPS   C23 7784   2.728   6.025  10.374 -0.3758 -0.1813 -0.1106
   83SAPS   H3R 7785   2.752   6.086  10.285  1.3407  1.0369  1.1577
   83SAPS   H3S 7786   2.636   6.064  10.422 -1.1062 -0.5580 -1.1767
   83SAPS   C24 7787   2.693   5.888  10.318  0.1270  0.0717 -0.4707
   83SAPS   H4R 7788   2.694   5.818  10.405 -0.6439  0.8292  0.1536
   83SAPS   H4S 7789   2.767   5.846  10.247  0.7874  0.4337 -0.0012
   83SAPS   C25 7790   2.554   5.881  10.260  0.0496  0.0322 -0.1717
   83SAPS   H5R 7791   2.477   5.861  10.336  0.5456 -1.0119  0.0708
   83SAPS   C26 7792   2.519   5.855  10.134  0.0869  0.0523 -0.3567
   83SAPS   H6R 7793   2.418   5.826  10.104  0.0642 -1.9128  1.4882
   83SAPS   C27 7794   2.623   5.845  10.021  0.5314  0.2664 -0.1427
   83SAPS   H7R 7795   2.584   5.790   9.932  0.2249 -2.0702  1.3970
   83SAPS   H7S 7796   2.705   5.778  10.055 -1.4712 -2.4731 -0.5115
   83SAPS   C28 7797   2.682   5.977   9.964  0.5220 -0.3359 -0.1177
   83SAPS   H8R 7798   2.708   6.047  10.045 -4.7777  0.0058  1.5381
   83SAPS   C29 7799   2.691   6.013   9.831  0.2562  0.4813 -0.1606
   83SAPS   H9R 7800   2.736   6.112   9.815 -2.6684  2.1854  1.7858
   83SAPS  C210 7801   2.651   5.935   9.707  0.5456  0.0805  0.0126
   83SAPS  H10R 7802   2.544   5.955   9.682  0.8027 -0.4440 -1.5189
   83SAPS  H10S 7803   2.655   5.828   9.735 -0.7674 -0.4203 -1.6571
   83SAPS  C211 7804   2.738   5.947   9.581 -0.5229  0.2665 -0.3701
   83SAPS  H11R 7805   2.839   5.987   9.595 -1.3719  2.0133  1.0442
   83SAPS  C212 7806   2.690   5.931   9.457  0.1228 -0.0030 -0.6311
   83SAPS  H12R 7807   2.759   5.941   9.372  0.3850 -0.9281 -0.5330
   83SAPS  C213 7808   2.547   5.892   9.417 -0.1329  0.3271 -0.5863
   83SAPS  H13R 7809   2.488   5.980   9.386 -1.4101  1.0191  3.4740
   83SAPS  H13S 7810   2.485   5.853   9.501  1.5378  0.6481  0.8347
   83SAPS  C214 7811   2.560   5.791   9.314  0.2496  0.4988 -0.1503
   83SAPS  H14R 7812   2.529   5.693   9.353 -0.2973  1.5132  2.0246
   83SAPS  C215 7813   2.593   5.810   9.181  0.2899  0.7728  0.3764
   83SAPS  H15R 7814   2.593   5.722   9.115 -2.7946  2.7272 -2.4099
   83SAPS  C216 7815   2.632   5.944   9.119 -0.2568  0.0243  0.5110
   83SAPS  H16R 7816   2.741   5.959   9.137  0.0043 -0.1234 -0.9008
   83SAPS  H16S 7817   2.579   6.030   9.165  0.6380  0.3319  0.9757
   83SAPS  C217 7818   2.610   5.946   8.970  0.3968  0.0945  0.7699
   83SAPS  H17R 7819   2.633   6.050   8.940 -1.7353  0.2742 -0.3216
   83SAPS  H17S 7820   2.502   5.931   8.949  0.4128  0.5768  0.3498
   83SAPS  C218 7821   2.712   5.866   8.889  0.5285  0.3391  0.3304
   83SAPS  H18R 7822   2.689   5.758   8.902 -1.9962  0.7076 -0.7424
   83SAPS  H18S 7823   2.820   5.880   8.908  0.2422  1.4367  1.2043
   83SAPS  C219 7824   2.700   5.889   8.735  0.3732  0.5377  0.4289
   83SAPS  H19R 7825   2.666   5.993   8.714  1.9865  1.1609  0.8608
   83SAPS  H19S 7826   2.623   5.820   8.694 -0.2315  2.2015 -1.3115
   83SAPS  C220 7827   2.834   5.868   8.668 -0.0404 -0.1132 -0.2541
   83SAPS  H20R 7828   2.874   5.765   8.683  0.6261 -0.2010 -2.4461
   83SAPS  H20S 7829   2.899   5.950   8.703  0.6523 -0.5010 -0.6041
   83SAPS  H20T 7830   2.830   5.878   8.557 -0.3082  2.3059 -0.0482
   83SAPS   C33 7831   3.272   6.438  10.271  0.8305 -0.3714 -0.3566
   83SAPS   H3X 7832   3.288   6.523  10.202  1.1345 -1.4928 -1.6763
   83SAPS   H3Y 7833   3.177   6.382  10.255  1.8476 -2.0645 -0.6090
   83SAPS   C34 7834   3.390   6.349  10.244  0.5597  0.6648  0.8950
   83SAPS   H4X 7835   3.375   6.255  10.300 -1.8697  0.2925 -0.2973
   83SAPS   H4Y 7836   3.486   6.386  10.287  0.2666  2.4769  0.0674
   83SAPS   C35 7837   3.414   6.312  10.102 -0.4872  0.1104 -0.8511
   83SAPS   H5X 7838   3.316   6.280  10.061 -0.7512 -0.9461  0.5537
   83SAPS   H5Y 7839   3.477   6.221  10.113 -0.4347  0.3239  0.7906
   83SAPS   C36 7840   3.453   6.424  10.011  0.0237 -0.0602  0.1904
   83SAPS   H6X 7841   3.562   6.435  10.028 -0.0818  2.2829 -0.4788
   83SAPS   H6Y 7842   3.413   6.524  10.039 -0.5830 -0.6968  1.6860
   83SAPS   C37 7843   3.417   6.400   9.865  0.1138  0.6980 -0.2595
   83SAPS   H7X 7844   3.315   6.434   9.837  0.3619 -0.8896 -3.3024
   83SAPS   H7Y 7845   3.426   6.292   9.842  0.4876  0.8452 -0.8154
   83SAPS   C38 7846   3.517   6.478   9.775 -0.1110 -0.8483 -0.0690
   83SAPS   H8X 7847   3.622   6.461   9.808  0.0170 -0.5143 -0.3049
   83SAPS   H8Y 7848   3.492   6.585   9.788  2.5980 -0.0388 -1.2202
   83SAPS   C39 7849   3.501   6.442   9.625  0.5018  0.3137  0.6012
   83SAPS   H9X 7850   3.402   6.392   9.621 -0.0613  1.4323  0.2642
   83SAPS   H9Y 7851   3.583   6.371   9.605 -2.5298 -2.9514 -0.7494
   83SAPS  C310 7852   3.503   6.565   9.533 -0.7447  0.1135 -0.0705
   83SAPS  H10X 7853   3.600   6.617   9.549  0.0679 -1.1710 -0.7587
   83SAPS  H10Y 7854   3.416   6.626   9.566 -2.8682 -1.7794 -1.9751
   83SAPS  C311 7855   3.486   6.540   9.385  0.7271 -0.2408  0.3003
   83SAPS  H11X 7856   3.465   6.636   9.333 -1.7351 -0.6980  0.3769
   83SAPS  H11Y 7857   3.394   6.478   9.376  0.1003  0.6871  0.2045
   83SAPS  C312 7858   3.600   6.476   9.303  0.4057 -0.1511  0.7127
   83SAPS  H12X 7859   3.647   6.395   9.363  1.6225  0.1787  0.2086
   83SAPS  H12Y 7860   3.673   6.557   9.283 -0.8808  0.4333 -1.8035
   83SAPS  C313 7861   3.556   6.397   9.182  0.4974  0.0203  0.8482
   83SAPS  H13X 7862   3.490   6.313   9.211  1.0204 -1.6114 -2.4197
   83SAPS  H13Y 7863   3.642   6.341   9.139 -1.6835 -1.4322 -1.7905
   83SAPS  C314 7864   3.503   6.500   9.080 -0.3318  0.7947  0.1331
   83SAPS  H14X 7865   3.586   6.573   9.067 -0.3633  0.6544 -0.8915
   83SAPS  H14Y 7866   3.417   6.558   9.121 -0.2091 -0.1974  1.8303
   83SAPS  C315 7867   3.468   6.440   8.947 -0.3836 -0.7634 -0.5870
   83SAPS  H15X 7868   3.552   6.385   8.900  1.8426  0.3645  1.9430
   83SAPS  H15Y 7869   3.432   6.523   8.883  2.1175  1.2683  0.5822
   83SAPS  C316 7870   3.362   6.326   8.954 -0.0457 -0.7048 -0.2975
   83SAPS  H16X 7871   3.276   6.367   9.011 -0.4132 -2.5741  0.5267
   83SAPS  H16Y 7872   3.403   6.235   9.002  0.9174 -0.6365 -0.9758
   83SAPS  C317 7873   3.317   6.286   8.813  0.4049 -0.3475  0.0313
   83SAPS  H17X 7874   3.276   6.183   8.822  2.5038 -1.4171 -2.0261
   83SAPS  H17Y 7875   3.412   6.285   8.755  0.2663  2.6140 -0.3073
   83SAPS  C318 7876   3.216   6.371   8.741  0.2502 -0.2929 -0.1744
   83SAPS  H18X 7877   3.270   6.465   8.721 -0.5322  0.1092 -0.4027
   83SAPS  H18Y 7878   3.134   6.382   8.816 -0.2818 -0.8022 -0.6798
   83SAPS  H18Z 7879   3.184   6.322   8.646  0.9712 -1.2394  0.0561
   84SAPS     N 7880   4.732   5.693  11.259 -0.1838  0.0167 -0.4849
   84SAPS   HN1 7881   4.754   5.771  11.195 -2.6795  1.0762 -0.1119
   84SAPS   HN2 7882   4.659   5.714  11.330 -0.1037  0.7536 -0.6147
   84SAPS   HN3 7883   4.817   5.655  11.305 -0.1862 -1.4019 -1.5993
   84SAPS   C12 7884   4.677   5.583  11.168  0.1834  0.3120  1.0293
   84SAPS  H12A 7885   4.673   5.494  11.230 -1.5763 -0.5285 -0.2706
   84SAPS   C13 7886   4.537   5.616  11.120  0.4006 -0.4590  0.3802
   84SAPS  O13A 7887   4.467   5.707  11.175  0.0520  0.6261 -0.6577
   84SAPS  O13B 7888   4.476   5.535  11.041 -0.3858  0.2064 -0.2386
   84SAPS   C11 7889   4.774   5.549  11.057  0.0158 -1.0502 -0.1084
   84SAPS  H11A 7890   4.793   5.643  11.002 -0.2111 -1.3362 -0.6768
   84SAPS  H11B 7891   4.718   5.473  10.998 -0.6160 -0.2477 -0.5423
   84SAPS     P 7892   4.959   5.361  11.102  0.2075  0.2617 -0.0296
   84SAPS   O13 7893   5.098   5.366  11.165  0.0569  0.3419  0.0146
   84SAPS   O14 7894   4.872   5.248  11.127  0.3810  0.3946  0.0697
   84SAPS   O12 7895   4.891   5.502  11.127 -0.4989  0.1374  0.2327
   84SAPS   O11 7896   4.987   5.358  10.950 -0.5107 -0.0595  0.0184
   84SAPS    C1 7897   5.018   5.237  10.877 -0.2847 -0.1596 -0.9320
   84SAPS    HA 7898   5.126   5.210  10.886 -0.0971  0.6828 -0.5784
   84SAPS    HB 7899   4.959   5.150  10.914  0.4519 -0.0610  0.5270
   84SAPS    C2 7900   4.981   5.239  10.726 -0.6990 -0.8744 -0.3053
   84SAPS    HS 7901   5.020   5.148  10.676  1.1002  0.3202 -1.1162
   84SAPS   O21 7902   5.027   5.362  10.659 -0.4128 -0.8170  0.6010
   84SAPS   C21 7903   5.064   5.346  10.537  0.5383 -0.1969 -0.4741
   84SAPS   O22 7904   5.077   5.244  10.471 -0.4544  0.4416 -0.5975
   84SAPS   C22 7905   5.107   5.485  10.494 -0.1750 -0.1533 -0.3942
   84SAPS   H2R 7906   5.044   5.557  10.550  0.0635 -0.9056  0.8562
   84SAPS   H2S 7907   5.211   5.483  10.534 -0.3302 -0.8614 -0.0219
   84SAPS    C3 7908   4.824   5.229  10.718 -0.0938 -0.1045  0.2136
   84SAPS    HX 7909   4.787   5.317  10.776 -0.4427 -0.2659  0.2382
   84SAPS    HY 7910   4.786   5.143  10.776  1.8826 -0.4522  1.0150
   84SAPS   O31 7911   4.771   5.228  10.587  0.4389  0.2791  0.2828
   84SAPS   C31 7912   4.792   5.120  10.508  0.6988 -0.2129 -0.7527
   84SAPS   O32 7913   4.848   5.018  10.546  0.3314  0.2917 -0.1151
   84SAPS   C32 7914   4.731   5.145  10.374 -0.1240  0.0226  0.7302
   84SAPS   H2X 7915   4.792   5.219  10.318  0.3993  0.7061  2.1749
   84SAPS   H2Y 7916   4.629   5.186  10.386 -0.1648  0.2208 -0.2372
   84SAPS   C23 7917   5.090   5.507  10.345  0.2007  0.9008  0.0199
   84SAPS   H3R 7918   5.153   5.426  10.300 -1.1229  0.7804 -1.6536
   84SAPS   H3S 7919   5.128   5.606  10.313  1.8598  0.7098  1.2957
   84SAPS   C24 7920   4.951   5.500  10.282  0.0388 -0.5254  0.5356
   84SAPS   H4R 7921   4.892   5.589  10.315  0.4000 -0.6087  1.4155
   84SAPS   H4S 7922   4.905   5.406  10.319  0.2043 -0.8072  0.0261
   84SAPS   C25 7923   4.955   5.492  10.131  0.0280  0.0451 -0.6131
   84SAPS   H5R 7924   5.052   5.453  10.097  0.2713 -0.8040  0.9845
   84SAPS   C26 7925   4.849   5.514  10.047  0.7260 -0.1591  0.0636
   84SAPS   H6R 7926   4.867   5.491   9.941 -1.1531 -0.7028 -0.1605
   84SAPS   C27 7927   4.708   5.565  10.080 -0.4284 -0.7593  0.0090
   84SAPS   H7R 7928   4.693   5.591  10.187  0.5136 -2.3093  0.5321
   84SAPS   H7S 7929   4.651   5.472  10.058  1.0935 -1.9853  1.1090
   84SAPS   C28 7930   4.678   5.686   9.997  0.2669 -0.3097  0.2120
   84SAPS   H8R 7931   4.700   5.782  10.046 -0.6671  0.3718 -0.6859
   84SAPS   C29 7932   4.618   5.699   9.886  0.3517  0.0087  0.6569
   84SAPS   H9R 7933   4.590   5.799   9.850 -1.3791  0.4678  3.1120
   84SAPS  C210 7934   4.566   5.585   9.800  0.1628  0.0740 -0.0118
   84SAPS  H10R 7935   4.456   5.573   9.806  0.2551 -0.7826  0.0875
   84SAPS  H10S 7936   4.617   5.490   9.828  0.3560  0.0134 -0.5632
   84SAPS  C211 7937   4.590   5.611   9.653  0.3162 -0.1149 -0.2453
   84SAPS  H11R 7938   4.517   5.682   9.611  2.7438  2.7283  0.2339
   84SAPS  C212 7939   4.684   5.562   9.574  0.1103 -0.3249  0.2979
   84SAPS  H12R 7940   4.687   5.592   9.468  0.0318 -3.4221 -0.6259
   84SAPS  C213 7941   4.785   5.459   9.602  0.6277 -0.5833 -0.3011
   84SAPS  H13R 7942   4.733   5.370   9.644  0.2715 -1.2860 -2.2151
   84SAPS  H13S 7943   4.833   5.496   9.696 -0.3328 -2.5799  1.0175
   84SAPS  C214 7944   4.874   5.428   9.482  0.7883 -0.1987  0.1042
   84SAPS  H14R 7945   4.841   5.345   9.419  1.1982  1.2240 -2.0330
   84SAPS  C215 7946   4.972   5.512   9.438 -0.2408 -0.1816 -0.4838
   84SAPS  H15R 7947   5.034   5.485   9.352  0.6086  4.8471 -1.6089
   84SAPS  C216 7948   5.017   5.636   9.499  0.5859  0.0546  0.7968
   84SAPS  H16R 7949   4.927   5.684   9.542  0.2856  0.1220  0.1002
   84SAPS  H16S 7950   5.054   5.706   9.422  3.6601 -1.0167  1.2180
   84SAPS  C217 7951   5.119   5.620   9.617  0.0055  0.0351  0.3575
   84SAPS  H17R 7952   5.080   5.569   9.708  2.2603 -1.7762  0.3449
   84SAPS  H17S 7953   5.142   5.721   9.657  1.0889  0.3035 -0.9322
   84SAPS  C218 7954   5.245   5.554   9.570  0.1446  0.1398 -0.7794
   84SAPS  H18R 7955   5.291   5.605   9.483  0.6168 -2.0555 -1.8337
   84SAPS  H18S 7956   5.227   5.447   9.545  0.1595  0.0012 -0.2098
   84SAPS  C219 7957   5.358   5.558   9.672 -0.0903 -0.3224 -0.4749
   84SAPS  H19R 7958   5.321   5.552   9.777  0.8146  0.8772 -0.0846
   84SAPS  H19S 7959   5.399   5.661   9.666  1.2874 -0.8797 -0.7753
   84SAPS  C220 7960   5.467   5.462   9.642 -0.0231 -0.2244 -0.0546
   84SAPS  H20R 7961   5.523   5.484   9.549 -0.4110 -1.0350 -0.4905
   84SAPS  H20S 7962   5.433   5.356   9.640  0.0083 -0.2431  0.3603
   84SAPS  H20T 7963   5.546   5.472   9.719  1.3160  1.8955 -1.6365
   84SAPS   C33 7964   4.718   5.017  10.286  0.2901  0.9131 -0.1298
   84SAPS   H3X 7965   4.627   4.963  10.320 -0.2355  1.4919 -0.6204
   84SAPS   H3Y 7966   4.796   4.940  10.305 -0.5558  0.7678  3.2024
   84SAPS   C34 7967   4.700   5.037  10.136 -0.1264 -0.1230 -0.1240
   84SAPS   H4X 7968   4.676   4.940  10.088  1.4300  0.1352 -1.4974
   84SAPS   H4Y 7969   4.798   5.065  10.091  0.7607 -0.1866  1.7076
   84SAPS   C35 7970   4.589   5.136  10.110 -0.5033 -0.2206  0.1136
   84SAPS   H5X 7971   4.594   5.229  10.170 -1.9126 -0.2952  0.3761
   84SAPS   H5Y 7972   4.499   5.086  10.152  0.6242 -1.2253  1.3760
   84SAPS   C36 7973   4.572   5.167   9.960 -0.4251 -0.0066 -0.5551
   84SAPS   H6X 7974   4.549   5.069   9.912 -0.3266  0.3781 -1.3822
   84SAPS   H6Y 7975   4.673   5.196   9.925  0.5833 -0.3713  1.9081
   84SAPS   C37 7976   4.444   5.251   9.930 -0.2481  0.3163  0.1024
   84SAPS   H7X 7977   4.462   5.351   9.976  0.9575  0.1536 -0.0105
   84SAPS   H7Y 7978   4.360   5.203   9.986  1.7910 -0.5802  2.4875
   84SAPS   C38 7979   4.413   5.264   9.786  0.2471  0.0401  0.4055
   84SAPS   H8X 7980   4.447   5.167   9.747  0.7550  0.6651 -0.7144
   84SAPS   H8Y 7981   4.465   5.348   9.736 -2.3436 -0.9585 -4.2264
   84SAPS   C39 7982   4.262   5.285   9.755 -0.4447  0.0181  0.2832
   84SAPS   H9X 7983   4.238   5.381   9.804 -1.7424  2.0856 -4.1548
   84SAPS   H9Y 7984   4.204   5.199   9.795  1.0181 -2.6458 -3.0513
   84SAPS  C310 7985   4.229   5.318   9.609  0.0527  0.6449 -0.0443
   84SAPS  H10X 7986   4.272   5.233   9.553  0.1654  0.3763  0.4451
   84SAPS  H10Y 7987   4.264   5.412   9.560 -1.3854 -0.1919 -2.8030
   84SAPS  C311 7988   4.076   5.321   9.579  0.1331 -0.2049  0.4447
   84SAPS  H11X 7989   4.044   5.428   9.583 -1.0178 -0.5414  0.4513
   84SAPS  H11Y 7990   4.020   5.265   9.657  1.0863 -0.9389  0.6069
   84SAPS  C312 7991   4.044   5.278   9.435  0.3165  0.1503 -1.0048
   84SAPS  H12X 7992   4.090   5.177   9.427 -2.0122 -1.2259  1.7031
   84SAPS  H12Y 7993   4.082   5.361   9.372 -0.0253  1.4626  0.4789
   84SAPS  C313 7994   3.894   5.273   9.408  0.2651  0.8352 -0.4899
   84SAPS  H13X 7995   3.859   5.378   9.419  1.0619  0.9796  0.8621
   84SAPS  H13Y 7996   3.846   5.202   9.479 -1.8866  3.9477  1.3217
   84SAPS  C314 7997   3.871   5.227   9.271  0.1997 -0.7843  0.7606
   84SAPS  H14X 7998   3.939   5.141   9.253 -0.3097 -1.0647  0.1481
   84SAPS  H14Y 7999   3.909   5.300   9.196  1.0153 -3.3480 -1.4362
   84SAPS  C315 8000   3.726   5.201   9.226  0.3292  0.3288  0.5230
   84SAPS  H15X 8001   3.671   5.296   9.207  0.9094  0.5439 -0.1221
   84SAPS  H15Y 8002   3.664   5.157   9.306  0.5422  0.8864  0.9922
   84SAPS  C316 8003   3.716   5.095   9.113 -0.2304  0.8487 -0.3296
   84SAPS  H16X 8004   3.756   4.997   9.146 -1.6125  0.4336  0.1241
   84SAPS  H16Y 8005   3.793   5.136   9.044 -0.5060 -1.5978 -2.1631
   84SAPS  C317 8006   3.568   5.081   9.071  0.0215 -0.6947  0.3621
   84SAPS  H17X 8007   3.514   5.173   9.042 -0.9374 -2.2122 -2.9123
   84SAPS  H17Y 8008   3.513   5.049   9.163  0.1079 -0.6031  0.4468
   84SAPS  C318 8009   3.519   4.973   8.970  0.1928 -0.0306 -0.5380
   84SAPS  H18X 8010   3.562   4.874   8.999  1.0494  0.5464  0.1821
   84SAPS  H18Y 8011   3.551   5.013   8.872 -0.1497 -0.2367 -0.7343
   84SAPS  H18Z 8012   3.409   4.960   8.961  0.1372 -0.9769  1.2603
   85SAPS     N 8013   1.337   0.399  11.295 -0.1362 -0.3877 -0.5061
   85SAPS   HN1 8014   1.367   0.477  11.233  1.2367 -2.2977 -2.3343
   85SAPS   HN2 8015   1.365   0.407  11.395 -0.0166 -1.3682 -0.4523
   85SAPS   HN3 8016   1.373   0.304  11.271 -1.7406 -0.8976 -0.9327
   85SAPS   C12 8017   1.187   0.410  11.297  0.6939  0.1650 -0.1476
   85SAPS  H12A 8018   1.149   0.360  11.384  0.5113  0.0604 -0.2873
   85SAPS   C13 8019   1.117   0.550  11.318 -0.0697 -0.4458 -0.3955
   85SAPS  O13A 8020   1.181   0.647  11.369 -0.2158  0.2971  0.2021
   85SAPS  O13B 8021   0.995   0.555  11.293 -0.1904  0.1774  0.4566
   85SAPS   C11 8022   1.133   0.329  11.175 -0.3000  0.6758 -0.5205
   85SAPS  H11A 8023   1.146   0.393  11.085  1.2312 -0.5103 -1.1690
   85SAPS  H11B 8024   1.029   0.312  11.209  0.1880 -0.1577  0.5616
   85SAPS     P 8025   1.126   0.094  11.066 -0.3142  0.3260  0.0633
   85SAPS   O13 8026   1.090  -0.014  11.158  0.3774 -0.4720  0.2302
   85SAPS   O14 8027   1.021   0.152  10.980  0.0206  0.0531  0.0975
   85SAPS   O12 8028   1.200   0.210  11.151  0.2218 -0.1554 -0.1731
   85SAPS   O11 8029   1.238   0.037  10.974  0.0922 -0.0266 -0.2283
   85SAPS    C1 8030   1.359   0.106  10.943 -0.8118 -0.5077 -0.2651
   85SAPS    HA 8031   1.345   0.212  10.914 -1.8321 -1.4772 -3.5420
   85SAPS    HB 8032   1.427   0.105  11.030  0.5212  0.5884 -1.2766
   85SAPS    C2 8033   1.430   0.044  10.813  0.0749  0.6170 -0.5754
   85SAPS    HS 8034   1.523   0.105  10.810  0.9060 -0.5765  0.3988
   85SAPS   O21 8035   1.343   0.068  10.699 -0.5812 -0.2470 -0.3920
   85SAPS   C21 8036   1.367   0.193  10.642  0.5242  0.1887  0.1651
   85SAPS   O22 8037   1.444   0.278  10.683  0.5868  0.4604 -0.4256
   85SAPS   C22 8038   1.286   0.205  10.514 -0.4205  0.3460  0.0143
   85SAPS   H2R 8039   1.193   0.153  10.544 -0.6390 -0.3269 -1.7791
   85SAPS   H2S 8040   1.265   0.310  10.485  0.6467  1.3983  2.8655
   85SAPS    C3 8041   1.459  -0.106  10.821  0.2275  0.2005 -0.2021
   85SAPS    HX 8042   1.369  -0.158  10.859  2.2578 -2.5648  0.9685
   85SAPS    HY 8043   1.535  -0.125  10.899 -0.9397  0.0053  0.9052
   85SAPS   O31 8044   1.496  -0.164  10.695 -0.5943 -0.3582  0.4676
   85SAPS   C31 8045   1.619  -0.153  10.662  0.2877 -0.2577  0.2742
   85SAPS   O32 8046   1.701  -0.100  10.738 -0.5531 -0.5525  0.2864
   85SAPS   C32 8047   1.652  -0.241  10.540  0.4246 -0.1644  0.3576
   85SAPS   H2X 8048   1.648  -0.344  10.581  0.2849  0.0175  0.7978
   85SAPS   H2Y 8049   1.757  -0.212  10.516 -0.1255  1.7145  0.1429
   85SAPS   C23 8050   1.351   0.118  10.408  0.2411 -0.4475 -0.2615
   85SAPS   H3R 8051   1.267   0.102  10.336 -1.8814  0.4145  1.9299
   85SAPS   H3S 8052   1.382   0.018  10.444 -3.2296 -1.5005  0.0085
   85SAPS   C24 8053   1.461   0.191  10.324  0.1854  0.1250 -0.0728
   85SAPS   H4R 8054   1.454   0.145  10.224  1.2508  1.1445 -0.6371
   85SAPS   H4S 8055   1.564   0.168  10.361  0.4801  2.3387  0.6278
   85SAPS   C25 8056   1.447   0.340  10.318 -0.4993 -1.6250  0.7798
   85SAPS   H5R 8057   1.467   0.392  10.412  1.3694  0.3527 -0.6555
   85SAPS   C26 8058   1.425   0.418  10.204 -0.2895  0.2410  0.0515
   85SAPS   H6R 8059   1.415   0.527  10.210 -1.1532  0.1490  0.3765
   85SAPS   C27 8060   1.409   0.353  10.068  0.2796 -0.2050 -0.0249
   85SAPS   H7R 8061   1.310   0.301  10.069  1.1322 -1.8729 -0.8313
   85SAPS   H7S 8062   1.484   0.272  10.061  1.2512  0.6987 -0.2461
   85SAPS   C28 8063   1.413   0.448   9.949  0.5750  0.2845  0.3012
   85SAPS   H8R 8064   1.396   0.553   9.978 -0.7619  0.3479 -0.6671
   85SAPS   C29 8065   1.438   0.400   9.827 -0.1255 -0.4910  0.0214
   85SAPS   H9R 8066   1.462   0.466   9.742  1.2760 -2.3571 -1.0978
   85SAPS  C210 8067   1.454   0.254   9.786 -2.0243 -0.0639 -0.6694
   85SAPS  H10R 8068   1.408   0.260   9.685 -4.4351  3.1754  0.5461
   85SAPS  H10S 8069   1.400   0.179   9.848 -1.3977 -1.1990 -1.4718
   85SAPS  C211 8070   1.608   0.217   9.784  0.2574  0.2389  0.2912
   85SAPS  H11R 8071   1.656   0.184   9.877  0.1548 -0.6819  0.0155
   85SAPS  C212 8072   1.690   0.230   9.677 -0.1523 -0.2133  0.1591
   85SAPS  H12R 8073   1.794   0.196   9.685 -0.8623 -3.2397 -2.3578
   85SAPS  C213 8074   1.640   0.273   9.540  0.5651 -0.2892  0.0528
   85SAPS  H13R 8075   1.687   0.373   9.536  1.6842 -0.6799  2.5715
   85SAPS  H13S 8076   1.531   0.293   9.525  0.6655  1.8646  2.0223
   85SAPS  C214 8077   1.689   0.175   9.437  0.9129 -0.2150  0.1879
   85SAPS  H14R 8078   1.637   0.079   9.438  0.3237  0.0781 -1.2196
   85SAPS  C215 8079   1.796   0.206   9.357 -0.5492 -0.5096 -0.0184
   85SAPS  H15R 8080   1.819   0.131   9.280 -2.2775 -1.3795  0.2751
   85SAPS  C216 8081   1.871   0.336   9.353  0.3483 -0.5081  0.5066
   85SAPS  H16R 8082   1.850   0.398   9.444  1.4608 -2.3866  2.0752
   85SAPS  H16S 8083   1.840   0.406   9.272  1.2387 -0.4658  0.2054
   85SAPS  C217 8084   2.022   0.323   9.357 -0.8457 -0.7101 -0.2588
   85SAPS  H17R 8085   2.056   0.264   9.445 -1.9680  0.0583  0.7200
   85SAPS  H17S 8086   2.063   0.426   9.371  0.5264 -1.3700  0.7039
   85SAPS  C218 8087   2.089   0.281   9.221 -0.0067  0.0201  0.5918
   85SAPS  H18R 8088   2.080   0.170   9.216 -1.0487  0.0839  1.0599
   85SAPS  H18S 8089   2.193   0.320   9.230 -0.1979  0.6396  0.0835
   85SAPS  C219 8090   2.027   0.346   9.093  0.0738 -0.6604  0.0535
   85SAPS  H19R 8091   2.123   0.362   9.040 -0.0585 -0.5342 -0.1458
   85SAPS  H19S 8092   1.998   0.453   9.099  3.2446  0.1685  2.3523
   85SAPS  C220 8093   1.949   0.260   8.999 -0.3079 -0.2119  0.0688
   85SAPS  H20R 8094   1.858   0.225   9.052 -0.6346  0.0320 -0.3311
   85SAPS  H20S 8095   2.007   0.169   8.971 -2.6721 -1.1260 -2.0389
   85SAPS  H20T 8096   1.930   0.312   8.903 -0.3334  0.0466  0.2143
   85SAPS   C33 8097   1.574  -0.202  10.412 -0.0046  0.1756 -0.3058
   85SAPS   H3X 8098   1.589  -0.095  10.388 -2.0083  0.2081 -1.5206
   85SAPS   H3Y 8099   1.468  -0.219  10.437 -0.5218  4.0400  0.3679
   85SAPS   C34 8100   1.610  -0.283  10.299 -0.0661  0.5450  0.0424
   85SAPS   H4X 8101   1.558  -0.380  10.316  1.2253 -0.1188  0.2741
   85SAPS   H4Y 8102   1.720  -0.299  10.301  0.1534  1.7251 -1.7010
   85SAPS   C35 8103   1.551  -0.236  10.166  0.3246  0.5954  0.4546
   85SAPS   H5X 8104   1.556  -0.126  10.148  0.0261  0.2534 -1.8530
   85SAPS   H5Y 8105   1.444  -0.266  10.156  1.3201 -3.6344  1.3960
   85SAPS   C36 8106   1.640  -0.278  10.048  0.1990 -0.1362  0.0674
   85SAPS   H6X 8107   1.638  -0.390  10.050 -2.1477 -0.1216 -0.6569
   85SAPS   H6Y 8108   1.749  -0.256  10.047 -0.0596  1.1773 -0.2752
   85SAPS   C37 8109   1.589  -0.234   9.911 -0.7575 -0.0880 -0.1016
   85SAPS   H7X 8110   1.584  -0.123   9.908 -1.7458 -0.1416 -0.7679
   85SAPS   H7Y 8111   1.485  -0.268   9.894 -0.3211  0.3029 -3.9107
   85SAPS   C38 8112   1.688  -0.291   9.805  0.0915 -0.5409  0.0265
   85SAPS   H8X 8113   1.688  -0.402   9.798  3.4058 -0.7730  2.3123
   85SAPS   H8Y 8114   1.789  -0.258   9.837  0.0409 -0.0133 -0.3615
   85SAPS   C39 8115   1.665  -0.232   9.664  0.0901 -0.4100  0.5372
   85SAPS   H9X 8116   1.748  -0.247   9.593 -0.1881  2.4542 -0.4452
   85SAPS   H9Y 8117   1.644  -0.123   9.667 -0.7940 -0.5999  1.8064
   85SAPS  C310 8118   1.544  -0.301   9.584 -0.3978  0.3751 -0.7659
   85SAPS  H10X 8119   1.449  -0.295   9.641 -1.3878 -2.0861 -2.0554
   85SAPS  H10Y 8120   1.562  -0.409   9.565 -1.1018  0.3410 -1.2640
   85SAPS  C311 8121   1.513  -0.225   9.451 -0.0771 -0.0858 -0.5472
   85SAPS  H11X 8122   1.495  -0.122   9.489 -0.7445  0.2912 -1.8596
   85SAPS  H11Y 8123   1.418  -0.266   9.410 -0.9808  0.7595  0.6363
   85SAPS  C312 8124   1.626  -0.235   9.341  0.7123  0.2486 -0.0374
   85SAPS  H12X 8125   1.649  -0.344   9.339 -1.2226 -0.1896  0.6119
   85SAPS  H12Y 8126   1.713  -0.183   9.387  0.7234 -0.0892  0.3302
   85SAPS  C313 8127   1.578  -0.178   9.209 -0.3630  0.1210 -0.2671
   85SAPS  H13X 8128   1.600  -0.070   9.194  0.9605  0.0756  1.1539
   85SAPS  H13Y 8129   1.468  -0.190   9.214 -0.2606 -0.2823  1.4200
   85SAPS  C314 8130   1.630  -0.255   9.086 -0.3731  0.6873  0.2662
   85SAPS  H14X 8131   1.572  -0.215   9.000 -1.1701 -1.2804 -0.1455
   85SAPS  H14Y 8132   1.598  -0.361   9.097  2.8254 -0.6136 -2.0429
   85SAPS  C315 8133   1.785  -0.266   9.073 -0.0665  0.3556 -0.1296
   85SAPS  H15X 8134   1.833  -0.294   9.169  1.1926 -0.5268 -0.9903
   85SAPS  H15Y 8135   1.834  -0.170   9.046  1.7169 -0.7009 -0.7771
   85SAPS  C316 8136   1.824  -0.369   8.967  0.7694 -1.1416 -0.4391
   85SAPS  H16X 8137   1.780  -0.341   8.869  1.8260 -1.7628 -1.1058
   85SAPS  H16Y 8138   1.781  -0.462   9.009  0.3153 -0.0544  1.5824
   85SAPS  C317 8139   1.978  -0.380   8.963  0.5813 -0.5674 -0.3254
   85SAPS  H17X 8140   2.009  -0.395   9.069 -2.4762  0.3664  0.7605
   85SAPS  H17Y 8141   2.016  -0.280   8.933 -0.0936 -0.9108 -2.4433
   85SAPS  C318 8142   2.022  -0.494   8.875 -0.4780  0.6771  0.2501
   85SAPS  H18X 8143   1.984  -0.490   8.771  0.4494  0.9746 -0.0892
   85SAPS  H18Y 8144   1.988  -0.588   8.924 -1.8681 -0.4964 -2.8940
   85SAPS  H18Z 8145   2.131  -0.487   8.855 -0.6854  1.4275 -0.6176
   86SAPS     N 8146   4.263   0.445  10.861 -0.1158 -0.1159  0.1227
   86SAPS   HN1 8147   4.327   0.399  10.793 -2.5192  2.2157 -3.8363
   86SAPS   HN2 8148   4.172   0.470  10.818  0.4715  0.4969 -0.7723
   86SAPS   HN3 8149   4.317   0.522  10.906  0.3555 -0.2187 -0.2728
   86SAPS   C12 8150   4.231   0.356  10.980  0.3085 -0.6874  0.1750
   86SAPS  H12A 8151   4.260   0.254  10.960  0.2005 -1.0116  1.6884
   86SAPS   C13 8152   4.296   0.411  11.114 -0.3435  0.6895  0.7690
   86SAPS  O13A 8153   4.389   0.505  11.108  0.3543 -0.2402  0.1144
   86SAPS  O13B 8154   4.284   0.346  11.217 -0.3870  0.1234  0.1621
   86SAPS   C11 8155   4.076   0.366  10.996 -0.0239 -0.3195 -0.1533
   86SAPS  H11A 8156   4.051   0.471  11.022  1.6858 -0.2961  1.5101
   86SAPS  H11B 8157   4.048   0.310  11.088  0.9237 -0.4625  0.0511
   86SAPS     P 8158   3.850   0.289  10.890 -0.6519 -0.3629  0.2539
   86SAPS   O13 8159   3.823   0.230  11.018  0.1571  0.0455  0.2555
   86SAPS   O14 8160   3.774   0.407  10.844 -0.4656  0.4829  0.0062
   86SAPS   O12 8161   4.004   0.331  10.878 -0.3936  0.4041 -0.1779
   86SAPS   O11 8162   3.830   0.181  10.779  0.0058  0.4109 -0.8589
   86SAPS    C1 8163   3.930   0.114  10.705  0.1019 -0.5638  0.5264
   86SAPS    HA 8164   4.010   0.077  10.774  0.2602  0.9283  1.1538
   86SAPS    HB 8165   3.883   0.027  10.654  0.3009  0.1094 -0.8339
   86SAPS    C2 8166   3.980   0.208  10.589  0.1014 -0.0307  0.0137
   86SAPS    HS 8167   3.997   0.303  10.644  1.9324 -1.0581  1.2797
   86SAPS   O21 8168   3.860   0.227  10.508  0.4643  0.1038 -0.5420
   86SAPS   C21 8169   3.873   0.335  10.424 -0.2940  0.0777 -0.3096
   86SAPS   O22 8170   3.964   0.412  10.424  0.4162 -0.6230  0.1641
   86SAPS   C22 8171   3.767   0.331  10.316 -0.1305  0.4050  0.0957
   86SAPS   H2R 8172   3.792   0.241  10.255 -1.8313 -0.2681  0.3521
   86SAPS   H2S 8173   3.668   0.294  10.352  1.3566 -1.5132  2.3311
   86SAPS    C3 8174   4.115   0.152  10.519 -0.5773  0.9025  0.3011
   86SAPS    HX 8175   4.094   0.049  10.485 -0.6426  1.2547 -0.7449
   86SAPS    HY 8176   4.191   0.160  10.599 -1.8250  0.8259  1.5078
   86SAPS   O31 8177   4.174   0.231  10.410  0.7902  0.2591  1.2011
   86SAPS   C31 8178   4.131   0.208  10.291  0.4213  1.0690  0.3097
   86SAPS   O32 8179   4.046   0.125  10.256 -0.2379  0.1131 -0.3865
   86SAPS   C32 8180   4.184   0.317  10.200 -0.1086 -0.5382  0.9393
   86SAPS   H2X 8181   4.292   0.300  10.179 -0.3787  0.0633 -0.9994
   86SAPS   H2Y 8182   4.162   0.418  10.240  0.9295  0.4285 -0.8717
   86SAPS   C23 8183   3.755   0.455  10.220  0.0078  0.7325  0.0509
   86SAPS   H3R 8184   3.852   0.474  10.169 -1.4361  2.1598 -2.2482
   86SAPS   H3S 8185   3.732   0.534  10.294  0.7090  1.0579 -0.0729
   86SAPS   C24 8186   3.645   0.437  10.110 -0.0401 -0.3008  0.4110
   86SAPS   H4R 8187   3.549   0.419  10.163  0.6394  0.8741  2.0951
   86SAPS   H4S 8188   3.678   0.352  10.046  2.8622 -0.8842  2.6086
   86SAPS   C25 8189   3.632   0.572  10.036  0.1751 -0.5119 -0.2843
   86SAPS   H5R 8190   3.572   0.646  10.092 -2.3506 -2.2269 -0.6561
   86SAPS   C26 8191   3.693   0.594   9.916 -0.6311  0.3656  0.1746
   86SAPS   H6R 8192   3.701   0.697   9.877 -1.0008 -0.0966 -1.1343
   86SAPS   C27 8193   3.777   0.502   9.835 -0.0051 -0.0167  0.0219
   86SAPS   H7R 8194   3.771   0.397   9.872 -0.6408  0.1527  0.4082
   86SAPS   H7S 8195   3.884   0.528   9.842 -0.3079  1.0298  0.9582
   86SAPS   C28 8196   3.728   0.488   9.693 -0.4017  0.2601 -0.2812
   86SAPS   H8R 8197   3.641   0.424   9.672 -0.7649  1.0598 -1.2691
   86SAPS   C29 8198   3.782   0.542   9.583  0.2394  0.0796  0.3833
   86SAPS   H9R 8199   3.729   0.505   9.494  0.8407 -1.2045  0.5631
   86SAPS  C210 8200   3.909   0.623   9.570  0.0890 -0.6418  0.1006
   86SAPS  H10R 8201   3.990   0.561   9.524 -0.2645 -1.4785  0.5815
   86SAPS  H10S 8202   3.940   0.643   9.675 -0.0746 -1.8243  0.3870
   86SAPS  C211 8203   3.906   0.758   9.509  0.4486 -0.0815  0.0703
   86SAPS  H11R 8204   3.887   0.835   9.585 -1.0083  1.8988 -2.2248
   86SAPS  C212 8205   3.941   0.781   9.383  0.5414  0.4487 -0.0239
   86SAPS  H12R 8206   3.948   0.885   9.350 -1.5165  0.4250 -0.5867
   86SAPS  C213 8207   3.962   0.668   9.276 -0.3009 -0.5245  0.0439
   86SAPS  H13R 8208   3.863   0.662   9.226 -0.3068  0.7295 -0.0942
   86SAPS  H13S 8209   3.982   0.566   9.317  2.8436  0.2484  0.5133
   86SAPS  C214 8210   4.073   0.716   9.182  0.1778  0.6264 -0.2099
   86SAPS  H14R 8211   4.164   0.737   9.240  1.4000  0.4887 -2.0350
   86SAPS  C215 8212   4.077   0.718   9.052 -0.5087 -0.2342  0.1046
   86SAPS  H15R 8213   4.163   0.769   9.006 -0.7844 -0.9805 -1.2636
   86SAPS  C216 8214   3.955   0.677   8.960 -0.1065 -0.8621  0.7968
   86SAPS  H16R 8215   3.857   0.687   9.011 -1.4974  1.1013 -2.0944
   86SAPS  H16S 8216   3.968   0.567   8.952  2.9405 -0.4880 -0.0112
   86SAPS  C217 8217   3.935   0.760   8.839  0.8264 -0.6803  0.5671
   86SAPS  H17R 8218   4.030   0.764   8.781 -0.7077 -2.1475 -2.1400
   86SAPS  H17S 8219   3.903   0.862   8.868  0.3949 -0.5548 -0.3482
   86SAPS  C218 8220   3.829   0.692   8.744 -0.6844  0.6127  0.0466
   86SAPS  H18R 8221   3.736   0.752   8.740 -0.5639  0.8054  0.0814
   86SAPS  H18S 8222   3.798   0.599   8.796 -0.0893  0.9262  0.9825
   86SAPS  C219 8223   3.902   0.688   8.604 -0.1406  0.2814  0.6081
   86SAPS  H19R 8224   3.842   0.629   8.532  0.7003  0.8278 -0.5569
   86SAPS  H19S 8225   4.003   0.645   8.621 -0.0067  0.4386  0.2000
   86SAPS  C220 8226   3.914   0.826   8.543 -0.6145  0.4981 -0.1356
   86SAPS  H20R 8227   3.998   0.885   8.585 -0.2266 -0.0692 -0.1014
   86SAPS  H20S 8228   3.810   0.862   8.560  0.0131  2.1498  0.3091
   86SAPS  H20T 8229   3.925   0.810   8.434 -4.2705 -0.5135 -0.4365
   86SAPS   C33 8230   4.127   0.301  10.055 -0.3282  0.1498 -0.5555
   86SAPS   H3X 8231   4.018   0.316  10.068 -0.0819  0.9719  0.5897
   86SAPS   H3Y 8232   4.149   0.200  10.014 -1.6781  0.4456 -2.0619
   86SAPS   C34 8233   4.178   0.391   9.943  0.6442  0.2831  0.1689
   86SAPS   H4X 8234   4.167   0.498   9.972 -0.1225 -0.0758  1.2479
   86SAPS   H4Y 8235   4.101   0.385   9.864  0.7516  1.8630 -0.0749
   86SAPS   C35 8236   4.322   0.360   9.908 -0.1309 -0.4452  0.1825
   86SAPS   H5X 8237   4.323   0.250   9.891 -1.8309 -0.5808  0.8504
   86SAPS   H5Y 8238   4.393   0.372   9.993  0.2471  3.2241 -0.5917
   86SAPS   C36 8239   4.380   0.429   9.781  0.0143  0.0144  0.3145
   86SAPS   H6X 8240   4.485   0.394   9.787  0.7815  1.9533 -1.3218
   86SAPS   H6Y 8241   4.381   0.539   9.796  3.2984  0.0488  0.2343
   86SAPS   C37 8242   4.325   0.377   9.650  0.4947  0.2827 -0.2495
   86SAPS   H7X 8243   4.223   0.413   9.626 -0.8793 -1.5006  2.5986
   86SAPS   H7Y 8244   4.322   0.267   9.668 -2.0698  0.1712 -1.1318
   86SAPS   C38 8245   4.428   0.399   9.538 -0.4712  0.5538 -0.1788
   86SAPS   H8X 8246   4.520   0.357   9.582  0.4680  0.1834 -2.4375
   86SAPS   H8Y 8247   4.428   0.508   9.515 -1.5789  0.5532 -0.2146
   86SAPS   C39 8248   4.391   0.315   9.424 -0.2978 -0.7087 -0.1874
   86SAPS   H9X 8249   4.288   0.345   9.394 -0.0228 -1.6887 -2.2034
   86SAPS   H9Y 8250   4.397   0.205   9.441  1.2291 -0.5181  0.5475
   86SAPS  C310 8251   4.468   0.338   9.291  0.0934 -0.5662  0.0094
   86SAPS  H10X 8252   4.444   0.251   9.226 -1.6648  0.0180 -0.1319
   86SAPS  H10Y 8253   4.579   0.337   9.287  0.0536  0.3921 -2.3832
   86SAPS  C311 8254   4.415   0.461   9.209 -0.3249  0.1436 -0.5998
   86SAPS  H11X 8255   4.442   0.548   9.274  0.9813 -0.0886 -0.8148
   86SAPS  H11Y 8256   4.304   0.462   9.204 -0.4479  1.6049  1.5063
   86SAPS  C312 8257   4.481   0.471   9.073 -0.1503  0.0643  0.2388
   86SAPS  H12X 8258   4.472   0.368   9.031 -0.9911  0.9269 -1.7472
   86SAPS  H12Y 8259   4.591   0.483   9.085  0.0194 -1.7135  0.7009
   86SAPS  C313 8260   4.418   0.582   8.993  0.7659 -0.4906 -0.3412
   86SAPS  H13X 8261   4.460   0.684   9.003 -1.6147  0.6558 -1.7853
   86SAPS  H13Y 8262   4.313   0.584   9.030  1.8472 -0.7450  2.8906
   86SAPS  C314 8263   4.423   0.557   8.841 -0.7362 -0.2750 -0.1653
   86SAPS  H14X 8264   4.401   0.449   8.829 -1.9871  0.0932 -1.2600
   86SAPS  H14Y 8265   4.529   0.571   8.810  0.1525  0.2698  2.9110
   86SAPS  C315 8266   4.329   0.646   8.759  0.0104  0.0002  0.0131
   86SAPS  H15X 8267   4.362   0.752   8.765  2.4476 -0.6737 -0.5967
   86SAPS  H15Y 8268   4.234   0.631   8.813 -0.1974  1.8103  0.1715
   86SAPS  C316 8269   4.327   0.609   8.610  0.5513 -0.4686  0.2248
   86SAPS  H16X 8270   4.252   0.677   8.565  0.5671 -1.2636 -1.0304
   86SAPS  H16Y 8271   4.290   0.505   8.594  0.5781 -0.2365 -1.4362
   86SAPS  C317 8272   4.464   0.608   8.537  1.1391  0.1956 -0.5977
   86SAPS  H17X 8273   4.434   0.582   8.433  0.1305  0.0368 -0.2725
   86SAPS  H17Y 8274   4.534   0.532   8.578 -0.6624  0.2828  2.8483
   86SAPS  C318 8275   4.534   0.740   8.531  0.3830 -0.1713 -0.3429
   86SAPS  H18X 8276   4.621   0.742   8.462  1.3105 -0.4756  0.7977
   86SAPS  H18Y 8277   4.558   0.773   8.634 -0.9739 -1.0841  0.2936
   86SAPS  H18Z 8278   4.464   0.809   8.479  1.7006  0.3076 -1.5156
   87SAPS     N 8279   4.325   1.288  10.909  0.5192 -0.0641  0.5400
   87SAPS   HN1 8280   4.411   1.324  10.864 -0.1614 -1.0014 -1.5557
   87SAPS   HN2 8281   4.242   1.351  10.900  1.3098  0.4739 -4.2891
   87SAPS   HN3 8282   4.341   1.280  11.011  0.2504  0.2835  0.6142
   87SAPS   C12 8283   4.286   1.162  10.843 -0.8768  0.3826 -0.4206
   87SAPS  H12A 8284   4.220   1.188  10.761 -0.6954  3.7849  0.4500
   87SAPS   C13 8285   4.404   1.081  10.798 -0.5525 -0.2212  0.0501
   87SAPS  O13A 8286   4.527   1.113  10.826 -0.5507 -0.0582  0.2518
   87SAPS  O13B 8287   4.390   0.964  10.743 -0.1489 -0.0410  0.5029
   87SAPS   C11 8288   4.211   1.063  10.941  0.0115 -0.3695  0.3723
   87SAPS  H11A 8289   4.291   1.029  11.010 -0.3399  0.8694  1.3880
   87SAPS  H11B 8290   4.180   0.976  10.879 -1.0060 -1.2071  2.0465
   87SAPS     P 8291   3.970   1.057  11.021  0.0566  0.3300 -0.0306
   87SAPS   O13 8292   3.989   0.930  11.089  0.3280  0.4211 -0.0064
   87SAPS   O14 8293   3.864   1.151  11.073 -1.4186 -0.1756 -0.1925
   87SAPS   O12 8294   4.104   1.129  11.004  0.0473  0.0621 -0.4016
   87SAPS   O11 8295   3.932   1.018  10.875 -0.4898 -0.3102  0.2138
   87SAPS    C1 8296   3.902   1.122  10.778  1.0182 -0.5974  0.4707
   87SAPS    HA 8297   3.822   1.191  10.812  0.1122 -0.1989 -2.2979
   87SAPS    HB 8298   3.989   1.185  10.750 -0.6466  1.1067 -1.0767
   87SAPS    C2 8299   3.850   1.063  10.646  0.1589 -0.6051 -1.2202
   87SAPS    HS 8300   3.768   0.999  10.685  2.1743 -1.0863  2.4817
   87SAPS   O21 8301   3.956   0.986  10.582 -0.8430 -0.1116  0.0857
   87SAPS   C21 8302   3.921   0.890  10.506  0.1643  0.4308  0.0523
   87SAPS   O22 8303   3.806   0.854  10.474 -0.5921 -0.1564 -0.1424
   87SAPS   C22 8304   4.048   0.831  10.453 -0.7941  0.3083 -0.2419
   87SAPS   H2R 8305   4.120   0.915  10.443 -0.4253  0.1724  1.2328
   87SAPS   H2S 8306   4.107   0.770  10.524 -0.3755  0.3910 -0.5160
   87SAPS    C3 8307   3.793   1.171  10.546 -0.1021  0.1908 -0.5709
   87SAPS    HX 8308   3.748   1.255  10.604  1.2658  0.4629  0.1193
   87SAPS    HY 8309   3.723   1.107  10.487  0.1759 -1.1666  0.5542
   87SAPS   O31 8310   3.891   1.231  10.462 -0.1559  0.2742 -0.0439
   87SAPS   C31 8311   3.831   1.291  10.363 -0.6506 -0.8179 -0.2847
   87SAPS   O32 8312   3.709   1.301  10.346 -0.4666 -0.0825 -0.2585
   87SAPS   C32 8313   3.936   1.323  10.249 -0.3657 -0.0556 -0.0962
   87SAPS   H2X 8314   4.032   1.271  10.270  0.6577  0.7217 -2.7025
   87SAPS   H2Y 8315   3.955   1.432  10.244  2.8034 -0.5147  0.8046
   87SAPS   C23 8316   4.012   0.758  10.325 -0.1375 -1.1884 -0.4302
   87SAPS   H3R 8317   3.941   0.810  10.257  0.3544 -0.2689 -0.2511
   87SAPS   H3S 8318   3.954   0.666  10.348  0.7732 -1.8598 -0.7893
   87SAPS   C24 8319   4.127   0.727  10.237  0.1442 -0.2589  0.6153
   87SAPS   H4R 8320   4.098   0.665  10.149 -0.2925  0.5231  0.2015
   87SAPS   H4S 8321   4.200   0.658  10.284 -0.0494 -2.1759 -1.7886
   87SAPS   C25 8322   4.206   0.840  10.186 -0.4363 -0.2214 -0.2532
   87SAPS   H5R 8323   4.263   0.890  10.266  2.4388  1.1765 -3.0731
   87SAPS   C26 8324   4.204   0.883  10.057 -0.2768 -0.6910  0.0102
   87SAPS   H6R 8325   4.261   0.975  10.035  1.2534 -0.9812  2.5977
   87SAPS   C27 8326   4.124   0.821   9.944 -0.1975 -0.4846  0.3188
   87SAPS   H7R 8327   4.020   0.813   9.983  0.2784  0.8862  1.9354
   87SAPS   H7S 8328   4.163   0.719   9.922  1.2850 -0.0814  1.0199
   87SAPS   C28 8329   4.127   0.904   9.819 -0.5813 -0.1560 -0.0555
   87SAPS   H8R 8330   4.063   0.994   9.826 -1.3006 -0.6585 -0.0944
   87SAPS   C29 8331   4.183   0.878   9.702 -0.7942 -0.3439 -0.1290
   87SAPS   H9R 8332   4.181   0.952   9.620 -1.4703 -0.4178 -0.1821
   87SAPS  C210 8333   4.257   0.751   9.665  0.4751  0.0041  0.3357
   87SAPS  H10R 8334   4.187   0.672   9.700  1.2918 -1.3062 -0.9449
   87SAPS  H10S 8335   4.344   0.744   9.734 -0.0466  2.4012  1.2839
   87SAPS  C211 8336   4.302   0.740   9.521  0.3173 -0.0302  0.0406
   87SAPS  H11R 8337   4.248   0.659   9.471 -0.8109 -0.0716  1.2751
   87SAPS  C212 8338   4.398   0.815   9.459  0.3407 -0.3438 -0.0624
   87SAPS  H12R 8339   4.421   0.798   9.353  3.0985  0.7723  0.3176
   87SAPS  C213 8340   4.477   0.923   9.520 -0.1003 -0.0360  0.6537
   87SAPS  H13R 8341   4.585   0.898   9.507 -0.0030  0.3113  0.7866
   87SAPS  H13S 8342   4.470   0.919   9.631 -0.1430 -0.0409  0.6515
   87SAPS  C214 8343   4.444   1.055   9.457  0.3239 -0.7363  0.1699
   87SAPS  H14R 8344   4.397   1.129   9.523  0.3162 -1.1545  0.6382
   87SAPS  C215 8345   4.470   1.101   9.336 -0.2791  0.1204 -0.2338
   87SAPS  H15R 8346   4.436   1.201   9.303 -0.1317 -0.0775 -1.0066
   87SAPS  C216 8347   4.552   1.033   9.227 -0.0630 -0.2930 -0.2216
   87SAPS  H16R 8348   4.584   0.930   9.252  1.5128 -0.5229 -2.9233
   87SAPS  H16S 8349   4.645   1.091   9.210  1.2786 -2.0142  1.0864
   87SAPS  C217 8350   4.473   1.021   9.089 -0.5937  0.7168 -1.1551
   87SAPS  H17R 8351   4.437   1.124   9.071 -0.3922  1.0594  0.3108
   87SAPS  H17S 8352   4.389   0.949   9.097  0.4709 -0.5184 -0.9506
   87SAPS  C218 8353   4.570   0.985   8.976 -0.2984 -0.5766  0.7764
   87SAPS  H18R 8354   4.613   0.885   8.995 -0.7512 -0.7686  0.7875
   87SAPS  H18S 8355   4.649   1.063   8.982  0.3661 -0.9064 -2.7938
   87SAPS  C219 8356   4.505   0.993   8.829  0.1597 -0.5027  0.5803
   87SAPS  H19R 8357   4.412   0.932   8.828 -0.3637  0.3096 -0.4375
   87SAPS  H19S 8358   4.578   0.943   8.762  1.2665  2.6593 -0.6670
   87SAPS  C220 8359   4.474   1.131   8.768 -0.0610 -0.1558 -0.1209
   87SAPS  H20R 8360   4.568   1.189   8.760  0.6579 -1.1255  0.9858
   87SAPS  H20S 8361   4.395   1.190   8.818 -0.0400 -0.2542  0.0321
   87SAPS  H20T 8362   4.443   1.107   8.665  0.1868 -2.3664  0.2872
   87SAPS   C33 8363   3.889   1.278  10.103  0.3310 -0.3639  0.3596
   87SAPS   H3X 8364   3.800   1.340  10.081  1.5818  1.2863 -0.1553
   87SAPS   H3Y 8365   3.849   1.174  10.108 -1.6261  0.2211 -2.2826
   87SAPS   C34 8366   3.990   1.303   9.993  0.5007  0.3323  0.0123
   87SAPS   H4X 8367   4.080   1.244  10.021  0.7913  0.7789  0.0215
   87SAPS   H4Y 8368   4.011   1.411   9.980 -0.3226  0.5416  0.3585
   87SAPS   C35 8369   3.945   1.258   9.850  0.1663 -0.4948  0.3106
   87SAPS   H5X 8370   3.865   1.332   9.826 -0.2717 -1.0597  0.0049
   87SAPS   H5Y 8371   3.900   1.156   9.860  0.3367 -0.7018 -1.0148
   87SAPS   C36 8372   4.060   1.274   9.752  0.5182  0.3052 -0.7460
   87SAPS   H6X 8373   4.135   1.196   9.776 -0.5399 -0.5495 -0.1602
   87SAPS   H6Y 8374   4.117   1.369   9.759 -0.9416  0.9800  3.3685
   87SAPS   C37 8375   4.011   1.255   9.608 -0.4725 -0.3538 -0.1891
   87SAPS   H7X 8376   3.930   1.327   9.585 -0.5480 -0.7113 -1.0736
   87SAPS   H7Y 8377   3.971   1.151   9.605 -1.4211 -0.0150  0.5782
   87SAPS   C38 8378   4.114   1.288   9.503 -0.5310 -0.0866  0.0928
   87SAPS   H8X 8379   4.210   1.234   9.518 -1.6887 -2.1961  0.0864
   87SAPS   H8Y 8380   4.145   1.393   9.519 -1.6726  0.1017  1.1161
   87SAPS   C39 8381   4.060   1.266   9.361 -0.5432 -0.5206 -0.1550
   87SAPS   H9X 8382   4.102   1.345   9.295 -1.4534  1.2103  1.2970
   87SAPS   H9Y 8383   3.952   1.291   9.369 -0.1247  1.1271  0.5871
   87SAPS  C310 8384   4.079   1.128   9.296  0.5450 -0.0204 -0.1959
   87SAPS  H10X 8385   4.036   1.062   9.374  2.7944  0.1605  1.2151
   87SAPS  H10Y 8386   4.188   1.112   9.282  0.9271  2.6960 -0.5054
   87SAPS  C311 8387   4.017   1.113   9.158 -0.3549  0.4185  0.0074
   87SAPS  H11X 8388   3.922   1.169   9.168 -0.5756 -0.2550  1.9381
   87SAPS  H11Y 8389   4.002   1.008   9.123 -0.8982  0.3990  0.2886
   87SAPS  C312 8390   4.098   1.179   9.045 -0.3508 -0.5297  0.4234
   87SAPS  H12X 8391   4.198   1.131   9.039  0.6919  1.1475  3.1610
   87SAPS  H12Y 8392   4.105   1.288   9.067 -3.4161 -0.6339  2.2909
   87SAPS  C313 8393   4.022   1.160   8.909 -1.0543  0.1883  0.0784
   87SAPS  H13X 8394   3.920   1.205   8.904 -1.8605 -1.2087  2.8104
   87SAPS  H13Y 8395   4.020   1.051   8.885  1.8962 -0.1258  1.0729
   87SAPS  C314 8396   4.094   1.217   8.791  0.5480 -0.0504 -0.1754
   87SAPS  H14X 8397   4.196   1.180   8.767 -0.0680 -1.1391 -1.1482
   87SAPS  H14Y 8398   4.091   1.328   8.795 -2.8811 -0.1592  1.8010
   87SAPS  C315 8399   4.029   1.181   8.656 -0.0333  0.0072 -0.3310
   87SAPS  H15X 8400   3.932   1.236   8.652  0.1949  0.4214 -0.1497
   87SAPS  H15Y 8401   4.014   1.071   8.652  1.9563 -0.2189 -2.6001
   87SAPS  C316 8402   4.109   1.198   8.525  0.7837 -0.1973  0.8044
   87SAPS  H16X 8403   4.197   1.130   8.517  0.6168 -0.5385  1.8545
   87SAPS  H16Y 8404   4.161   1.296   8.520  0.5058  0.0956  3.3155
   87SAPS  C317 8405   4.028   1.185   8.393 -0.3813 -0.2004  0.5957
   87SAPS  H17X 8406   4.007   1.078   8.375 -2.9561  0.3475  0.1955
   87SAPS  H17Y 8407   4.096   1.216   8.310 -1.4995  0.8456  0.0583
   87SAPS  C318 8408   3.903   1.271   8.377 -0.3594 -0.2886 -0.0231
   87SAPS  H18X 8409   3.931   1.378   8.369 -0.0108 -0.2160  1.8439
   87SAPS  H18Y 8410   3.825   1.243   8.451 -1.2725 -0.1887 -0.9317
   87SAPS  H18Z 8411   3.862   1.256   8.275 -1.5911  1.5256  0.1803
   88SAPS     N 8412   6.347   5.535  11.065  0.2143  0.2791 -0.2839
   88SAPS   HN1 8413   6.383   5.447  11.108  0.6245  1.0472  0.9506
   88SAPS   HN2 8414   6.431   5.592  11.046  1.1224 -0.3687  1.6272
   88SAPS   HN3 8415   6.291   5.586  11.136 -1.4865 -1.3016 -0.4166
   88SAPS   C12 8416   6.273   5.524  10.935  0.3176 -0.5833 -0.0543
   88SAPS  H12A 8417   6.171   5.498  10.958  0.4108 -0.5280  0.4279
   88SAPS   C13 8418   6.275   5.661  10.850 -0.8043  0.1240  0.4517
   88SAPS  O13A 8419   6.328   5.765  10.896 -0.3059  0.0575  0.1809
   88SAPS  O13B 8420   6.206   5.662  10.747  0.0174 -0.2679  0.4847
   88SAPS   C11 8421   6.347   5.417  10.846  0.6568 -0.2428  0.3847
   88SAPS  H11A 8422   6.455   5.431  10.826  0.2278  0.4318 -1.5542
   88SAPS  H11B 8423   6.305   5.423  10.743 -0.3542  2.3220  0.9039
   88SAPS     P 8424   6.208   5.193  10.861 -0.2012 -0.2581  0.1899
   88SAPS   O13 8425   6.196   5.074  10.946 -0.2614  0.1324  0.5299
   88SAPS   O14 8426   6.085   5.275  10.839 -0.4062 -0.1021  0.0735
   88SAPS   O12 8427   6.330   5.285  10.901  0.1906  0.1199 -0.1657
   88SAPS   O11 8428   6.244   5.135  10.718  0.2140 -0.2965  0.4923
   88SAPS    C1 8429   6.366   5.117  10.660 -0.3936  0.3334 -0.3021
   88SAPS    HA 8430   6.453   5.109  10.729  1.4346  0.0495 -2.5539
   88SAPS    HB 8431   6.359   5.029  10.593  0.2650 -0.4402  0.6298
   88SAPS    C2 8432   6.419   5.230  10.569  0.4768 -0.5629  0.2017
   88SAPS    HS 8433   6.461   5.310  10.633 -0.5869  0.7778 -0.7331
   88SAPS   O21 8434   6.317   5.275  10.483  0.0807  0.1020  0.0775
   88SAPS   C21 8435   6.314   5.409  10.448 -0.3886  0.4309 -0.5122
   88SAPS   O22 8436   6.385   5.497  10.490 -0.9539 -0.3902 -0.3967
   88SAPS   C22 8437   6.184   5.430  10.368 -0.7568 -0.3187 -0.0753
   88SAPS   H2R 8438   6.136   5.341  10.322 -2.6627  0.8370 -0.3643
   88SAPS   H2S 8439   6.111   5.463  10.445  1.0755  0.1648  1.4959
   88SAPS    C3 8440   6.550   5.180  10.488 -0.0249 -1.2802  0.3735
   88SAPS    HX 8441   6.509   5.100  10.422  1.0834 -2.0294  0.5909
   88SAPS    HY 8442   6.625   5.146  10.562  0.2668  0.0617  0.7175
   88SAPS   O31 8443   6.601   5.282  10.406  0.3033 -0.2671 -0.5217
   88SAPS   C31 8444   6.677   5.236  10.306 -0.3381  0.3441  0.9841
   88SAPS   O32 8445   6.713   5.122  10.300  0.0609  0.7423  0.0201
   88SAPS   C32 8446   6.735   5.353  10.228  0.2686  0.7782 -0.7014
   88SAPS   H2X 8447   6.788   5.415  10.303  0.6726 -1.2983  0.7723
   88SAPS   H2Y 8448   6.651   5.407  10.180 -0.0273  0.6119 -0.3775
   88SAPS   C23 8449   6.190   5.538  10.255 -0.5561  0.0747 -0.0727
   88SAPS   H3R 8450   6.230   5.503  10.158 -0.2774 -0.1404  0.1172
   88SAPS   H3S 8451   6.269   5.611  10.287 -0.5793  0.6519 -1.3187
   88SAPS   C24 8452   6.055   5.605  10.245 -0.1332 -0.7549 -0.0222
   88SAPS   H4R 8453   6.066   5.702  10.192 -0.7476 -1.8569 -2.2505
   88SAPS   H4S 8454   6.025   5.644  10.344  1.1114  1.4732 -0.4999
   88SAPS   C25 8455   5.949   5.516  10.174  0.1638 -0.6238 -0.4995
   88SAPS   H5R 8456   5.899   5.452  10.249 -2.1635  0.2712 -1.2226
   88SAPS   C26 8457   5.918   5.511  10.036 -0.3301  0.6261 -0.5022
   88SAPS   H6R 8458   5.842   5.441   9.998 -0.9372  1.1397 -0.2555
   88SAPS   C27 8459   5.982   5.598   9.930  0.2868 -0.0096 -0.1047
   88SAPS   H7R 8460   6.069   5.554   9.876  0.8116  2.3073 -1.1974
   88SAPS   H7S 8461   6.030   5.689   9.972 -1.4085  0.5662  0.6463
   88SAPS   C28 8462   5.878   5.646   9.836 -0.0587  0.4901  0.4196
   88SAPS   H8R 8463   5.792   5.700   9.879  0.5193  2.3859 -0.7681
   88SAPS   C29 8464   5.872   5.628   9.705 -0.0329  0.0275  0.5486
   88SAPS   H9R 8465   5.791   5.676   9.649  0.6633 -1.8311 -2.1295
   88SAPS  C210 8466   5.981   5.553   9.620 -0.0582  0.4215  0.0917
   88SAPS  H10R 8467   5.975   5.443   9.620 -0.1178  0.4244  1.0794
   88SAPS  H10S 8468   6.081   5.579   9.662 -0.2968 -0.1244  1.0140
   88SAPS  C211 8469   5.983   5.612   9.479  0.7993  0.5905 -0.4099
   88SAPS  H11R 8470   6.000   5.721   9.487  1.1107  0.3274  3.9980
   88SAPS  C212 8471   5.962   5.554   9.362 -0.1714  0.4513  0.2167
   88SAPS  H12R 8472   5.950   5.619   9.274  1.8680  0.3955 -0.1209
   88SAPS  C213 8473   5.936   5.404   9.350  0.5586  0.2012  0.0490
   88SAPS  H13R 8474   6.000   5.344   9.419  0.7800  1.4946  0.9801
   88SAPS  H13S 8475   5.970   5.375   9.248 -0.4006 -0.1640 -0.1772
   88SAPS  C214 8476   5.785   5.365   9.359  0.2930 -0.0354 -0.3200
   88SAPS  H14R 8477   5.749   5.325   9.455  1.3852  0.6375  0.3739
   88SAPS  C215 8478   5.684   5.400   9.277  0.2572 -0.0653 -0.9468
   88SAPS  H15R 8479   5.590   5.353   9.308  2.0485 -3.6144 -0.5466
   88SAPS  C216 8480   5.702   5.472   9.146  0.1659  0.2549 -0.5013
   88SAPS  H16R 8481   5.807   5.483   9.113  0.4477 -2.4526 -0.6098
   88SAPS  H16S 8482   5.661   5.575   9.159  0.4272  0.2110  0.8348
   88SAPS  C217 8483   5.609   5.403   9.048  0.1841 -0.0525 -0.6164
   88SAPS  H17R 8484   5.611   5.455   8.950 -0.7002  0.5284 -0.3355
   88SAPS  H17S 8485   5.505   5.409   9.087 -0.9008 -1.3638 -3.2487
   88SAPS  C218 8486   5.652   5.262   9.007 -0.1434  0.0189 -0.2867
   88SAPS  H18R 8487   5.639   5.196   9.095  0.3989  1.3301  0.7998
   88SAPS  H18S 8488   5.758   5.276   8.978  0.5369 -0.4362  1.9429
   88SAPS  C219 8489   5.567   5.199   8.894  0.2046  0.7038  0.6480
   88SAPS  H19R 8490   5.588   5.091   8.895 -0.6235  0.5308  0.1571
   88SAPS  H19S 8491   5.607   5.241   8.799  0.1364  0.5062  0.5323
   88SAPS  C220 8492   5.419   5.222   8.918  0.6668  0.4392  0.0943
   88SAPS  H20R 8493   5.354   5.184   8.836  3.1374 -0.0416 -1.7106
   88SAPS  H20S 8494   5.391   5.329   8.910  2.6100  0.8535 -1.7965
   88SAPS  H20T 8495   5.382   5.187   9.016 -2.2145  1.5621 -0.5430
   88SAPS   C33 8496   6.827   5.326  10.108  0.0310  0.4770 -0.5129
   88SAPS   H3X 8497   6.921   5.284  10.152 -0.4252  2.4831  2.6034
   88SAPS   H3Y 8498   6.874   5.421  10.074  0.3529  0.5353  0.0696
   88SAPS   C34 8499   6.765   5.252   9.988  0.1698  0.0933 -0.2668
   88SAPS   H4X 8500   6.670   5.195   9.999 -0.0281  0.7176  1.3979
   88SAPS   H4Y 8501   6.834   5.164   9.988  1.3712  0.9831  2.3554
   88SAPS   C35 8502   6.767   5.322   9.852  0.0326  0.0124 -0.0043
   88SAPS   H5X 8503   6.738   5.429   9.858  2.4316  0.5688  2.1768
   88SAPS   H5Y 8504   6.701   5.262   9.786  1.4069 -0.9750 -0.4934
   88SAPS   C36 8505   6.914   5.335   9.794 -0.6787  0.4019  0.3444
   88SAPS   H6X 8506   6.946   5.234   9.762 -0.8207  1.4194 -3.1896
   88SAPS   H6Y 8507   6.986   5.355   9.877 -0.7837  1.2818  0.2336
   88SAPS   C37 8508   6.932   5.420   9.665  0.3680  0.1595  0.3561
   88SAPS   H7X 8509   7.042   5.424   9.653  0.2633 -0.0233 -0.6958
   88SAPS   H7Y 8510   6.890   5.520   9.688  0.8154 -0.3050  3.4572
   88SAPS   C38 8511   6.874   5.370   9.531 -0.3492  0.0305  0.5186
   88SAPS   H8X 8512   6.769   5.342   9.553 -1.3175  0.4959 -3.2506
   88SAPS   H8Y 8513   6.924   5.274   9.505 -1.8671 -0.5294 -0.3630
   88SAPS   C39 8514   6.882   5.467   9.419  0.4374 -0.1467  0.6440
   88SAPS   H9X 8515   6.982   5.454   9.371  0.9636  0.6355  1.4927
   88SAPS   H9Y 8516   6.876   5.571   9.460 -1.7294  0.3314 -0.8124
   88SAPS  C310 8517   6.772   5.447   9.321  0.5127  0.3604 -0.0106
   88SAPS  H10X 8518   6.676   5.482   9.363  0.2295 -0.4741  0.0457
   88SAPS  H10Y 8519   6.766   5.337   9.308  0.5998  0.0976  2.0709
   88SAPS  C311 8520   6.798   5.520   9.197  0.3960 -0.1015 -0.2349
   88SAPS  H11X 8521   6.898   5.496   9.155  0.6205  0.6992 -0.1739
   88SAPS  H11Y 8522   6.805   5.629   9.219  2.2862  0.1098 -1.7486
   88SAPS  C312 8523   6.681   5.501   9.104  0.0296 -0.2173  0.3292
   88SAPS  H12X 8524   6.593   5.553   9.147  1.3126  2.6090 -0.3953
   88SAPS  H12Y 8525   6.651   5.394   9.094  0.7897 -0.6598  2.3722
   88SAPS  C313 8526   6.708   5.550   8.966  0.1149  0.4343 -0.3935
   88SAPS  H13X 8527   6.786   5.489   8.917 -1.5440 -0.0710 -2.5199
   88SAPS  H13Y 8528   6.749   5.653   8.970 -2.2917  1.3493  2.1766
   88SAPS  C314 8529   6.577   5.558   8.881  0.0659  0.7709  0.3730
   88SAPS  H14X 8530   6.506   5.619   8.941 -0.3476  0.6216  0.0397
   88SAPS  H14Y 8531   6.532   5.456   8.877 -0.0445  0.7664  1.5189
   88SAPS  C315 8532   6.606   5.613   8.739  0.2361 -0.1297 -0.5193
   88SAPS  H15X 8533   6.693   5.563   8.691 -0.6507 -1.8193 -0.3904
   88SAPS  H15Y 8534   6.647   5.716   8.753  2.5831 -0.9797 -0.9277
   88SAPS  C316 8535   6.475   5.618   8.657  0.1346 -0.2201  0.4054
   88SAPS  H16X 8536   6.477   5.708   8.592  1.1042  0.8119  1.8301
   88SAPS  H16Y 8537   6.392   5.640   8.728 -0.6401 -1.8289  0.0290
   88SAPS  C317 8538   6.443   5.492   8.572 -0.1949 -0.5165 -0.1081
   88SAPS  H17X 8539   6.442   5.410   8.647 -2.5367 -1.2965 -0.9481
   88SAPS  H17Y 8540   6.524   5.484   8.497  0.3680 -2.1424  0.6424
   88SAPS  C318 8541   6.301   5.510   8.517 -0.6955  0.0485 -0.3759
   88SAPS  H18X 8542   6.280   5.418   8.458 -0.6113 -0.2782  0.0979
   88SAPS  H18Y 8543   6.294   5.611   8.473  1.2167  0.8401  1.0912
   88SAPS  H18Z 8544   6.223   5.519   8.596  1.0396  2.8561  1.0944
   89SAPS     N 8545   5.666   2.008  10.822  0.0772  0.4598  0.2324
   89SAPS   HN1 8546   5.621   1.998  10.729 -1.4525  0.1861  0.9796
   89SAPS   HN2 8547   5.734   2.087  10.824 -1.2586  1.6371  0.0287
   89SAPS   HN3 8548   5.708   1.913  10.831  1.6300  0.8767 -2.3001
   89SAPS   C12 8549   5.558   2.041  10.919  0.5294  0.1081 -0.2842
   89SAPS  H12A 8550   5.531   1.947  10.965  1.6771 -0.0070  0.1756
   89SAPS   C13 8551   5.610   2.139  11.027  0.4815 -0.0648 -0.1723
   89SAPS  O13A 8552   5.720   2.199  11.013  0.1600  0.7426  0.1454
   89SAPS  O13B 8553   5.535   2.172  11.119  0.8678  0.0445 -0.0271
   89SAPS   C11 8554   5.456   2.129  10.839 -0.1768  0.3475 -1.0328
   89SAPS  H11A 8555   5.380   2.160  10.914  2.6549 -1.5637  2.7483
   89SAPS  H11B 8556   5.402   2.063  10.767 -1.6127 -1.5092  1.6475
   89SAPS     P 8557   5.443   2.362  10.723 -0.4552 -0.2625 -0.0111
   89SAPS   O13 8558   5.299   2.342  10.741 -0.0208  0.1238 -0.9100
   89SAPS   O14 8559   5.501   2.468  10.814 -0.2184  0.9994  0.2216
   89SAPS   O12 8560   5.521   2.229  10.755 -0.4161  0.5397  0.6519
   89SAPS   O11 8561   5.468   2.406  10.573 -0.2309  0.2037 -0.4381
   89SAPS    C1 8562   5.592   2.427  10.511  0.3283 -0.7575  1.0528
   89SAPS    HA 8563   5.644   2.506  10.569  0.0808  0.9489 -0.9489
   89SAPS    HB 8564   5.658   2.338  10.503 -0.0909 -1.0378  0.6728
   89SAPS    C2 8565   5.586   2.502  10.369 -0.7789 -0.2835 -0.1300
   89SAPS    HS 8566   5.526   2.592  10.395  0.0815 -0.4632  2.6563
   89SAPS   O21 8567   5.527   2.419  10.269  0.0137 -0.3018  0.1393
   89SAPS   C21 8568   5.449   2.485  10.191  0.0932 -0.0848 -0.1387
   89SAPS   O22 8569   5.406   2.602  10.203  0.3518  0.1294  0.0875
   89SAPS   C22 8570   5.416   2.375  10.081 -0.7139 -0.3097  0.4801
   89SAPS   H2R 8571   5.505   2.313  10.056  0.9359  1.6931  1.3110
   89SAPS   H2S 8572   5.336   2.310  10.123 -0.0946 -0.5093  1.3710
   89SAPS    C3 8573   5.716   2.553  10.315 -0.5172 -0.8197  0.1414
   89SAPS    HX 8574   5.778   2.464  10.292  0.8726  0.2166 -0.2025
   89SAPS    HY 8575   5.765   2.616  10.393  2.2485 -2.7940  0.0793
   89SAPS   O31 8576   5.705   2.632  10.194  0.6977 -0.1106 -0.4298
   89SAPS   C31 8577   5.668   2.761  10.210 -0.0341 -0.1095  0.5922
   89SAPS   O32 8578   5.656   2.808  10.320 -0.1203 -0.1444 -0.1185
   89SAPS   C32 8579   5.660   2.827  10.075  0.3650 -0.6118  0.4504
   89SAPS   H2X 8580   5.759   2.858  10.036 -0.1217  1.3182  0.7359
   89SAPS   H2Y 8581   5.614   2.925  10.097 -0.3691 -1.0450  0.8655
   89SAPS   C23 8582   5.360   2.415   9.952 -0.1555 -0.1127  0.0680
   89SAPS   H3R 8583   5.430   2.487   9.905 -0.9673  0.4136 -0.3458
   89SAPS   H3S 8584   5.262   2.467   9.961  0.3363  1.2785 -2.1044
   89SAPS   C24 8585   5.316   2.303   9.861 -0.9240  0.7286 -0.1385
   89SAPS   H4R 8586   5.242   2.337   9.786 -1.4559  1.0114  0.5067
   89SAPS   H4S 8587   5.240   2.243   9.917 -0.2760 -2.2208 -2.2898
   89SAPS   C25 8588   5.437   2.226   9.807 -0.4771 -0.2422 -0.7972
   89SAPS   H5R 8589   5.494   2.179   9.889 -0.6232 -0.1081 -0.6175
   89SAPS   C26 8590   5.481   2.203   9.684  0.5493  0.0250  0.3816
   89SAPS   H6R 8591   5.572   2.142   9.673 -0.0526 -1.1623  1.8471
   89SAPS   C27 8592   5.409   2.240   9.555 -0.2538  0.1148  0.7814
   89SAPS   H7R 8593   5.301   2.265   9.570 -0.5286 -0.0930 -0.7843
   89SAPS   H7S 8594   5.403   2.148   9.493 -0.3553 -0.0344  1.0110
   89SAPS   C28 8595   5.481   2.355   9.485  0.6484 -0.1533  1.0785
   89SAPS   H8R 8596   5.509   2.442   9.545  0.0476  1.6423 -1.1882
   89SAPS   C29 8597   5.510   2.368   9.353  0.0051 -0.1082  0.0677
   89SAPS   H9R 8598   5.565   2.458   9.325  1.5332 -0.7280  1.0336
   89SAPS  C210 8599   5.473   2.283   9.233  0.2342  0.1049 -0.2968
   89SAPS  H10R 8600   5.450   2.350   9.148 -0.3331  0.3186  0.0165
   89SAPS  H10S 8601   5.386   2.216   9.251  0.1796  0.1709 -0.3149
   89SAPS  C211 8602   5.593   2.198   9.203 -1.0718 -0.2032  0.2173
   89SAPS  H11R 8603   5.626   2.137   9.288  0.5674 -0.5698 -0.6731
   89SAPS  C212 8604   5.652   2.186   9.090  0.4431  0.6168  0.7596
   89SAPS  H12R 8605   5.754   2.144   9.077 -0.1620 -0.2144 -1.5405
   89SAPS  C213 8606   5.623   2.251   8.963 -0.7222  0.4757  0.0976
   89SAPS  H13R 8607   5.704   2.245   8.887  1.0530  0.7130  1.9421
   89SAPS  H13S 8608   5.620   2.361   8.978  0.4612  0.3670  1.2008
   89SAPS  C214 8609   5.487   2.214   8.905  0.5246 -0.1359 -0.0543
   89SAPS  H14R 8610   5.421   2.162   8.976  1.0084 -0.2523  0.3204
   89SAPS  C215 8611   5.424   2.256   8.796 -0.3619 -0.3743 -0.1719
   89SAPS  H15R 8612   5.326   2.212   8.772 -0.7509 -0.0234  0.7412
   89SAPS  C216 8613   5.488   2.345   8.692 -0.9905  0.7530  0.2401
   89SAPS  H16R 8614   5.579   2.395   8.731 -1.3709  0.7137  1.1882
   89SAPS  H16S 8615   5.420   2.428   8.662 -0.5699  0.5000 -1.4767
   89SAPS  C217 8616   5.520   2.259   8.567 -0.1980 -0.5194  0.4502
   89SAPS  H17R 8617   5.424   2.212   8.535 -0.3246 -0.0158  0.0896
   89SAPS  H17S 8618   5.590   2.177   8.592  0.0905 -1.0249 -1.8757
   89SAPS  C218 8619   5.581   2.351   8.453 -0.1809  1.2955 -0.1071
   89SAPS  H18R 8620   5.635   2.289   8.379 -0.1300  0.4083  0.6760
   89SAPS  H18S 8621   5.658   2.405   8.511  0.3675 -0.9324  1.2814
   89SAPS  C219 8622   5.489   2.438   8.366  0.1984 -0.1392 -0.0347
   89SAPS  H19R 8623   5.554   2.484   8.289  1.3179 -1.8964 -0.1714
   89SAPS  H19S 8624   5.452   2.525   8.425 -1.0701  1.1378 -2.6168
   89SAPS  C220 8625   5.364   2.368   8.313 -0.5378 -0.5559  0.4896
   89SAPS  H20R 8626   5.387   2.286   8.241  1.1754 -0.6322  1.0864
   89SAPS  H20S 8627   5.312   2.446   8.254 -2.1885 -0.3988  2.1313
   89SAPS  H20T 8628   5.294   2.338   8.393 -0.7102  1.9454  1.3159
   89SAPS   C33 8629   5.592   2.743   9.962  0.8132  0.1427 -0.0862
   89SAPS   H3X 8630   5.484   2.727   9.980  0.6726 -1.7317 -2.3834
   89SAPS   H3Y 8631   5.643   2.645   9.949  0.0293 -0.1015 -1.4024
   89SAPS   C34 8632   5.605   2.818   9.833 -0.5412  0.2137  0.0416
   89SAPS   H4X 8633   5.708   2.858   9.821 -0.2987 -0.2249  0.6493
   89SAPS   H4Y 8634   5.542   2.910   9.842 -0.6986  0.4320 -2.7901
   89SAPS   C35 8635   5.566   2.752   9.701 -0.3879  0.1012  0.8225
   89SAPS   H5X 8636   5.457   2.729   9.703  0.0021 -1.9603 -0.3770
   89SAPS   H5Y 8637   5.618   2.654   9.699 -0.6183 -0.0506  2.0167
   89SAPS   C36 8638   5.615   2.834   9.581 -0.3794 -0.8879  0.2868
   89SAPS   H6X 8639   5.725   2.846   9.585 -0.2318 -0.7253 -2.8818
   89SAPS   H6Y 8640   5.569   2.935   9.573 -0.1335 -0.8287 -0.4769
   89SAPS   C37 8641   5.589   2.747   9.451 -0.2449 -0.8438 -0.6483
   89SAPS   H7X 8642   5.481   2.721   9.451 -1.0926  2.3329  0.9591
   89SAPS   H7Y 8643   5.648   2.653   9.451 -2.6601 -2.4179 -0.1021
   89SAPS   C38 8644   5.632   2.824   9.333 -0.1280  0.3191  0.7205
   89SAPS   H8X 8645   5.739   2.847   9.352  0.2167 -0.2916 -0.4462
   89SAPS   H8Y 8646   5.578   2.919   9.314  1.6591  0.7443 -2.6847
   89SAPS   C39 8647   5.605   2.725   9.215 -0.7325  0.3982 -0.0565
   89SAPS   H9X 8648   5.495   2.712   9.213 -0.5594 -1.8267  1.9751
   89SAPS   H9Y 8649   5.653   2.631   9.251 -1.7220  0.6565  2.0197
   89SAPS  C310 8650   5.662   2.787   9.087 -0.0463 -0.3790 -0.3682
   89SAPS  H10X 8651   5.773   2.783   9.086  0.0058  0.0386  1.3618
   89SAPS  H10Y 8652   5.636   2.895   9.082  2.2224  0.1383 -1.5329
   89SAPS  C311 8653   5.634   2.701   8.960  0.5914 -0.2732  0.2119
   89SAPS  H11X 8654   5.525   2.682   8.947  0.7321 -0.3335 -0.8921
   89SAPS  H11Y 8655   5.678   2.599   8.965 -0.7948 -1.1462 -3.4908
   89SAPS  C312 8656   5.670   2.765   8.825 -0.1287 -0.3777  0.0081
   89SAPS  H12X 8657   5.656   2.697   8.738  2.3157  0.2603 -0.9408
   89SAPS  H12Y 8658   5.780   2.782   8.819 -0.4417  2.3980  1.5391
   89SAPS  C313 8659   5.598   2.895   8.792 -0.5535 -0.6823 -0.5227
   89SAPS  H13X 8660   5.612   2.971   8.871 -0.6760 -2.2391  1.0217
   89SAPS  H13Y 8661   5.488   2.882   8.799 -0.7706  2.3336  2.9738
   89SAPS  C314 8662   5.644   2.948   8.658  1.2561  0.1585 -0.2398
   89SAPS  H14X 8663   5.619   2.864   8.590  0.3710  0.0689  0.1895
   89SAPS  H14Y 8664   5.754   2.962   8.658  1.1632  0.9951  1.5370
   89SAPS  C315 8665   5.568   3.079   8.626 -1.1355  0.4332  0.6016
   89SAPS  H15X 8666   5.593   3.150   8.708 -2.1490  2.1543 -0.5460
   89SAPS  H15Y 8667   5.459   3.070   8.610 -0.9575 -0.6343 -0.0493
   89SAPS  C316 8668   5.630   3.145   8.507  0.5193  0.4137  1.0116
   89SAPS  H16X 8669   5.734   3.165   8.540  0.7723  1.3679 -0.2868
   89SAPS  H16Y 8670   5.592   3.249   8.498  0.2615  0.2884  0.6452
   89SAPS  C317 8671   5.631   3.070   8.374 -0.3065 -0.8936 -0.8736
   89SAPS  H17X 8672   5.526   3.051   8.342 -0.8234  0.9965 -0.3645
   89SAPS  H17Y 8673   5.675   2.968   8.385  0.0552 -0.5268  1.2538
   89SAPS  C318 8674   5.712   3.156   8.276  0.4955 -0.8481  0.6278
   89SAPS  H18X 8675   5.662   3.254   8.259 -1.8384 -1.9646  0.8527
   89SAPS  H18Y 8676   5.705   3.095   8.184  1.9083  1.2064 -0.9022
   89SAPS  H18Z 8677   5.819   3.174   8.299  0.0476  0.2781  1.9297
   90SAPS     N 8678   1.362   1.505  10.946  0.0964  0.5474 -0.6050
   90SAPS   HN1 8679   1.378   1.499  11.049 -0.4309 -1.4062 -0.6149
   90SAPS   HN2 8680   1.375   1.418  10.890 -0.7545  0.8310 -1.2498
   90SAPS   HN3 8681   1.429   1.577  10.912  1.0704  0.9381  1.9956
   90SAPS   C12 8682   1.229   1.560  10.916  0.2786 -0.1383  0.9710
   90SAPS  H12A 8683   1.155   1.505  10.971 -1.5353  0.4674 -0.7803
   90SAPS   C13 8684   1.214   1.708  10.956  0.2651  0.0408 -0.1161
   90SAPS  O13A 8685   1.291   1.761  11.035  0.3369 -0.5680 -0.0234
   90SAPS  O13B 8686   1.110   1.771  10.915 -0.7051  0.4377 -0.2093
   90SAPS   C11 8687   1.200   1.537  10.757  0.0331 -0.2769 -0.6496
   90SAPS  H11A 8688   1.261   1.617  10.711 -0.0864  1.8914  2.8233
   90SAPS  H11B 8689   1.090   1.549  10.758 -0.0606 -0.9561 -1.6235
   90SAPS     P 8690   1.227   1.394  10.543  0.2658 -0.0805 -0.5189
   90SAPS   O13 8691   1.361   1.432  10.488  0.4871  0.7672 -0.5128
   90SAPS   O14 8692   1.180   1.258  10.507 -0.4848 -0.9290 -0.5841
   90SAPS   O12 8693   1.223   1.409  10.709 -0.2119  0.2429  0.7571
   90SAPS   O11 8694   1.125   1.499  10.493 -0.7369  0.0276 -0.5759
   90SAPS    C1 8695   0.982   1.471  10.498  0.8229 -0.1805 -0.5271
   90SAPS    HA 8696   0.960   1.365  10.523  3.3200 -0.6446 -0.2313
   90SAPS    HB 8697   0.930   1.537  10.571 -1.4790 -0.7730 -1.5941
   90SAPS    C2 8698   0.919   1.507  10.362  0.1921 -0.0784  0.0498
   90SAPS    HS 8699   0.813   1.475  10.359 -0.3184  1.7062 -1.8091
   90SAPS   O21 8700   0.998   1.437  10.262  0.7764  0.2359 -0.8621
   90SAPS   C21 8701   0.964   1.311  10.257  0.8109 -0.0167  0.7034
   90SAPS   O22 8702   0.870   1.259  10.313 -0.2051 -0.5299 -0.1744
   90SAPS   C22 8703   1.056   1.233  10.160 -0.3291 -0.1344 -0.0425
   90SAPS   H2R 8704   1.082   1.141  10.218 -0.3973 -0.4793 -0.5525
   90SAPS   H2S 8705   0.994   1.210  10.070 -2.1084  0.8908  0.8868
   90SAPS    C3 8706   0.930   1.656  10.333  0.4391 -0.0073 -0.6781
   90SAPS    HX 8707   1.035   1.683  10.309  0.6434 -0.6220 -0.4835
   90SAPS    HY 8708   0.923   1.715  10.427  2.2432 -0.6117 -0.1462
   90SAPS   O31 8709   0.841   1.698  10.228  0.1063  0.0546 -0.5785
   90SAPS   C31 8710   0.797   1.820  10.236  0.2575  0.1702  0.6307
   90SAPS   O32 8711   0.836   1.907  10.311  0.1634 -0.3918  0.2626
   90SAPS   C32 8712   0.688   1.824  10.122 -0.0596 -0.3268  0.2418
   90SAPS   H2X 8713   0.646   1.926  10.132  1.3003  0.2465  0.1222
   90SAPS   H2Y 8714   0.606   1.751  10.142  0.8876 -1.3175  0.6023
   90SAPS   C23 8715   1.184   1.306  10.115  0.1761  0.5390 -0.4263
   90SAPS   H3R 8716   1.262   1.319  10.192  0.0410 -0.5112 -0.1105
   90SAPS   H3S 8717   1.164   1.409  10.077  1.1246  1.2131  0.8517
   90SAPS   C24 8718   1.246   1.236   9.997  1.3316  0.5096 -0.1143
   90SAPS   H4R 8719   1.324   1.308   9.966  0.2625  0.5193 -2.9305
   90SAPS   H4S 8720   1.174   1.238   9.912  1.0006  2.7168  0.1692
   90SAPS   C25 8721   1.305   1.104  10.031 -0.9072  0.1565  0.1144
   90SAPS   H5R 8722   1.384   1.117  10.107 -1.6322 -0.7370  1.0345
   90SAPS   C26 8723   1.258   0.983   9.998  0.2153 -0.8062 -0.1811
   90SAPS   H6R 8724   1.310   0.892  10.031 -0.4558 -0.8840  0.6969
   90SAPS   C27 8725   1.146   0.944   9.905 -0.3490  0.8737 -0.3051
   90SAPS   H7R 8726   1.100   1.029   9.852  1.8948  0.2211 -3.4525
   90SAPS   H7S 8727   1.066   0.887   9.956  0.6293 -0.8317 -0.6348
   90SAPS   C28 8728   1.196   0.853   9.795  0.0805  0.0688  0.0076
   90SAPS   H8R 8729   1.198   0.747   9.826  0.8423  0.2177  0.4831
   90SAPS   C29 8730   1.222   0.887   9.659  0.4239  0.7640 -0.2363
   90SAPS   H9R 8731   1.265   0.820   9.583  0.7487  1.3527 -0.5763
   90SAPS  C210 8732   1.189   1.020   9.598  0.2899 -0.6973 -0.1001
   90SAPS  H10R 8733   1.095   1.054   9.646 -1.6156 -1.6724 -3.0233
   90SAPS  H10S 8734   1.159   1.011   9.492 -0.5940  0.6902  0.0136
   90SAPS  C211 8735   1.285   1.139   9.610  0.5758  0.2622 -0.6497
   90SAPS  H11R 8736   1.332   1.147   9.710  1.0534 -3.2428 -0.5294
   90SAPS  C212 8737   1.333   1.215   9.511 -0.2357 -0.4474 -0.5743
   90SAPS  H12R 8738   1.406   1.290   9.545 -1.3553 -0.1791  1.3503
   90SAPS  C213 8739   1.298   1.202   9.366 -0.5776  1.3042  0.0910
   90SAPS  H13R 8740   1.305   1.301   9.315 -0.0818  0.3170 -1.8286
   90SAPS  H13S 8741   1.193   1.169   9.354 -0.0708 -0.6530  0.7641
   90SAPS  C214 8742   1.389   1.111   9.282 -0.0303  0.4393 -0.4170
   90SAPS  H14R 8743   1.450   1.047   9.347 -1.4658 -1.0948 -0.5464
   90SAPS  C215 8744   1.413   1.119   9.150 -0.3336 -0.1190  0.9600
   90SAPS  H15R 8745   1.463   1.031   9.107  0.5998  0.4741  0.8174
   90SAPS  C216 8746   1.369   1.214   9.050  0.1969 -0.9801  0.2734
   90SAPS  H16R 8747   1.446   1.227   8.971 -3.1670  0.4947 -2.8999
   90SAPS  H16S 8748   1.365   1.313   9.101  2.5434  0.2883 -1.8990
   90SAPS  C217 8749   1.238   1.180   8.976 -1.0967  0.3211  0.2256
   90SAPS  H17R 8750   1.200   1.267   8.918 -0.6686 -1.2601 -2.5265
   90SAPS  H17S 8751   1.160   1.145   9.047 -1.8320  0.7608 -0.3584
   90SAPS  C218 8752   1.287   1.081   8.864  0.4418 -0.4864  0.1451
   90SAPS  H18R 8753   1.307   0.981   8.906 -2.6622 -1.2796 -0.1215
   90SAPS  H18S 8754   1.383   1.117   8.820 -0.9110  0.0597 -2.5143
   90SAPS  C219 8755   1.199   1.077   8.737  0.7254 -0.6438  0.0514
   90SAPS  H19R 8756   1.196   1.181   8.699 -3.2390 -0.1324  1.5277
   90SAPS  H19S 8757   1.098   1.042   8.767  0.1618  1.4661  0.7238
   90SAPS  C220 8758   1.242   0.971   8.634  0.2431  0.2813 -0.5182
   90SAPS  H20R 8759   1.154   0.935   8.576  0.9762 -0.8245 -0.9532
   90SAPS  H20S 8760   1.284   0.881   8.685  1.7803  1.6088  0.5908
   90SAPS  H20T 8761   1.319   1.006   8.562 -0.8808  0.3069 -1.7278
   90SAPS   C33 8762   0.737   1.783   9.982 -0.0951 -0.0805  0.4668
   90SAPS   H3X 8763   0.786   1.683   9.985 -1.3701 -0.7068  0.6425
   90SAPS   H3Y 8764   0.817   1.848   9.940 -0.6769  0.9620  0.9480
   90SAPS   C34 8765   0.615   1.767   9.888 -0.5060 -0.1393  0.5004
   90SAPS   H4X 8766   0.570   1.869   9.879  0.2868  0.0499 -1.5417
   90SAPS   H4Y 8767   0.539   1.693   9.921 -0.7245  0.3793  1.1696
   90SAPS   C35 8768   0.646   1.740   9.742  0.0888  0.3653  0.4543
   90SAPS   H5X 8769   0.690   1.638   9.739 -0.5359  0.1461 -4.0401
   90SAPS   H5Y 8770   0.704   1.827   9.705  1.6049  0.4779  2.9182
   90SAPS   C36 8771   0.522   1.739   9.649  0.2905  0.3270 -0.4683
   90SAPS   H6X 8772   0.453   1.824   9.670 -1.7405 -1.2308 -0.7181
   90SAPS   H6Y 8773   0.470   1.646   9.678  1.0123 -0.2753 -1.0899
   90SAPS   C37 8774   0.553   1.738   9.501 -0.5387  0.4118  0.2349
   90SAPS   H7X 8775   0.465   1.699   9.445  0.1870 -0.4482 -0.3280
   90SAPS   H7Y 8776   0.645   1.676   9.501 -0.6558  0.2350  1.2928
   90SAPS   C38 8777   0.586   1.876   9.444  0.9321 -0.2017  0.4686
   90SAPS   H8X 8778   0.673   1.912   9.504 -1.4076  0.6418  3.5128
   90SAPS   H8Y 8779   0.502   1.947   9.457 -0.4138 -1.6220 -0.2851
   90SAPS   C39 8780   0.607   1.881   9.301 -0.2626  0.7696  1.1689
   90SAPS   H9X 8781   0.640   1.979   9.262 -0.5617  0.8220  1.0430
   90SAPS   H9Y 8782   0.514   1.858   9.245  0.2803  0.4700  0.3877
   90SAPS  C310 8783   0.699   1.771   9.251  0.0468  0.0606  0.4706
   90SAPS  H10X 8784   0.658   1.672   9.279  1.9450 -0.5859  1.0232
   90SAPS  H10Y 8785   0.788   1.778   9.317 -0.2233 -1.2791  0.9924
   90SAPS  C311 8786   0.727   1.770   9.099 -0.1532  0.3851  0.5398
   90SAPS  H11X 8787   0.635   1.797   9.043  0.1173  0.5389  0.1627
   90SAPS  H11Y 8788   0.770   1.672   9.068 -1.0476 -0.4796  2.0022
   90SAPS  C312 8789   0.834   1.871   9.047  0.0539  0.2855 -0.7128
   90SAPS  H12X 8790   0.931   1.864   9.101  0.6213  1.1870 -1.5921
   90SAPS  H12Y 8791   0.787   1.969   9.071  0.1176  0.1521 -0.0360
   90SAPS  C313 8792   0.853   1.874   8.897 -0.3336 -0.5602  0.1896
   90SAPS  H13X 8793   0.871   1.773   8.855 -1.2002 -0.6915  0.1252
   90SAPS  H13Y 8794   0.945   1.936   8.885 -1.6943  1.7170  1.1942
   90SAPS  C314 8795   0.729   1.951   8.838 -0.4849  0.2819  0.4861
   90SAPS  H14X 8796   0.711   2.042   8.899  0.2414  1.3046 -0.7810
   90SAPS  H14Y 8797   0.647   1.877   8.844 -1.0137  0.8948  0.9086
   90SAPS  C315 8798   0.752   1.998   8.691  0.0512 -0.0750 -1.4390
   90SAPS  H15X 8799   0.804   1.916   8.636  1.4675 -0.4597  0.4240
   90SAPS  H15Y 8800   0.822   2.085   8.697 -0.3125 -0.0265  4.1571
   90SAPS  C316 8801   0.626   2.031   8.603 -0.5834 -0.2097  0.2342
   90SAPS  H16X 8802   0.564   1.940   8.592 -0.3086 -0.0802 -2.8882
   90SAPS  H16Y 8803   0.648   2.060   8.498 -0.2491 -0.2638  0.2875
   90SAPS  C317 8804   0.545   2.127   8.693 -0.3916  0.1883 -0.2359
   90SAPS  H17X 8805   0.527   2.069   8.785  1.8407  1.1919  0.8723
   90SAPS  H17Y 8806   0.446   2.156   8.651 -0.0145  2.8301  0.6425
   90SAPS  C318 8807   0.626   2.256   8.717 -0.1069  0.4811 -0.0736
   90SAPS  H18X 8808   0.710   2.231   8.786  0.3372 -0.8962 -1.0908
   90SAPS  H18Y 8809   0.560   2.331   8.765 -0.2914 -0.3494  1.0013
   90SAPS  H18Z 8810   0.673   2.287   8.622  4.7326  1.3560  2.4148
   91SAPS     N 8811   5.508   6.510   6.080  0.6079 -0.7100  0.3229
   91SAPS   HN1 8812   5.461   6.575   6.014  0.7770  0.6966  1.5540
   91SAPS   HN2 8813   5.476   6.539   6.175  2.4291  0.6060  0.5501
   91SAPS   HN3 8814   5.611   6.522   6.074  0.4931 -0.0789 -0.5328
   91SAPS   C12 8815   5.471   6.371   6.057  0.5401 -0.3796 -0.3604
   91SAPS  H12A 8816   5.478   6.320   6.152 -0.0840 -1.5954 -0.9612
   91SAPS   C13 8817   5.317   6.343   6.020  0.7610  0.3802 -0.1049
   91SAPS  O13A 8818   5.234   6.435   6.030  0.7322  0.1157 -0.2840
   91SAPS  O13B 8819   5.280   6.223   6.020 -0.0478 -0.1459 -0.0026
   91SAPS   C11 8820   5.567   6.307   5.951  0.4641 -0.8053 -0.5984
   91SAPS  H11A 8821   5.590   6.378   5.869 -0.5744 -0.2902 -0.4571
   91SAPS  H11B 8822   5.515   6.226   5.895  0.0652  0.1075 -1.5737
   91SAPS     P 8823   5.714   6.111   6.054 -0.2543  0.2250 -0.8629
   91SAPS   O13 8824   5.625   6.021   5.975  0.1137 -0.7349 -0.6385
   91SAPS   O14 8825   5.857   6.077   6.053 -0.0409 -0.2187  0.1593
   91SAPS   O12 8826   5.694   6.261   5.999 -0.1365 -0.2103 -0.0163
   91SAPS   O11 8827   5.655   6.121   6.198 -0.0392  0.1655 -0.1987
   91SAPS    C1 8828   5.731   6.173   6.311  0.2387 -0.4533 -0.0212
   91SAPS    HA 8829   5.836   6.139   6.295 -0.0552  0.0249 -3.2226
   91SAPS    HB 8830   5.733   6.284   6.305 -0.0007 -0.5276 -1.5502
   91SAPS    C2 8831   5.685   6.141   6.451  0.3814  0.1847 -0.1451
   91SAPS    HS 8832   5.744   6.200   6.524 -1.9943  1.7600  0.5695
   91SAPS   O21 8833   5.695   5.998   6.479 -0.4597 -0.2224  0.1286
   91SAPS   C21 8834   5.816   5.952   6.494  0.3619 -0.3876 -0.2336
   91SAPS   O22 8835   5.918   6.019   6.484  0.2106  0.8252  0.1791
   91SAPS   C22 8836   5.819   5.802   6.517  0.6279 -0.0687 -0.4510
   91SAPS   H2R 8837   5.780   5.771   6.418 -1.2364  0.3876  0.1142
   91SAPS   H2S 8838   5.922   5.762   6.510  0.4762 -0.3309 -1.2260
   91SAPS    C3 8839   5.538   6.176   6.477 -0.2790  0.3375 -0.3727
   91SAPS    HX 8840   5.506   6.113   6.562  2.7490 -0.7014  0.0527
   91SAPS    HY 8841   5.472   6.151   6.391  0.4192 -0.1763 -0.7646
   91SAPS   O31 8842   5.523   6.317   6.504 -0.2389  0.4002 -0.0950
   91SAPS   C31 8843   5.417   6.345   6.573 -0.5853  0.0712  0.8229
   91SAPS   O32 8844   5.320   6.271   6.588  0.4439  0.4205 -0.7758
   91SAPS   C32 8845   5.414   6.485   6.638 -1.0151  0.1297 -0.3179
   91SAPS   H2X 8846   5.314   6.529   6.619 -0.3179  1.4963 -0.8780
   91SAPS   H2Y 8847   5.491   6.551   6.594  0.6819 -2.3069 -1.0699
   91SAPS   C23 8848   5.725   5.761   6.631 -0.2198  0.6298  0.2245
   91SAPS   H3R 8849   5.709   5.651   6.624  3.1988  0.2116 -1.7234
   91SAPS   H3S 8850   5.623   5.805   6.630  0.5588  2.4435  0.4932
   91SAPS   C24 8851   5.790   5.771   6.770  0.2804 -0.0991  0.6281
   91SAPS   H4R 8852   5.887   5.718   6.762 -0.1122 -0.8174  0.6240
   91SAPS   H4S 8853   5.723   5.710   6.835 -1.1977  0.1473 -0.6313
   91SAPS   C25 8854   5.792   5.919   6.811 -0.1190 -0.1887 -0.3031
   91SAPS   H5R 8855   5.875   5.980   6.772 -0.2062 -0.6325 -1.1821
   91SAPS   C26 8856   5.712   5.982   6.904  0.2068 -0.2607  0.2596
   91SAPS   H6R 8857   5.738   6.086   6.927 -0.3104  0.3313 -1.7383
   91SAPS   C27 8858   5.606   5.906   6.977 -0.6730  0.3279  0.0249
   91SAPS   H7R 8859   5.546   5.841   6.910  0.1943  1.1661 -1.5861
   91SAPS   H7S 8860   5.543   5.978   7.035  2.1228  3.6242 -0.8841
   91SAPS   C28 8861   5.659   5.806   7.083 -0.3853 -0.2760  0.8092
   91SAPS   H8R 8862   5.701   5.712   7.044 -0.9754 -0.8513  1.5474
   91SAPS   C29 8863   5.672   5.831   7.217  0.4282 -0.4704  0.7818
   91SAPS   H9R 8864   5.692   5.742   7.278  0.9606  0.4200  1.9305
   91SAPS  C210 8865   5.637   5.962   7.287 -0.3089  0.3877 -0.1920
   91SAPS  H10R 8866   5.638   6.050   7.220  1.1422  1.2794  0.9730
   91SAPS  H10S 8867   5.722   5.994   7.350  0.6871 -1.4408 -0.5654
   91SAPS  C211 8868   5.508   5.966   7.357 -0.3873 -0.3617 -0.0100
   91SAPS  H11R 8869   5.425   5.965   7.285  0.8574 -2.2967 -1.4667
   91SAPS  C212 8870   5.476   5.967   7.486 -0.2229  0.3499 -0.1816
   91SAPS  H12R 8871   5.369   5.968   7.508 -0.3136  2.1558 -0.6157
   91SAPS  C213 8872   5.575   5.960   7.594 -0.4896  0.4730 -0.0847
   91SAPS  H13R 8873   5.526   5.991   7.689 -1.3788 -1.1925  0.0220
   91SAPS  H13S 8874   5.649   6.039   7.569 -0.5517  0.3445 -0.6741
   91SAPS  C214 8875   5.642   5.825   7.602  0.6921 -0.1768  0.2549
   91SAPS  H14R 8876   5.639   5.769   7.508  1.0991  1.1056 -0.5307
   91SAPS  C215 8877   5.686   5.772   7.712  0.2521  0.4348 -0.4384
   91SAPS  H15R 8878   5.729   5.671   7.707 -1.3099 -0.2350 -0.5380
   91SAPS  C216 8879   5.682   5.846   7.844  0.0830  0.7053 -0.8642
   91SAPS  H16R 8880   5.698   5.955   7.831 -1.7024  0.9420 -1.3127
   91SAPS  H16S 8881   5.758   5.798   7.909 -2.2811 -2.5510 -0.3711
   91SAPS  C217 8882   5.545   5.813   7.911 -0.1254 -0.5144  0.6973
   91SAPS  H17R 8883   5.519   5.705   7.920 -0.6033 -0.4662 -0.0751
   91SAPS  H17S 8884   5.474   5.864   7.844  2.8843  1.9704 -0.7349
   91SAPS  C218 8885   5.529   5.884   8.039  0.6018 -0.1841 -0.7790
   91SAPS  H18R 8886   5.555   5.991   8.022  0.1528  0.0121 -0.2650
   91SAPS  H18S 8887   5.605   5.836   8.104  0.8665 -0.1399 -1.0553
   91SAPS  C219 8888   5.390   5.883   8.103 -0.2200  0.1535 -0.2380
   91SAPS  H19R 8889   5.362   5.778   8.130  0.0340  0.5745  1.7232
   91SAPS  H19S 8890   5.325   5.914   8.019 -2.5950  0.3730  1.6127
   91SAPS  C220 8891   5.381   5.962   8.242 -0.1043  0.4069 -0.3403
   91SAPS  H20R 8892   5.278   5.954   8.283 -0.1943  1.7726 -0.2729
   91SAPS  H20S 8893   5.403   6.068   8.215 -4.0266  0.9913 -1.5108
   91SAPS  H20T 8894   5.450   5.919   8.318 -1.6009 -0.6777  0.4313
   91SAPS   C33 8895   5.426   6.469   6.794  0.0668 -0.0768 -0.3432
   91SAPS   H3X 8896   5.346   6.396   6.821  0.2865  0.5390  2.0263
   91SAPS   H3Y 8897   5.412   6.570   6.837  0.9639 -0.3752  0.6636
   91SAPS   C34 8898   5.576   6.429   6.843  0.6216  0.4989  0.0418
   91SAPS   H4X 8899   5.647   6.476   6.771 -0.8589  0.0537 -1.7569
   91SAPS   H4Y 8900   5.577   6.318   6.842 -1.7462  0.4685 -1.1492
   91SAPS   C35 8901   5.598   6.483   6.983 -0.0301  0.0044 -0.1413
   91SAPS   H5X 8902   5.578   6.591   6.970  1.8602  0.7394  2.6325
   91SAPS   H5Y 8903   5.704   6.467   7.010  0.1050  1.1866  0.0331
   91SAPS   C36 8904   5.513   6.410   7.088  0.1599 -0.3606  0.1834
   91SAPS   H6X 8905   5.540   6.304   7.065 -0.7063  0.0095 -2.7914
   91SAPS   H6Y 8906   5.403   6.418   7.070 -0.0937 -0.4434  1.6296
   91SAPS   C37 8907   5.534   6.473   7.230  0.1065  0.0327 -0.1229
   91SAPS   H7X 8908   5.473   6.566   7.231 -0.6212 -0.4133 -1.4453
   91SAPS   H7Y 8909   5.634   6.519   7.240 -0.9970  2.6346 -0.5564
   91SAPS   C38 8910   5.504   6.377   7.352  0.9886  0.1447 -0.0063
   91SAPS   H8X 8911   5.553   6.277   7.345 -2.1087 -1.3448 -1.2116
   91SAPS   H8Y 8912   5.394   6.368   7.357  0.9320  0.8987  0.1174
   91SAPS   C39 8913   5.554   6.437   7.478 -0.1450  0.2267 -0.1355
   91SAPS   H9X 8914   5.510   6.539   7.488 -4.0034 -1.2491 -1.0910
   91SAPS   H9Y 8915   5.665   6.442   7.475 -0.0939 -1.0494 -0.5298
   91SAPS  C310 8916   5.522   6.349   7.595 -0.0577  0.2035  0.0414
   91SAPS  H10X 8917   5.569   6.251   7.570  0.8195  0.6171  0.0612
   91SAPS  H10Y 8918   5.415   6.329   7.619 -0.2319  1.3002  0.1985
   91SAPS  C311 8919   5.581   6.382   7.729 -0.1795  1.0583  0.1179
   91SAPS  H11X 8920   5.544   6.484   7.752  0.1475  0.9965  0.9401
   91SAPS  H11Y 8921   5.692   6.388   7.722  0.1020 -2.5084  0.3798
   91SAPS  C312 8922   5.544   6.289   7.851 -0.0273  0.3117  0.2851
   91SAPS  H12X 8923   5.581   6.184   7.847  0.3619  0.4106  1.0761
   91SAPS  H12Y 8924   5.434   6.276   7.849 -0.1303  0.9698  1.3269
   91SAPS  C313 8925   5.575   6.349   7.991 -0.4568  0.3165 -0.1485
   91SAPS  H13X 8926   5.499   6.307   8.059 -1.7241  1.3033 -0.9446
   91SAPS  H13Y 8927   5.563   6.459   7.987  0.4581  0.4219 -0.0948
   91SAPS  C314 8928   5.724   6.322   8.055 -0.6486  0.6020  0.4049
   91SAPS  H14X 8929   5.789   6.375   7.983 -0.6795  0.0114 -0.0674
   91SAPS  H14Y 8930   5.757   6.216   8.062 -0.6818  0.7275  2.6599
   91SAPS  C315 8931   5.731   6.377   8.195  0.6618  0.3167 -0.3537
   91SAPS  H15X 8932   5.641   6.337   8.248  1.8244 -2.9541 -0.7539
   91SAPS  H15Y 8933   5.720   6.487   8.191 -1.2297  0.3635  3.5753
   91SAPS  C316 8934   5.858   6.345   8.271 -0.2678  0.3966 -0.3555
   91SAPS  H16X 8935   5.849   6.395   8.370 -0.4887 -0.6573  0.1679
   91SAPS  H16Y 8936   5.939   6.400   8.217 -0.6675  0.5991 -0.7512
   91SAPS  C317 8937   5.900   6.198   8.299  0.4208  0.5350 -0.4747
   91SAPS  H17X 8938   5.955   6.206   8.395 -0.1607  2.0060 -0.2363
   91SAPS  H17Y 8939   5.976   6.181   8.221  0.5918 -2.3472  0.2770
   91SAPS  C318 8940   5.790   6.095   8.315 -0.3392 -0.5388 -0.2345
   91SAPS  H18X 8941   5.812   5.989   8.289  1.2025 -0.4070  0.4567
   91SAPS  H18Y 8942   5.696   6.119   8.260 -0.7786  0.3609  0.9074
   91SAPS  H18Z 8943   5.759   6.093   8.422  2.2682 -1.2602  0.5404
   92SAPS     N 8944   4.268   3.951   6.094  0.3249  0.4482  0.1603
   92SAPS   HN1 8945   4.369   3.925   6.099  0.6754  1.2309 -2.1828
   92SAPS   HN2 8946   4.209   3.867   6.111 -0.3762  0.7692 -0.6556
   92SAPS   HN3 8947   4.249   3.987   5.998 -1.1415  0.8232  0.5858
   92SAPS   C12 8948   4.238   4.046   6.201  0.7735  0.2456  1.3272
   92SAPS  H12A 8949   4.287   4.140   6.180  1.3182  0.1219  1.9880
   92SAPS   C13 8950   4.088   4.086   6.209  1.0014  0.1000 -0.5347
   92SAPS  O13A 8951   3.997   4.028   6.144  0.0357  0.4566  0.1726
   92SAPS  O13B 8952   4.062   4.178   6.294 -0.2388 -0.3372  0.3423
   92SAPS   C11 8953   4.277   3.990   6.339  0.5693  0.3984 -0.6652
   92SAPS  H11A 8954   4.213   3.901   6.359  0.8684 -0.0588 -1.7044
   92SAPS  H11B 8955   4.245   4.063   6.415  3.0197 -1.1985  1.9926
   92SAPS     P 8956   4.524   4.023   6.427 -0.3305 -0.4685  0.1316
   92SAPS   O13 8957   4.623   3.928   6.473 -0.2123 -0.2578  0.0307
   92SAPS   O14 8958   4.572   4.130   6.334 -0.0567 -0.0699 -0.0640
   92SAPS   O12 8959   4.413   3.940   6.357  0.2045  0.2470  0.0085
   92SAPS   O11 8960   4.457   4.085   6.548  0.0153 -0.0676  0.2236
   92SAPS    C1 8961   4.391   4.025   6.658  0.3935 -0.0956  0.3749
   92SAPS    HA 8962   4.305   4.089   6.690 -0.5505  0.0491 -2.3185
   92SAPS    HB 8963   4.328   3.939   6.626 -0.1094  0.0401  0.9810
   92SAPS    C2 8964   4.481   3.972   6.771  1.0769 -0.1329  0.3428
   92SAPS    HS 8965   4.533   3.882   6.731 -2.4759 -1.7313 -0.8351
   92SAPS   O21 8966   4.398   3.944   6.887  0.3382  0.1994 -0.1165
   92SAPS   C21 8967   4.316   3.844   6.879 -0.7725 -0.3946 -0.2766
   92SAPS   O22 8968   4.325   3.751   6.801 -0.0118 -0.2064  0.1120
   92SAPS   C22 8969   4.211   3.850   6.987 -0.0491 -0.5849  0.3659
   92SAPS   H2R 8970   4.111   3.854   6.938 -0.0808  2.6643  0.5547
   92SAPS   H2S 8971   4.220   3.744   7.019 -3.2141 -1.1727 -0.5342
   92SAPS    C3 8972   4.591   4.078   6.806 -0.0369 -0.1440 -0.5949
   92SAPS    HX 8973   4.540   4.153   6.870  2.0534  0.6208  0.2076
   92SAPS    HY 8974   4.619   4.124   6.709  0.6864  1.1595  0.2220
   92SAPS   O31 8975   4.708   4.025   6.867 -0.1445  0.2019  0.6031
   92SAPS   C31 8976   4.771   4.100   6.952 -0.0908 -0.1638 -1.0341
   92SAPS   O32 8977   4.734   4.211   6.981 -0.0941 -0.6360 -0.2562
   92SAPS   C32 8978   4.876   4.013   7.023  0.3542 -0.1945  0.2095
   92SAPS   H2X 8979   4.911   3.933   6.954  0.1202 -1.4769  1.5397
   92SAPS   H2Y 8980   4.825   3.967   7.111 -1.3385  1.4957  0.1307
   92SAPS   C23 8981   4.227   3.956   7.101  0.1949 -0.0749  0.8206
   92SAPS   H3R 8982   4.181   4.051   7.069 -0.6565  0.0759  2.4532
   92SAPS   H3S 8983   4.330   3.994   7.120 -0.2390  2.7429 -2.1731
   92SAPS   C24 8984   4.169   3.900   7.232  0.1696 -0.1404 -0.0773
   92SAPS   H4R 8985   4.198   3.982   7.301 -2.9669  0.9994 -0.0604
   92SAPS   H4S 8986   4.232   3.811   7.255 -0.8448 -0.6533  0.7542
   92SAPS   C25 8987   4.020   3.884   7.247  0.4083 -0.2453 -0.6663
   92SAPS   H5R 8988   3.950   3.878   7.162  0.2566  1.5872 -0.6841
   92SAPS   C26 8989   3.965   3.895   7.361  0.5223 -0.4257  0.1996
   92SAPS   H6R 8990   3.856   3.910   7.358  0.6313  0.3343 -0.0220
   92SAPS   C27 8991   4.023   3.926   7.498 -0.4822  0.5834  0.3229
   92SAPS   H7R 8992   4.134   3.936   7.494 -0.4780  0.1787 -0.7871
   92SAPS   H7S 8993   4.010   3.836   7.562 -2.1103  1.2783  0.9862
   92SAPS   C28 8994   3.959   4.043   7.561  0.1887  1.0053  0.5641
   92SAPS   H8R 8995   3.932   4.121   7.489 -1.4729 -2.0933 -2.2970
   92SAPS   C29 8996   3.952   4.065   7.689 -0.5498 -0.5456 -0.1632
   92SAPS   H9R 8997   3.900   4.155   7.726 -0.8023  0.2977 -2.4560
   92SAPS  C210 8998   3.994   3.973   7.801 -0.6518 -0.6965  0.0086
   92SAPS  H10R 8999   4.057   3.886   7.770  1.0305  0.7721 -0.7650
   92SAPS  H10S 9000   3.905   3.942   7.861 -1.6357  0.9970 -0.5440
   92SAPS  C211 9001   4.083   4.059   7.887 -0.6729  1.0900 -0.5471
   92SAPS  H11R 9002   4.187   4.069   7.850 -0.6009  2.2175 -0.0617
   92SAPS  C212 9003   4.050   4.120   7.996  0.6511 -0.3437  0.5423
   92SAPS  H12R 9004   4.136   4.161   8.051  1.5369 -1.3254 -0.0838
   92SAPS  C213 9005   3.914   4.117   8.063  0.0835 -0.3265  0.1258
   92SAPS  H13R 9006   3.907   4.031   8.133  0.2748 -0.2355  0.2591
   92SAPS  H13S 9007   3.826   4.105   7.997 -0.8104  0.5291  1.1230
   92SAPS  C214 9008   3.880   4.246   8.138  0.4276  0.0559  0.0511
   92SAPS  H14R 9009   3.817   4.315   8.081 -1.3566 -2.0146 -0.5828
   92SAPS  C215 9010   3.919   4.279   8.262  0.1496 -0.3052  0.8961
   92SAPS  H15R 9011   3.890   4.380   8.293  1.1737  0.3502 -0.2136
   92SAPS  C216 9012   4.016   4.207   8.347  0.8760 -0.0762  0.0694
   92SAPS  H16R 9013   4.112   4.255   8.321  1.0962 -0.4639  0.1614
   92SAPS  H16S 9014   4.026   4.097   8.334 -1.0591 -0.3056  0.3994
   92SAPS  C217 9015   3.999   4.227   8.490  0.5318 -0.3830 -0.5899
   92SAPS  H17R 9016   3.978   4.333   8.519 -1.6963 -1.3021  1.3727
   92SAPS  H17S 9017   4.095   4.204   8.541  0.9460  2.6784  0.1277
   92SAPS  C218 9018   3.876   4.148   8.540 -0.2234 -0.0629  0.1458
   92SAPS  H18R 9019   3.884   4.044   8.501  0.2791 -0.1021  0.3519
   92SAPS  H18S 9020   3.794   4.196   8.482 -0.6462  0.4801  1.1878
   92SAPS  C219 9021   3.859   4.143   8.688 -0.3851 -0.6666 -0.6418
   92SAPS  H19R 9022   3.822   4.243   8.720 -1.0801  0.0345 -3.5145
   92SAPS  H19S 9023   3.958   4.125   8.736  0.2052 -0.8836 -1.9180
   92SAPS  C220 9024   3.759   4.039   8.743 -0.5469  0.7726 -0.2843
   92SAPS  H20R 9025   3.790   3.945   8.692 -3.2851 -0.9045  1.0469
   92SAPS  H20S 9026   3.655   4.060   8.709 -1.1558  1.1477  1.7383
   92SAPS  H20T 9027   3.759   4.025   8.853 -1.4021 -0.4145 -0.4221
   92SAPS   C33 9028   4.995   4.097   7.078  0.4690  0.4946 -0.0248
   92SAPS   H3X 9029   5.025   4.173   7.001  2.1021  2.3554  2.3736
   92SAPS   H3Y 9030   5.080   4.027   7.093  1.6776  2.0476  0.5631
   92SAPS   C34 9031   4.964   4.181   7.204  0.2061  0.3614 -0.5037
   92SAPS   H4X 9032   4.867   4.232   7.187 -0.7747 -1.5817 -0.9981
   92SAPS   H4Y 9033   5.046   4.251   7.229  2.0845 -2.2314  0.8615
   92SAPS   C35 9034   4.940   4.090   7.331  1.0241  0.0364  0.5053
   92SAPS   H5X 9035   5.028   4.026   7.357  0.2846 -0.8120  0.9659
   92SAPS   H5Y 9036   4.863   4.014   7.305  1.1283  0.2321 -0.3844
   92SAPS   C36 9037   4.883   4.159   7.457  0.4266 -0.2053  0.2200
   92SAPS   H6X 9038   4.775   4.179   7.438  0.7305 -0.8833 -2.5179
   92SAPS   H6Y 9039   4.931   4.257   7.480  0.0859  0.2004 -0.7275
   92SAPS   C37 9040   4.883   4.070   7.580 -0.0025  0.4940 -0.0812
   92SAPS   H7X 9041   4.982   4.020   7.585  0.5957  1.6604 -0.1900
   92SAPS   H7Y 9042   4.810   3.991   7.551 -1.1074  0.4127  2.8265
   92SAPS   C38 9043   4.863   4.159   7.705  0.7168 -0.4004  0.6152
   92SAPS   H8X 9044   4.777   4.227   7.684 -1.2909 -2.3715  2.1521
   92SAPS   H8Y 9045   4.955   4.220   7.710 -0.0766  0.9985 -1.0702
   92SAPS   C39 9046   4.832   4.071   7.827  0.4580 -0.0583 -0.0124
   92SAPS   H9X 9047   4.895   3.980   7.820 -2.6349 -2.3779  1.5294
   92SAPS   H9Y 9048   4.730   4.028   7.832 -0.4850  2.2514  1.8298
   92SAPS  C310 9049   4.860   4.151   7.958 -0.0825 -0.4428  0.4775
   92SAPS  H10X 9050   4.790   4.237   7.968  1.3054  0.7895 -0.2117
   92SAPS  H10Y 9051   4.964   4.190   7.961 -0.0751 -0.3653 -0.5360
   92SAPS  C311 9052   4.835   4.061   8.078  0.0034  0.8985  0.7398
   92SAPS  H11X 9053   4.921   3.992   8.088 -0.8168 -0.0593  1.2979
   92SAPS  H11Y 9054   4.744   3.998   8.066  0.8091 -0.0691 -0.4561
   92SAPS  C312 9055   4.825   4.140   8.201 -0.4157  0.1581  0.2147
   92SAPS  H12X 9056   4.720   4.171   8.223 -1.1628 -0.4217 -2.4185
   92SAPS  H12Y 9057   4.887   4.232   8.191 -0.2347 -0.1826 -1.8624
   92SAPS  C313 9058   4.864   4.069   8.333 -0.2938 -0.0348 -0.3424
   92SAPS  H13X 9059   4.957   4.013   8.312  0.6404  0.8516  1.3379
   92SAPS  H13Y 9060   4.791   3.986   8.344 -0.6784  0.1390 -1.4984
   92SAPS  C314 9061   4.870   4.144   8.470  0.2291  0.8424 -0.2874
   92SAPS  H14X 9062   4.953   4.219   8.470  1.5957 -0.6069 -1.7762
   92SAPS  H14Y 9063   4.903   4.066   8.541 -1.2300 -0.2223 -0.7822
   92SAPS  C315 9064   4.727   4.193   8.513  0.2965 -0.5818 -0.1045
   92SAPS  H15X 9065   4.664   4.101   8.510  0.1880 -0.6210  2.3561
   92SAPS  H15Y 9066   4.704   4.272   8.438  0.3890 -2.5466 -2.2616
   92SAPS  C316 9067   4.724   4.246   8.659 -0.7481  0.0947  0.3960
   92SAPS  H16X 9068   4.773   4.346   8.661  1.7314 -1.0984  1.9925
   92SAPS  H16Y 9069   4.783   4.182   8.727  1.9736  2.1071  0.0011
   92SAPS  C317 9070   4.582   4.255   8.715  0.7241  0.0836  0.1453
   92SAPS  H17X 9071   4.551   4.151   8.743 -1.0727 -0.0131 -2.0646
   92SAPS  H17Y 9072   4.510   4.297   8.642  2.3692 -0.0129 -1.5405
   92SAPS  C318 9073   4.574   4.332   8.853 -0.4926  0.1377 -0.2352
   92SAPS  H18X 9074   4.663   4.317   8.919 -0.5402 -0.8499 -0.3833
   92SAPS  H18Y 9075   4.482   4.299   8.906  0.9023  1.1050  2.9202
   92SAPS  H18Z 9076   4.573   4.439   8.824  0.9785 -0.3783 -2.3059
   93SAPS     N 9077   5.472   4.863   6.354 -0.3615 -0.4132  0.3979
   93SAPS   HN1 9078   5.387   4.910   6.392 -0.1459  0.1783  0.1571
   93SAPS   HN2 9079   5.556   4.914   6.388 -0.2998 -0.3003  0.0782
   93SAPS   HN3 9080   5.469   4.884   6.252  0.4082 -0.6850  0.3140
   93SAPS   C12 9081   5.473   4.720   6.388 -0.2992 -0.3404 -0.2313
   93SAPS  H12A 9082   5.478   4.727   6.496  1.6077  0.2984 -0.3397
   93SAPS   C13 9083   5.344   4.635   6.353 -0.0393 -0.4102 -0.3067
   93SAPS  O13A 9084   5.273   4.686   6.264  0.1182  0.0754 -0.5417
   93SAPS  O13B 9085   5.317   4.521   6.398  0.1819  0.5754 -0.6460
   93SAPS   C11 9086   5.593   4.651   6.321 -0.4474 -0.2017  0.0447
   93SAPS  H11A 9087   5.560   4.634   6.217 -2.9813 -0.3039  0.8372
   93SAPS  H11B 9088   5.598   4.549   6.366  0.1408  0.2880  1.1043
   93SAPS     P 9089   5.814   4.700   6.456 -0.3751  0.2369 -0.4679
   93SAPS   O13 9090   5.902   4.584   6.430 -0.6108 -0.1436 -0.0878
   93SAPS   O14 9091   5.877   4.833   6.480 -0.0368 -0.2805 -0.0213
   93SAPS   O12 9092   5.717   4.719   6.326 -0.3658  0.1606 -0.0254
   93SAPS   O11 9093   5.716   4.665   6.572  0.3866  0.0563 -0.3388
   93SAPS    C1 9094   5.690   4.531   6.626  0.3724  0.1567  0.3215
   93SAPS    HA 9095   5.657   4.459   6.547 -1.5874 -0.2077  1.4484
   93SAPS    HB 9096   5.787   4.494   6.665 -0.5857 -0.2614  2.3416
   93SAPS    C2 9097   5.581   4.526   6.738 -0.3844  0.5518 -0.1205
   93SAPS    HS 9098   5.482   4.551   6.694 -0.7634  1.0965  1.0252
   93SAPS   O21 9099   5.619   4.613   6.839 -0.1466  0.0730 -0.5217
   93SAPS   C21 9100   5.575   4.733   6.829 -0.5094  1.1492 -0.2712
   93SAPS   O22 9101   5.491   4.775   6.752 -0.5660 -0.5112  0.5498
   93SAPS   C22 9102   5.624   4.825   6.944  0.3791  0.1412  0.8144
   93SAPS   H2R 9103   5.704   4.881   6.891 -1.0633  1.6607  0.1845
   93SAPS   H2S 9104   5.544   4.898   6.968 -0.5733 -0.7712  0.4346
   93SAPS    C3 9105   5.564   4.376   6.787  0.1065 -0.8079 -0.5817
   93SAPS    HX 9106   5.658   4.340   6.836  1.1548  2.0210 -0.3897
   93SAPS    HY 9107   5.546   4.319   6.693  1.7348 -1.4755 -0.5102
   93SAPS   O31 9108   5.448   4.365   6.879  0.4350 -0.6132  0.2789
   93SAPS   C31 9109   5.457   4.270   6.974  0.0002  0.1620 -0.4020
   93SAPS   O32 9110   5.547   4.190   6.987 -0.1276  0.1664 -0.3783
   93SAPS   C32 9111   5.348   4.294   7.075  0.0166 -0.4202 -0.4573
   93SAPS   H2X 9112   5.288   4.201   7.087  0.4403 -0.7164 -0.6124
   93SAPS   H2Y 9113   5.268   4.363   7.042  0.3626 -0.6124 -1.7368
   93SAPS   C23 9114   5.684   4.756   7.062  0.3404 -0.3024 -0.2317
   93SAPS   H3R 9115   5.734   4.831   7.128  1.1835  0.6427 -1.9225
   93SAPS   H3S 9116   5.760   4.680   7.036  0.3370 -0.5015  0.3322
   93SAPS   C24 9117   5.584   4.680   7.154  0.1026 -0.9315  0.7726
   93SAPS   H4R 9118   5.648   4.605   7.206  0.6616 -1.5856 -0.8200
   93SAPS   H4S 9119   5.506   4.614   7.110 -1.4061  0.7553  0.8360
   93SAPS   C25 9120   5.513   4.777   7.249  0.3882  0.2980 -0.1407
   93SAPS   H5R 9121   5.437   4.840   7.202 -2.1364 -0.1358  3.1332
   93SAPS   C26 9122   5.551   4.793   7.379 -0.0280 -0.9529  0.3835
   93SAPS   H6R 9123   5.486   4.859   7.438  0.8532  1.6117 -1.4303
   93SAPS   C27 9124   5.664   4.727   7.449  0.1690 -0.5331 -0.7150
   93SAPS   H7R 9125   5.759   4.732   7.392  1.0229 -0.1421  0.7178
   93SAPS   H7S 9126   5.648   4.619   7.469  2.2570 -1.0360 -1.5912
   93SAPS   C28 9127   5.690   4.804   7.571  0.2368 -0.3848 -0.2104
   93SAPS   H8R 9128   5.771   4.878   7.563  0.9114 -1.1054 -0.0189
   93SAPS   C29 9129   5.626   4.792   7.693  0.0193  0.3533  0.2237
   93SAPS   H9R 9130   5.661   4.846   7.782 -0.1893 -0.6112  0.8975
   93SAPS  C210 9131   5.511   4.696   7.735 -0.7663  0.1142 -0.2803
   93SAPS  H10R 9132   5.557   4.608   7.784  3.2862  1.2789 -1.7668
   93SAPS  H10S 9133   5.465   4.656   7.642  1.4381 -2.1770 -0.4488
   93SAPS  C211 9134   5.401   4.727   7.828  0.1870 -0.0852  0.0459
   93SAPS  H11R 9135   5.300   4.717   7.786  1.4119 -0.4038 -2.9438
   93SAPS  C212 9136   5.413   4.756   7.954 -0.5191 -1.0092  0.3056
   93SAPS  H12R 9137   5.321   4.768   8.014 -1.5745 -3.0768 -0.8459
   93SAPS  C213 9138   5.544   4.765   8.035  0.3867  0.1022 -0.1029
   93SAPS  H13R 9139   5.627   4.793   7.967  0.0179  2.8741  0.5402
   93SAPS  H13S 9140   5.568   4.668   8.084  1.6441  0.3287 -0.2719
   93SAPS  C214 9141   5.546   4.877   8.141  0.1606 -0.0368 -0.2079
   93SAPS  H14R 9142   5.516   4.978   8.110  0.7698  0.0314 -0.5815
   93SAPS  C215 9143   5.604   4.872   8.260 -0.1071  0.4271 -0.0776
   93SAPS  H15R 9144   5.594   4.964   8.320 -4.0101  1.0567 -1.5456
   93SAPS  C216 9145   5.673   4.752   8.332 -0.3604  0.4134  0.0538
   93SAPS  H16R 9146   5.725   4.690   8.256 -1.2607 -0.7816  0.3926
   93SAPS  H16S 9147   5.596   4.693   8.387 -0.7368  1.2264  0.4067
   93SAPS  C217 9148   5.783   4.816   8.422  0.2425 -0.5387  0.3362
   93SAPS  H17R 9149   5.745   4.898   8.487 -0.1022 -0.3518 -0.0954
   93SAPS  H17S 9150   5.864   4.860   8.360 -1.2931  0.8008 -0.7530
   93SAPS  C218 9151   5.839   4.707   8.515  0.0811 -0.5902  0.2948
   93SAPS  H18R 9152   5.924   4.750   8.573 -1.9485  3.1138  0.7107
   93SAPS  H18S 9153   5.888   4.634   8.447  0.0876  1.1079 -1.5942
   93SAPS  C219 9154   5.737   4.644   8.611  0.2234  0.2190 -0.2830
   93SAPS  H19R 9155   5.639   4.619   8.566 -0.9888 -0.7485  2.7302
   93SAPS  H19S 9156   5.712   4.727   8.681 -2.4751  1.1539 -2.2927
   93SAPS  C220 9157   5.787   4.518   8.689 -0.3721  0.5243  0.5062
   93SAPS  H20R 9158   5.722   4.495   8.776  1.7562 -0.8303  1.7834
   93SAPS  H20S 9159   5.883   4.547   8.737  0.0806 -2.7101  1.6243
   93SAPS  H20T 9160   5.787   4.420   8.637  0.2166  0.2993  0.9303
   93SAPS   C33 9161   5.393   4.346   7.209 -1.1429  0.4012  0.3136
   93SAPS   H3X 9162   5.443   4.445   7.202  0.4344 -0.3889  0.2398
   93SAPS   H3Y 9163   5.470   4.278   7.252 -1.4773  0.7653  1.5114
   93SAPS   C34 9164   5.281   4.332   7.319 -0.3484  0.7096 -0.5660
   93SAPS   H4X 9165   5.253   4.225   7.314  1.0437  0.3161 -0.0782
   93SAPS   H4Y 9166   5.194   4.394   7.286 -0.5934 -1.5028 -4.2866
   93SAPS   C35 9167   5.330   4.368   7.459  0.5147  0.2271  0.0931
   93SAPS   H5X 9168   5.331   4.479   7.462 -0.7012  0.2420  0.1614
   93SAPS   H5Y 9169   5.431   4.325   7.476 -0.2028 -0.1149  3.9428
   93SAPS   C36 9170   5.239   4.334   7.576  0.1236 -0.1709  0.0303
   93SAPS   H6X 9171   5.187   4.236   7.582  0.6945 -0.4741  0.1036
   93SAPS   H6Y 9172   5.146   4.393   7.563  1.4043  1.3858 -2.4068
   93SAPS   C37 9173   5.303   4.359   7.714  0.2216  0.0098  0.0602
   93SAPS   H7X 9174   5.347   4.459   7.730 -0.8786  0.7088 -1.2354
   93SAPS   H7Y 9175   5.390   4.289   7.720  0.6289  0.4604 -0.5810
   93SAPS   C38 9176   5.209   4.319   7.834  0.5851 -0.2111 -0.1781
   93SAPS   H8X 9177   5.192   4.210   7.823  1.2165 -0.2568 -0.6961
   93SAPS   H8Y 9178   5.112   4.369   7.817  1.3196  1.2092 -0.2837
   93SAPS   C39 9179   5.279   4.353   7.965 -0.2532  0.4387 -0.4309
   93SAPS   H9X 9180   5.303   4.462   7.962 -1.3025  0.6584 -1.4156
   93SAPS   H9Y 9181   5.367   4.286   7.960  0.1351  0.9378 -0.3807
   93SAPS  C310 9182   5.189   4.322   8.085  0.1456 -0.1978  0.4913
   93SAPS  H10X 9183   5.196   4.212   8.099 -0.1491 -0.1513  1.0071
   93SAPS  H10Y 9184   5.086   4.364   8.083 -0.3098 -1.3000  0.3297
   93SAPS  C311 9185   5.265   4.376   8.203 -0.1486 -0.4452  0.5025
   93SAPS  H11X 9186   5.277   4.485   8.184  0.5255 -1.1185 -3.3309
   93SAPS  H11Y 9187   5.368   4.336   8.208  1.3202  2.9150 -1.2107
   93SAPS  C312 9188   5.204   4.353   8.339  1.2999  0.0535  0.0632
   93SAPS  H12X 9189   5.221   4.243   8.339 -2.2274 -0.5556  0.5641
   93SAPS  H12Y 9190   5.096   4.372   8.357  1.1707 -1.0539  0.5334
   93SAPS  C313 9191   5.282   4.416   8.457  0.1676 -0.0249  0.3940
   93SAPS  H13X 9192   5.278   4.526   8.452 -1.3231 -0.1151 -0.6347
   93SAPS  H13Y 9193   5.389   4.384   8.464 -0.3330 -2.0561 -0.6895
   93SAPS  C314 9194   5.220   4.369   8.597  0.8611 -0.1731  0.1810
   93SAPS  H14X 9195   5.113   4.398   8.611  1.4067  1.5839  0.8510
   93SAPS  H14Y 9196   5.284   4.428   8.666  1.5503 -0.7664  0.0563
   93SAPS  C315 9197   5.252   4.219   8.625 -0.6759  0.0515 -0.4813
   93SAPS  H15X 9198   5.344   4.187   8.570  0.2560 -2.4216  2.3374
   93SAPS  H15Y 9199   5.165   4.162   8.587 -2.5146  2.3325  0.2255
   93SAPS  C316 9200   5.281   4.195   8.772  0.4110  0.3883 -0.0870
   93SAPS  H16X 9201   5.314   4.288   8.823 -1.0216  2.4103 -2.7257
   93SAPS  H16Y 9202   5.367   4.126   8.775  0.7617  0.7307 -1.6350
   93SAPS  C317 9203   5.159   4.141   8.852  0.0103 -0.2405  0.7907
   93SAPS  H17X 9204   5.192   4.127   8.957  0.8189 -0.0561  0.5729
   93SAPS  H17Y 9205   5.125   4.045   8.809 -0.6345  1.1130 -1.8350
   93SAPS  C318 9206   5.031   4.226   8.843  0.0522 -0.1573  0.4114
   93SAPS  H18X 9207   5.051   4.333   8.866 -0.1606 -0.6105  2.8753
   93SAPS  H18Y 9208   4.946   4.201   8.910 -0.6967  1.9715  0.2868
   93SAPS  H18Z 9209   4.999   4.231   8.737 -1.5957  1.0033  0.9502
   94SAPS     N 9210   6.649   6.515   5.746 -0.6366  0.7702 -0.5914
   94SAPS   HN1 9211   6.644   6.424   5.696 -1.6365 -0.0633  0.9607
   94SAPS   HN2 9212   6.746   6.550   5.757 -1.0864  1.6519  0.7614
   94SAPS   HN3 9213   6.624   6.494   5.845 -1.6535 -4.0361 -1.7592
   94SAPS   C12 9214   6.556   6.613   5.681  0.7420  0.5738 -0.1843
   94SAPS  H12A 9215   6.579   6.703   5.735  2.0609 -0.2673  0.6833
   94SAPS   C13 9216   6.589   6.630   5.533 -0.0575  1.1173  0.1993
   94SAPS  O13A 9217   6.681   6.572   5.472  0.4142 -0.0885  0.1012
   94SAPS  O13B 9218   6.518   6.700   5.461 -0.8991  0.0104 -0.1032
   94SAPS   C11 9219   6.412   6.573   5.703  0.6566 -0.1504 -0.0077
   94SAPS  H11A 9220   6.386   6.482   5.644 -0.8336 -0.4958  1.1262
   94SAPS  H11B 9221   6.342   6.651   5.665  1.4630  0.9219  0.6996
   94SAPS     P 9222   6.349   6.676   5.930  0.3962 -0.0127 -0.0648
   94SAPS   O13 9223   6.461   6.770   5.954  0.0861 -0.3279 -0.6212
   94SAPS   O14 9224   6.233   6.739   5.872  0.2502  0.1142 -0.4440
   94SAPS   O12 9225   6.389   6.548   5.846 -0.2535  0.1673 -0.8613
   94SAPS   O11 9226   6.319   6.611   6.069 -0.3094 -0.1402  0.6906
   94SAPS    C1 9227   6.210   6.524   6.091 -0.1585 -0.2884 -0.2903
   94SAPS    HA 9228   6.155   6.493   6.000 -0.0560 -2.4123  0.3450
   94SAPS    HB 9229   6.254   6.427   6.122 -2.3389 -1.0925  0.3731
   94SAPS    C2 9230   6.108   6.578   6.195 -0.3178  0.7224  0.5374
   94SAPS    HS 9231   6.058   6.662   6.142  0.9595  1.0908 -0.1104
   94SAPS   O21 9232   6.175   6.624   6.314 -0.1734 -0.0495  0.4146
   94SAPS   C21 9233   6.209   6.752   6.317  0.3771 -0.0978  0.4696
   94SAPS   O22 9234   6.186   6.833   6.227  0.3681 -0.6433 -0.0967
   94SAPS   C22 9235   6.287   6.777   6.444 -0.9346 -0.2643 -0.9203
   94SAPS   H2R 9236   6.360   6.695   6.460 -0.0607  0.7555  0.3294
   94SAPS   H2S 9237   6.346   6.870   6.447 -0.9581 -0.2622 -0.5536
   94SAPS    C3 9238   6.009   6.465   6.230 -0.3564  0.4671  0.3912
   94SAPS    HX 9239   6.069   6.384   6.277  2.7806  3.7034  2.2729
   94SAPS    HY 9240   5.962   6.428   6.137  0.4269 -0.2751  0.2880
   94SAPS   O31 9241   5.916   6.511   6.328  0.0473 -0.4121 -0.4461
   94SAPS   C31 9242   5.800   6.567   6.291 -0.2227 -0.0211 -0.3743
   94SAPS   O32 9243   5.759   6.554   6.177 -0.0590  0.0367  0.3993
   94SAPS   C32 9244   5.735   6.631   6.407 -0.1555 -0.4212  0.2632
   94SAPS   H2X 9245   5.639   6.578   6.425 -0.7329  0.7369  0.6682
   94SAPS   H2Y 9246   5.699   6.732   6.377  2.2072 -0.3224 -2.4475
   94SAPS   C23 9247   6.179   6.783   6.563 -0.3671 -0.5837  0.4411
   94SAPS   H3R 9248   6.129   6.685   6.551  2.2333 -1.4779 -4.6392
   94SAPS   H3S 9249   6.106   6.865   6.546  0.8248  0.7519  1.6502
   94SAPS   C24 9250   6.245   6.787   6.695  0.1881 -0.4275  0.3439
   94SAPS   H4R 9251   6.319   6.704   6.695  1.2255  0.4529 -1.5802
   94SAPS   H4S 9252   6.179   6.763   6.781  2.9703  1.8954  3.2644
   94SAPS   C25 9253   6.287   6.928   6.726  0.0320 -0.0452  0.6269
   94SAPS   H5R 9254   6.297   6.996   6.640 -1.1488  0.4655  0.8901
   94SAPS   C26 9255   6.313   6.972   6.855 -0.1687 -0.6201  0.2976
   94SAPS   H6R 9256   6.346   7.076   6.870 -2.6793  0.0875  1.1853
   94SAPS   C27 9257   6.298   6.892   6.984 -0.5076 -0.0282  0.4519
   94SAPS   H7R 9258   6.204   6.833   6.978 -0.8160  0.4350  0.6574
   94SAPS   H7S 9259   6.283   6.963   7.068 -0.3866 -0.2420  0.6556
   94SAPS   C28 9260   6.404   6.794   7.011 -0.9865  0.1103 -0.1490
   94SAPS   H8R 9261   6.438   6.735   6.924  0.3559 -1.6506  1.5393
   94SAPS   C29 9262   6.473   6.763   7.122  0.1125 -0.0076  0.1085
   94SAPS   H9R 9263   6.554   6.691   7.105 -0.9216 -1.7346  2.2332
   94SAPS  C210 9264   6.459   6.828   7.258 -0.3232 -0.5125 -0.0154
   94SAPS  H10R 9265   6.463   6.938   7.240 -1.8926 -1.0111 -3.8664
   94SAPS  H10S 9266   6.550   6.809   7.319  1.1469  0.8186 -1.7252
   94SAPS  C211 9267   6.328   6.802   7.336  0.2612  0.2659  0.5299
   94SAPS  H11R 9268   6.247   6.852   7.280 -2.4486 -1.7185  2.5528
   94SAPS  C212 9269   6.301   6.732   7.448  0.1281 -1.0442 -0.0957
   94SAPS  H12R 9270   6.203   6.726   7.497  0.4729  1.4986  0.9782
   94SAPS  C213 9271   6.421   6.671   7.523 -0.0247  0.5296  0.0091
   94SAPS  H13R 9272   6.436   6.737   7.611 -0.9716 -0.5478  0.9956
   94SAPS  H13S 9273   6.519   6.655   7.473  0.1686 -0.3525  0.6651
   94SAPS  C214 9274   6.390   6.538   7.587 -0.0081 -0.4623 -0.3866
   94SAPS  H14R 9275   6.398   6.461   7.509  0.0694 -0.2433 -0.5943
   94SAPS  C215 9276   6.370   6.498   7.717  0.3417  0.2056 -0.4999
   94SAPS  H15R 9277   6.348   6.391   7.729  1.7829  0.1379  1.6637
   94SAPS  C216 9278   6.385   6.585   7.838 -0.5337 -0.3717 -0.1406
   94SAPS  H16R 9279   6.295   6.650   7.847 -0.6903 -0.6768  0.4978
   94SAPS  H16S 9280   6.471   6.653   7.818  0.3389 -1.1390  0.9447
   94SAPS  C217 9281   6.428   6.516   7.975  0.1920 -0.5895  0.5291
   94SAPS  H17R 9282   6.428   6.593   8.055  1.7214 -1.8152  1.7311
   94SAPS  H17S 9283   6.533   6.483   7.962  0.5714  0.1654  1.6038
   94SAPS  C218 9284   6.337   6.410   8.034  0.6942  0.2062 -0.3230
   94SAPS  H18R 9285   6.329   6.317   7.974 -0.5885 -1.6246  2.5939
   94SAPS  H18S 9286   6.234   6.451   8.037  1.1883  1.4192  2.0077
   94SAPS  C219 9287   6.378   6.369   8.167  0.1921 -0.2553 -0.7389
   94SAPS  H19R 9288   6.373   6.460   8.231 -0.6926  0.9225 -2.4435
   94SAPS  H19S 9289   6.485   6.340   8.166 -0.0747 -1.4521  1.5199
   94SAPS  C220 9290   6.287   6.259   8.233  0.2291 -0.6820 -0.4540
   94SAPS  H20R 9291   6.272   6.171   8.167  0.9446 -2.3485  1.5627
   94SAPS  H20S 9292   6.187   6.305   8.246  0.2482 -0.9783  0.7467
   94SAPS  H20T 9293   6.332   6.233   8.331 -0.3057 -3.3153 -0.8775
   94SAPS   C33 9294   5.816   6.648   6.539  0.7621  0.5305 -0.3217
   94SAPS   H3X 9295   5.916   6.678   6.499  1.0976  0.2929  0.3469
   94SAPS   H3Y 9296   5.833   6.549   6.585 -1.7951  0.5394  0.6880
   94SAPS   C34 9297   5.748   6.744   6.636 -0.5469 -0.1334  0.3222
   94SAPS   H4X 9298   5.645   6.709   6.661 -1.7962  1.9542 -1.6865
   94SAPS   H4Y 9299   5.749   6.843   6.585  0.3385 -0.4593 -0.3080
   94SAPS   C35 9300   5.819   6.744   6.778 -0.1293 -0.3806 -0.3641
   94SAPS   H5X 9301   5.929   6.755   6.769 -0.0037 -0.9453  0.3663
   94SAPS   H5Y 9302   5.805   6.646   6.829  0.5076 -0.5910 -0.5925
   94SAPS   C36 9303   5.767   6.848   6.876  0.5899 -0.4588  0.2420
   94SAPS   H6X 9304   5.661   6.823   6.900  1.3347  0.3735  4.9421
   94SAPS   H6Y 9305   5.770   6.944   6.820 -1.5272 -1.6822 -2.0441
   94SAPS   C37 9306   5.841   6.876   7.002 -0.3181 -0.6098  0.3600
   94SAPS   H7X 9307   5.817   6.982   7.026  1.4525  0.5824 -2.8249
   94SAPS   H7Y 9308   5.952   6.876   6.990 -0.4416 -0.0541 -0.8531
   94SAPS   C38 9309   5.814   6.797   7.131  0.6564 -0.3065  0.0236
   94SAPS   H8X 9310   5.858   6.697   7.119 -0.8735 -0.8310 -1.4801
   94SAPS   H8Y 9311   5.709   6.772   7.159  0.0721  0.1484 -1.6960
   94SAPS   C39 9312   5.867   6.869   7.258  0.1521  0.0657  0.3971
   94SAPS   H9X 9313   5.819   6.967   7.275  2.1710  0.9228  1.2743
   94SAPS   H9Y 9314   5.977   6.887   7.254  0.0291  0.6184 -0.8358
   94SAPS  C310 9315   5.829   6.793   7.390 -0.1120  0.3122  0.0089
   94SAPS  H10X 9316   5.850   6.684   7.377  0.7127  0.2666  1.6288
   94SAPS  H10Y 9317   5.721   6.811   7.406  0.0681  0.0412  1.6564
   94SAPS  C311 9318   5.909   6.846   7.510 -0.2614 -0.1630 -1.3132
   94SAPS  H11X 9319   5.932   6.954   7.495 -1.4824  0.6386  2.1400
   94SAPS  H11Y 9320   6.004   6.794   7.536  1.1543  3.2285  0.8550
   94SAPS  C312 9321   5.829   6.846   7.636 -0.2097 -0.3217 -0.0476
   94SAPS  H12X 9322   5.790   6.742   7.640 -0.2570 -0.2655  1.2249
   94SAPS  H12Y 9323   5.740   6.912   7.634 -0.3582 -0.5251 -0.2358
   94SAPS  C313 9324   5.903   6.873   7.766 -0.4034 -0.5167 -0.2214
   94SAPS  H13X 9325   5.912   6.983   7.784  0.2924 -0.3069 -1.8011
   94SAPS  H13Y 9326   6.006   6.831   7.769 -0.4862 -0.6240  2.6124
   94SAPS  C314 9327   5.844   6.801   7.891  0.2266 -0.1798  0.4127
   94SAPS  H14X 9328   5.829   6.694   7.867 -1.6970  0.3457 -0.8131
   94SAPS  H14Y 9329   5.748   6.856   7.904  0.2206  0.1680 -1.1170
   94SAPS  C315 9330   5.942   6.811   8.012  0.1336 -0.0922 -0.1899
   94SAPS  H15X 9331   5.949   6.921   8.027  0.6575 -0.2435  0.6750
   94SAPS  H15Y 9332   6.042   6.777   7.977 -0.6610 -0.5193 -2.1237
   94SAPS  C316 9333   5.898   6.730   8.134  0.3313 -0.1902  0.0719
   94SAPS  H16X 9334   5.909   6.625   8.099 -4.2166 -0.0021 -2.3645
   94SAPS  H16Y 9335   5.795   6.751   8.171  1.3435  0.9015  2.3621
   94SAPS  C317 9336   5.992   6.742   8.254  0.0317 -0.1338 -0.2215
   94SAPS  H17X 9337   5.963   6.695   8.350 -1.3097 -0.1399 -0.6232
   94SAPS  H17Y 9338   6.015   6.850   8.271 -0.6253  0.0471 -0.4915
   94SAPS  C318 9339   6.131   6.679   8.224  0.0082 -0.6699  0.5984
   94SAPS  H18X 9340   6.191   6.742   8.155 -1.6543  0.7841  0.4526
   94SAPS  H18Y 9341   6.121   6.573   8.190  0.5379 -0.6671  0.4295
   94SAPS  H18Z 9342   6.186   6.676   8.320 -2.1907  0.1115  1.9089
   95SAPS     N 9343   2.215   4.513   5.950 -0.1396  0.9939 -0.3243
   95SAPS   HN1 9344   2.305   4.511   6.002  0.1818 -0.6547 -0.9133
   95SAPS   HN2 9345   2.161   4.433   5.990  0.8294 -0.0567 -1.0720
   95SAPS   HN3 9346   2.232   4.512   5.848 -1.3368 -1.4057 -0.5215
   95SAPS   C12 9347   2.142   4.641   5.989  0.0756  0.3826 -0.1444
   95SAPS  H12A 9348   2.204   4.728   5.974  0.1636  0.1179 -1.3476
   95SAPS   C13 9349   2.020   4.657   5.895  0.3363  0.4201 -0.5034
   95SAPS  O13A 9350   2.006   4.584   5.792  0.1662  0.3736  0.0874
   95SAPS  O13B 9351   1.947   4.754   5.920 -0.1149 -0.3797  0.2115
   95SAPS   C11 9352   2.103   4.621   6.137  0.1266 -0.1920 -0.1628
   95SAPS  H11A 9353   2.043   4.531   6.163  0.5256 -0.2806  0.4602
   95SAPS  H11B 9354   2.032   4.699   6.173  2.4510  1.8605  0.0526
   95SAPS     P 9355   2.271   4.522   6.322  0.6723  0.0040 -0.1778
   95SAPS   O13 9356   2.270   4.400   6.239  0.5059 -0.5777 -0.1443
   95SAPS   O14 9357   2.395   4.564   6.394  0.2407  0.1569  0.2494
   95SAPS   O12 9358   2.224   4.632   6.222 -0.1222  0.7309  0.5721
   95SAPS   O11 9359   2.145   4.507   6.422 -0.1151  0.0945 -0.0793
   95SAPS    C1 9360   2.115   4.610   6.516  0.4976 -0.0706 -0.7352
   95SAPS    HA 9361   2.177   4.612   6.608  0.2298 -3.0811 -0.4585
   95SAPS    HB 9362   2.126   4.715   6.480  0.9991 -0.6716 -2.4145
   95SAPS    C2 9363   1.963   4.605   6.576  0.1612 -0.3383  0.1118
   95SAPS    HS 9364   1.960   4.693   6.644 -0.8435  1.3953 -2.1066
   95SAPS   O21 9365   1.926   4.477   6.640  0.7336 -0.5268 -0.2433
   95SAPS   C21 9366   1.982   4.457   6.753  0.1817 -0.1422  0.4525
   95SAPS   O22 9367   2.062   4.534   6.802 -0.1932  0.2498  0.2453
   95SAPS   C22 9368   1.946   4.322   6.810 -0.8596 -0.4029  0.0812
   95SAPS   H2R 9369   1.841   4.312   6.776 -0.9195 -0.5406  0.3042
   95SAPS   H2S 9370   2.012   4.242   6.769 -2.3661 -1.5142 -0.2351
   95SAPS    C3 9371   1.861   4.630   6.450 -0.6165 -0.1271  0.1785
   95SAPS    HX 9372   1.871   4.548   6.376 -1.1690 -0.1890  0.1675
   95SAPS    HY 9373   1.891   4.724   6.399 -1.7332 -0.0465 -0.3349
   95SAPS   O31 9374   1.727   4.641   6.490 -0.0151  0.3000 -0.1387
   95SAPS   C31 9375   1.673   4.527   6.515  0.2093  0.2294  0.3836
   95SAPS   O32 9376   1.716   4.415   6.492  0.1496  0.1205  0.0547
   95SAPS   C32 9377   1.533   4.553   6.573 -1.0693 -0.3204  0.2215
   95SAPS   H2X 9378   1.454   4.528   6.500  1.3006 -0.6627 -2.2889
   95SAPS   H2Y 9379   1.520   4.662   6.593  0.3414 -0.1152  0.0384
   95SAPS   C23 9380   1.947   4.322   6.963 -0.8707 -0.4867  0.6574
   95SAPS   H3R 9381   1.874   4.244   6.994 -1.6145 -0.6339 -1.3548
   95SAPS   H3S 9382   1.922   4.423   7.001  0.3785  0.3432 -0.6773
   95SAPS   C24 9383   2.092   4.284   7.008  0.4333 -0.3242  0.4283
   95SAPS   H4R 9384   2.164   4.352   6.957  0.6059 -1.4293 -0.8248
   95SAPS   H4S 9385   2.100   4.181   6.966 -1.4562 -0.3171  0.0081
   95SAPS   C25 9386   2.083   4.288   7.157 -0.0335  0.3441 -0.2605
   95SAPS   H5R 9387   1.989   4.249   7.198 -1.3938 -0.1740 -3.6885
   95SAPS   C26 9388   2.185   4.334   7.238 -0.1474  0.1318 -0.5005
   95SAPS   H6R 9389   2.183   4.333   7.348  0.9726 -2.8435 -0.4725
   95SAPS   C27 9390   2.318   4.381   7.182  0.0808  0.6218  0.0150
   95SAPS   H7R 9391   2.332   4.366   7.073 -0.7992 -0.2130  0.0111
   95SAPS   H7S 9392   2.386   4.302   7.221 -0.7553  2.0157  4.5965
   95SAPS   C28 9393   2.372   4.522   7.210  0.1058 -0.0694 -0.4744
   95SAPS   H8R 9394   2.353   4.596   7.130  1.8025  1.1985  0.2586
   95SAPS   C29 9395   2.457   4.550   7.316  0.4160 -0.0613 -0.4552
   95SAPS   H9R 9396   2.501   4.651   7.323 -0.8335  0.4329  0.3390
   95SAPS  C210 9397   2.501   4.451   7.422  0.0402  0.2544  0.3479
   95SAPS  H10R 9398   2.440   4.359   7.410  0.2804  0.3373 -1.7188
   95SAPS  H10S 9399   2.476   4.498   7.519  0.8639  0.6679  0.3700
   95SAPS  C211 9400   2.647   4.408   7.408 -0.1392  0.3602 -0.3921
   95SAPS  H11R 9401   2.688   4.402   7.306  1.4024 -0.7395  0.2751
   95SAPS  C212 9402   2.730   4.365   7.507 -0.8409 -0.2133  0.1994
   95SAPS  H12R 9403   2.826   4.332   7.464 -1.5916  0.2659 -1.9478
   95SAPS  C213 9404   2.701   4.354   7.656 -0.1053  0.4239 -0.1107
   95SAPS  H13R 9405   2.622   4.276   7.661 -0.9034  1.2340  0.2400
   95SAPS  H13S 9406   2.652   4.448   7.691  1.6542  1.6445 -0.8537
   95SAPS  C214 9407   2.822   4.325   7.737  0.6684 -0.6851  0.4539
   95SAPS  H14R 9408   2.908   4.286   7.681  1.2945 -1.6146  2.0046
   95SAPS  C215 9409   2.847   4.349   7.867  0.1830  0.3046  0.3082
   95SAPS  H15R 9410   2.945   4.323   7.908  1.8183  3.9627 -1.0911
   95SAPS  C216 9411   2.755   4.408   7.965 -0.2662 -0.2573 -0.1698
   95SAPS  H16R 9412   2.648   4.389   7.943 -1.7620  6.0168  0.9032
   95SAPS  H16S 9413   2.755   4.518   7.975  0.9246 -0.2421 -0.2548
   95SAPS  C217 9414   2.794   4.341   8.100 -0.8591 -0.1958  0.4331
   95SAPS  H17R 9415   2.894   4.374   8.134  0.2681 -3.3337  0.2928
   95SAPS  H17S 9416   2.777   4.232   8.104  0.2074 -0.4087 -0.5577
   95SAPS  C218 9417   2.695   4.408   8.201 -0.3239  0.4100 -0.3134
   95SAPS  H18R 9418   2.599   4.442   8.156  0.2542  0.1230 -1.8178
   95SAPS  H18S 9419   2.750   4.495   8.243  4.0013 -2.5887  0.5955
   95SAPS  C219 9420   2.659   4.326   8.320 -0.7854 -0.3481  0.4118
   95SAPS  H19R 9421   2.743   4.286   8.380 -0.1432 -3.3272 -2.3098
   95SAPS  H19S 9422   2.596   4.245   8.277 -0.1611  0.2592 -1.7213
   95SAPS  C220 9423   2.568   4.393   8.420  0.0611  0.0653 -0.5073
   95SAPS  H20R 9424   2.605   4.493   8.451 -2.9386  0.8573  0.6861
   95SAPS  H20S 9425   2.557   4.339   8.517 -0.0315  2.2320  0.7320
   95SAPS  H20T 9426   2.461   4.398   8.390  0.1408  0.5930 -0.7151
   95SAPS   C33 9427   1.515   4.482   6.714 -0.2299 -0.4351  0.3848
   95SAPS   H3X 9428   1.553   4.379   6.704 -2.5376 -1.3492  0.7570
   95SAPS   H3Y 9429   1.404   4.478   6.724 -0.5439  2.2124 -1.4326
   95SAPS   C34 9430   1.574   4.556   6.832  0.1459  0.0208 -0.1305
   95SAPS   H4X 9431   1.548   4.663   6.823 -1.1726 -0.0684  2.2627
   95SAPS   H4Y 9432   1.685   4.550   6.839 -0.0352 -0.5709  2.7859
   95SAPS   C35 9433   1.515   4.508   6.964  0.2624 -0.5650  0.4365
   95SAPS   H5X 9434   1.404   4.509   6.962  0.2477 -1.0558  0.7114
   95SAPS   H5Y 9435   1.548   4.579   7.043 -1.0255  1.7486 -1.0825
   95SAPS   C36 9436   1.561   4.367   7.024  0.0221  0.2955  0.2092
   95SAPS   H6X 9437   1.671   4.365   7.042 -0.1118 -1.8901  0.9275
   95SAPS   H6Y 9438   1.546   4.293   6.943  0.2956 -0.2006  0.6094
   95SAPS   C37 9439   1.477   4.328   7.149 -0.2943  0.0935  0.1983
   95SAPS   H7X 9440   1.483   4.218   7.169 -1.9554  0.2906  1.9087
   95SAPS   H7Y 9441   1.373   4.362   7.129 -0.3109  0.3394  0.7142
   95SAPS   C38 9442   1.522   4.401   7.273  0.2220 -0.1862 -0.1412
   95SAPS   H8X 9443   1.521   4.512   7.263 -2.0981 -0.2805 -1.3237
   95SAPS   H8Y 9444   1.626   4.375   7.300  0.8087 -0.7655 -2.7583
   95SAPS   C39 9445   1.451   4.360   7.397  0.4720  0.3103 -0.1171
   95SAPS   H9X 9446   1.466   4.252   7.421  0.8778 -0.5970 -4.0942
   95SAPS   H9Y 9447   1.341   4.378   7.396  0.6819  1.6049 -0.5776
   95SAPS  C310 9448   1.509   4.418   7.522  0.2039  0.5688  0.3388
   95SAPS  H10X 9449   1.513   4.529   7.515  1.7630  0.4738 -0.6266
   95SAPS  H10Y 9450   1.614   4.385   7.537 -0.5794 -1.7860  0.7114
   95SAPS  C311 9451   1.436   4.390   7.654  0.7781  0.2550 -1.2631
   95SAPS  H11X 9452   1.423   4.280   7.663  1.3651  0.3429  0.9725
   95SAPS  H11Y 9453   1.334   4.435   7.648  1.4715  1.9699 -0.4215
   95SAPS  C312 9454   1.513   4.430   7.780  0.0029 -0.6146  0.2060
   95SAPS  H12X 9455   1.493   4.539   7.794 -0.3359 -0.8542  1.6535
   95SAPS  H12Y 9456   1.619   4.398   7.766 -0.1989 -0.9217 -0.6800
   95SAPS  C313 9457   1.442   4.366   7.899 -1.2206 -0.2858 -0.1596
   95SAPS  H13X 9458   1.473   4.260   7.909  3.0451  0.6466 -2.1968
   95SAPS  H13Y 9459   1.333   4.381   7.882 -1.1473 -0.0813 -0.4599
   95SAPS  C314 9460   1.457   4.452   8.024 -0.5096 -0.0426 -0.7883
   95SAPS  H14X 9461   1.413   4.551   7.998  1.1252  1.7955  3.0495
   95SAPS  H14Y 9462   1.561   4.477   8.056 -0.4887 -0.5850 -0.4181
   95SAPS  C315 9463   1.387   4.397   8.145  0.6703 -0.1359  1.0222
   95SAPS  H15X 9464   1.454   4.314   8.175  0.3266  0.0587  2.3502
   95SAPS  H15Y 9465   1.291   4.348   8.119  0.8812 -0.3938  0.7255
   95SAPS  C316 9466   1.364   4.501   8.255  0.1822 -0.4444 -0.4796
   95SAPS  H16X 9467   1.453   4.565   8.275  0.7929 -1.9922  1.9467
   95SAPS  H16Y 9468   1.336   4.458   8.353 -0.0764  0.5789 -0.0918
   95SAPS  C317 9469   1.243   4.586   8.227  0.7066  0.7977  0.1429
   95SAPS  H17X 9470   1.154   4.520   8.218  0.7856  0.5049  1.4273
   95SAPS  H17Y 9471   1.250   4.635   8.128 -0.0419 -1.7033 -1.2138
   95SAPS  C318 9472   1.229   4.693   8.328 -0.6417 -1.1167 -0.3573
   95SAPS  H18X 9473   1.172   4.647   8.411 -0.9383 -0.2654 -0.0841
   95SAPS  H18Y 9474   1.166   4.776   8.289  1.5181  0.9887  0.5191
   95SAPS  H18Z 9475   1.322   4.745   8.357  0.7400 -2.3930 -2.3226
   96SAPS     N 9476   2.188   5.765   6.218 -0.4993  0.3634  0.2605
   96SAPS   HN1 9477   2.179   5.867   6.230 -1.9288  0.3094 -0.2438
   96SAPS   HN2 9478   2.201   5.730   6.121 -2.7236  0.3800 -0.0818
   96SAPS   HN3 9479   2.090   5.739   6.243 -0.0843  1.0876  2.7271
   96SAPS   C12 9480   2.290   5.698   6.295 -0.4713 -0.1122 -0.0637
   96SAPS  H12A 9481   2.276   5.732   6.396  0.1945  1.2858 -0.4376
   96SAPS   C13 9482   2.270   5.548   6.311 -0.1167  0.3188 -0.0506
   96SAPS  O13A 9483   2.187   5.485   6.234  0.0912  0.2647  0.4417
   96SAPS  O13B 9484   2.348   5.494   6.388 -0.2016  0.1037 -0.2026
   96SAPS   C11 9485   2.438   5.713   6.250 -0.3519 -0.0901  0.4768
   96SAPS  H11A 9486   2.438   5.665   6.150  2.3134 -1.3564  1.0385
   96SAPS  H11B 9487   2.500   5.663   6.328  1.5769 -0.3614 -1.2009
   96SAPS     P 9488   2.615   5.901   6.234 -0.3046  0.1086 -0.0342
   96SAPS   O13 9489   2.698   5.818   6.140  0.4190  0.2510  0.1649
   96SAPS   O14 9490   2.607   6.051   6.214 -0.1499 -0.4217 -0.5319
   96SAPS   O12 9491   2.468   5.849   6.240 -0.1912  0.2319 -0.8710
   96SAPS   O11 9492   2.659   5.875   6.389 -0.6953  0.4355 -0.5200
   96SAPS    C1 9493   2.719   5.762   6.450 -0.1830  0.0869 -0.2746
   96SAPS    HA 9494   2.635   5.693   6.475 -0.5288 -0.0728 -1.8496
   96SAPS    HB 9495   2.778   5.704   6.376 -0.6668  0.7834 -1.1980
   96SAPS    C2 9496   2.798   5.793   6.580  0.4269 -0.6035 -0.2847
   96SAPS    HS 9497   2.839   5.698   6.621 -1.8258 -2.6007 -2.4953
   96SAPS   O21 9498   2.707   5.855   6.674 -0.3057  0.3061  0.0645
   96SAPS   C21 9499   2.747   5.838   6.804 -0.0327 -0.0353  0.2024
   96SAPS   O22 9500   2.845   5.768   6.843  0.0528  0.1440  0.2262
   96SAPS   C22 9501   2.660   5.912   6.897 -0.3400 -0.4835 -0.1275
   96SAPS   H2R 9502   2.667   6.018   6.865 -1.5664 -0.9668 -2.0597
   96SAPS   H2S 9503   2.553   5.889   6.875  0.2509 -2.6253 -0.9066
   96SAPS    C3 9504   2.908   5.893   6.534  0.5332  0.0929  0.1965
   96SAPS    HX 9505   2.856   5.988   6.512  0.8848  0.0846 -0.6780
   96SAPS    HY 9506   2.951   5.865   6.436 -2.1764  0.7592 -1.2124
   96SAPS   O31 9507   3.016   5.904   6.631 -0.7901 -0.2603 -0.3731
   96SAPS   C31 9508   3.002   6.005   6.716 -0.6519  0.6284 -0.4100
   96SAPS   O32 9509   2.925   6.095   6.709 -0.3043  0.6400 -0.5106
   96SAPS   C32 9510   3.110   5.987   6.829  0.1763  0.0731  0.1717
   96SAPS   H2X 9511   3.176   5.917   6.774 -0.2331  0.6958 -1.1368
   96SAPS   H2Y 9512   3.057   5.931   6.910 -0.3691 -0.0188 -0.2495
   96SAPS   C23 9513   2.693   5.901   7.051 -0.2270 -0.6735  0.3736
   96SAPS   H3R 9514   2.789   5.954   7.067  0.0185 -1.0466  0.1415
   96SAPS   H3S 9515   2.720   5.795   7.070  1.8153 -0.7931 -2.7314
   96SAPS   C24 9516   2.592   5.962   7.144 -0.0918 -0.1709  0.1086
   96SAPS   H4R 9517   2.579   6.071   7.122  1.8970  0.0205 -0.1904
   96SAPS   H4S 9518   2.637   5.961   7.246 -1.4648  1.7022  0.7733
   96SAPS   C25 9519   2.452   5.906   7.145  0.0534  0.6334 -0.0258
   96SAPS   H5R 9520   2.405   5.879   7.050  1.2926 -0.6251 -0.2968
   96SAPS   C26 9521   2.374   5.896   7.264 -0.2093 -0.8007 -0.0618
   96SAPS   H6R 9522   2.281   5.839   7.250 -0.3393 -0.2819 -1.3781
   96SAPS   C27 9523   2.433   5.949   7.398 -0.0960 -0.2635 -0.0140
   96SAPS   H7R 9524   2.470   6.050   7.370  0.2919 -1.0859 -2.5808
   96SAPS   H7S 9525   2.523   5.890   7.426 -0.1859 -0.1264  0.5601
   96SAPS   C28 9526   2.334   5.954   7.508 -0.0087 -0.3294  0.7272
   96SAPS   H8R 9527   2.228   5.947   7.479  0.3489 -2.2281 -0.1771
   96SAPS   C29 9528   2.369   5.968   7.642 -0.4299  0.3475  0.5422
   96SAPS   H9R 9529   2.287   5.961   7.714 -0.6087  0.8865  0.3949
   96SAPS  C210 9530   2.512   5.981   7.702 -0.4105 -0.0039 -0.0995
   96SAPS  H10R 9531   2.530   6.083   7.744 -3.2061  0.4927  0.0002
   96SAPS  H10S 9532   2.591   5.981   7.624  1.1957  2.4698  1.4464
   96SAPS  C211 9533   2.538   5.870   7.804 -0.7303 -0.0739  0.1320
   96SAPS  H11R 9534   2.535   5.770   7.760 -5.8171 -0.6479  1.4827
   96SAPS  C212 9535   2.531   5.877   7.941  0.3741 -0.0693 -0.6699
   96SAPS  H12R 9536   2.569   5.784   7.986  0.3833  0.1338 -0.2609
   96SAPS  C213 9537   2.506   6.004   8.022 -0.5619  0.4874  0.2082
   96SAPS  H13R 9538   2.397   6.026   8.014 -0.2452  1.5236 -1.5453
   96SAPS  H13S 9539   2.544   6.095   7.970  0.6468 -0.8041 -1.1707
   96SAPS  C214 9540   2.558   5.996   8.168 -0.3120 -0.4033 -0.4355
   96SAPS  H14R 9541   2.666   5.975   8.181 -0.6124 -1.4396  0.4313
   96SAPS  C215 9542   2.488   5.978   8.282  0.0402  0.3076  0.3537
   96SAPS  H15R 9543   2.546   5.979   8.375  0.5704 -1.0518  0.0404
   96SAPS  C216 9544   2.336   5.976   8.298 -0.7617  0.3351  0.5629
   96SAPS  H16R 9545   2.310   5.903   8.378 -2.2058  0.8821  0.6211
   96SAPS  H16S 9546   2.304   5.937   8.199 -1.5364 -3.8375  2.3434
   96SAPS  C217 9547   2.260   6.111   8.313 -0.1206 -0.4111  0.2441
   96SAPS  H17R 9548   2.151   6.090   8.315 -1.0460  4.0561  2.3287
   96SAPS  H17S 9549   2.278   6.166   8.218 -0.3250  3.2683  2.2535
   96SAPS  C218 9550   2.288   6.199   8.436  0.4811 -0.1345 -0.9568
   96SAPS  H18R 9551   2.253   6.303   8.418  2.0308  0.4345 -0.7775
   96SAPS  H18S 9552   2.398   6.203   8.452  0.3518  0.1853 -0.1209
   96SAPS  C219 9553   2.220   6.141   8.564 -0.0926 -0.5141  0.4779
   96SAPS  H19R 9554   2.141   6.074   8.523  0.3666 -0.0128 -1.2584
   96SAPS  H19S 9555   2.149   6.215   8.608 -1.3169 -2.1588  1.3453
   96SAPS  C220 9556   2.314   6.083   8.665  0.4662  0.1641 -0.0143
   96SAPS  H20R 9557   2.266   6.035   8.753 -0.3384  0.7706 -0.1188
   96SAPS  H20S 9558   2.391   6.150   8.707 -0.5730  0.3413  1.6423
   96SAPS  H20T 9559   2.372   6.006   8.609 -1.3938 -0.8292 -0.6401
   96SAPS   C33 9560   3.173   6.122   6.878 -1.3056 -0.8332  0.0175
   96SAPS   H3X 9561   3.088   6.193   6.883 -0.5712 -0.0003  0.7294
   96SAPS   H3Y 9562   3.234   6.150   6.789 -0.6080 -2.1566  0.0608
   96SAPS   C34 9563   3.250   6.106   7.014 -0.4820 -0.4737  0.9190
   96SAPS   H4X 9564   3.312   6.198   7.016  0.5919 -1.1868  0.8796
   96SAPS   H4Y 9565   3.326   6.025   7.009  0.1257  0.0901  0.9775
   96SAPS   C35 9566   3.176   6.072   7.138  1.1376  0.2307 -0.4048
   96SAPS   H5X 9567   3.111   5.982   7.134  1.6914 -0.2747  1.2600
   96SAPS   H5Y 9568   3.106   6.158   7.145  1.9784  0.9219 -0.2478
   96SAPS   C36 9569   3.273   6.064   7.261  0.1498  0.0039 -0.2903
   96SAPS   H6X 9570   3.344   6.148   7.248  0.0406  0.4802  1.9926
   96SAPS   H6Y 9571   3.321   5.964   7.247 -0.5449 -0.2022 -1.2940
   96SAPS   C37 9572   3.203   6.077   7.401  0.6217 -0.4269  0.6445
   96SAPS   H7X 9573   3.109   6.017   7.392  1.2854 -1.6353  1.6850
   96SAPS   H7Y 9574   3.174   6.183   7.412 -0.3774 -0.5637 -0.5301
   96SAPS   C38 9575   3.282   6.039   7.524 -0.2639  0.0780  0.1467
   96SAPS   H8X 9576   3.347   5.949   7.516  1.9509  1.7440 -1.2297
   96SAPS   H8Y 9577   3.205   6.009   7.598  1.4292 -2.0524  1.1136
   96SAPS   C39 9578   3.367   6.150   7.575 -0.7485  0.4337  0.1154
   96SAPS   H9X 9579   3.311   6.228   7.631  0.0011  2.4346 -1.8179
   96SAPS   H9Y 9580   3.426   6.197   7.493 -0.8452  1.2457  0.4975
   96SAPS  C310 9581   3.474   6.102   7.688 -0.3520  0.0259  0.3887
   96SAPS  H10X 9582   3.549   6.046   7.628 -1.1348 -1.0750  0.4215
   96SAPS  H10Y 9583   3.427   6.028   7.755  1.3049 -2.8071 -1.4749
   96SAPS  C311 9584   3.547   6.216   7.766 -0.1110 -0.0504  0.8738
   96SAPS  H11X 9585   3.540   6.307   7.703 -2.8259  1.1109  2.7673
   96SAPS  H11Y 9586   3.656   6.198   7.777  0.3796  2.3159  0.1166
   96SAPS  C312 9587   3.489   6.232   7.904 -0.1736  0.4842 -0.4212
   96SAPS  H12X 9588   3.452   6.136   7.946  0.1130  1.6326  2.5613
   96SAPS  H12Y 9589   3.400   6.297   7.886  0.9018  2.1238  0.0154
   96SAPS  C313 9590   3.594   6.294   7.998 -0.5225 -0.4055  0.1653
   96SAPS  H13X 9591   3.636   6.393   7.969  0.3876 -0.4497  1.2752
   96SAPS  H13Y 9592   3.684   6.230   8.008  0.7608  1.2543 -0.4241
   96SAPS  C314 9593   3.544   6.305   8.139 -0.3838 -0.1380 -0.1034
   96SAPS  H14X 9594   3.535   6.202   8.180  1.3191 -0.3080 -0.1461
   96SAPS  H14Y 9595   3.452   6.367   8.134 -0.5637 -0.5178 -1.9540
   96SAPS  C315 9596   3.639   6.379   8.228 -0.6351  0.2968  1.1827
   96SAPS  H15X 9597   3.660   6.479   8.183 -0.0796 -0.6025 -0.6135
   96SAPS  H15Y 9598   3.733   6.321   8.223 -0.6796  0.1856  1.7057
   96SAPS  C316 9599   3.591   6.389   8.378  0.5416 -0.0751  0.6627
   96SAPS  H16X 9600   3.678   6.430   8.433  2.2180 -4.1491  1.2515
   96SAPS  H16Y 9601   3.554   6.297   8.430 -1.2188  0.6920  0.8312
   96SAPS  C317 9602   3.487   6.489   8.403 -1.6046 -0.3137 -0.8400
   96SAPS  H17X 9603   3.386   6.446   8.386 -1.8931  0.0006  0.0497
   96SAPS  H17Y 9604   3.498   6.573   8.331 -0.0996  2.1660  2.1433
   96SAPS  C318 9605   3.495   6.535   8.552 -0.1647 -0.7848 -0.5244
   96SAPS  H18X 9606   3.436   6.625   8.580  0.6970 -0.9549  1.9551
   96SAPS  H18Y 9607   3.599   6.571   8.567 -0.1623 -0.8623 -0.3536
   96SAPS  H18Z 9608   3.468   6.451   8.620  0.1859 -1.3187 -1.0403
   97SAPS     N 9609   2.670   3.857   6.299  0.1780  0.4283 -0.5044
   97SAPS   HN1 9610   2.699   3.904   6.387 -3.2111  2.2749 -0.3054
   97SAPS   HN2 9611   2.646   3.920   6.220 -0.4127 -1.0648 -1.5580
   97SAPS   HN3 9612   2.578   3.812   6.318  0.2060  0.9590  0.8897
   97SAPS   C12 9613   2.757   3.753   6.261  0.2408  0.3760  0.1238
   97SAPS  H12A 9614   2.694   3.682   6.210  0.0470  1.4022 -1.1154
   97SAPS   C13 9615   2.873   3.797   6.163 -0.1505 -0.0936  0.0939
   97SAPS  O13A 9616   2.883   3.919   6.119 -0.3419 -0.1550  0.0776
   97SAPS  O13B 9617   2.958   3.706   6.123  0.4798  0.3402 -0.0587
   97SAPS   C11 9618   2.821   3.690   6.391 -0.2088  0.5287 -0.3220
   97SAPS  H11A 9619   2.870   3.593   6.367 -0.7056 -0.2576  1.7577
   97SAPS  H11B 9620   2.747   3.653   6.464  0.3608 -0.5755 -0.2869
   97SAPS     P 9621   3.050   3.716   6.522  0.1261  0.2681  0.1111
   97SAPS   O13 9622   3.148   3.722   6.413  0.1646  0.9750  0.3234
   97SAPS   O14 9623   3.084   3.803   6.643 -0.0080  0.0237  0.5210
   97SAPS   O12 9624   2.910   3.770   6.468 -0.6222  0.1934  0.1618
   97SAPS   O11 9625   3.001   3.575   6.570 -0.0007 -0.4523  0.1586
   97SAPS    C1 9626   2.923   3.579   6.690 -0.3819 -0.1192 -0.3024
   97SAPS    HA 9627   2.849   3.660   6.702 -1.5535 -1.2879  0.3951
   97SAPS    HB 9628   2.855   3.494   6.712 -0.3442  0.2018  1.0752
   97SAPS    C2 9629   3.004   3.557   6.816 -1.4000 -0.1705  0.0822
   97SAPS    HS 9630   3.080   3.638   6.826 -0.4258 -1.2316  1.3269
   97SAPS   O21 9631   3.059   3.422   6.802  0.4889 -0.5242 -0.4742
   97SAPS   C21 9632   3.177   3.417   6.742  0.2408 -0.3898  0.0670
   97SAPS   O22 9633   3.251   3.512   6.721  0.5008  0.1260 -0.2099
   97SAPS   C22 9634   3.229   3.281   6.710 -0.0817 -0.0490  0.2060
   97SAPS   H2R 9635   3.154   3.216   6.760 -0.0257  0.6625  1.2305
   97SAPS   H2S 9636   3.225   3.275   6.599 -0.8974  1.1797  0.1634
   97SAPS    C3 9637   2.925   3.572   6.940 -0.4548 -0.0869  0.5339
   97SAPS    HX 9638   2.827   3.522   6.939  0.0502 -1.0768  0.2055
   97SAPS    HY 9639   2.900   3.680   6.951  1.3881  0.4463 -0.2648
   97SAPS   O31 9640   2.994   3.521   7.052 -0.4061  0.2053  0.2106
   97SAPS   C31 9641   3.082   3.612   7.107  0.0871  0.0932  0.2053
   97SAPS   O32 9642   3.097   3.723   7.059 -0.1545 -0.2384 -0.9379
   97SAPS   C32 9643   3.133   3.561   7.242  0.5692 -0.7686  0.0815
   97SAPS   H2X 9644   3.193   3.470   7.223  0.2693 -1.7261  3.3490
   97SAPS   H2Y 9645   3.046   3.523   7.301 -0.6797 -0.8136 -1.7426
   97SAPS   C23 9646   3.371   3.252   6.763 -0.9443  0.1223  0.4071
   97SAPS   H3R 9647   3.448   3.308   6.708  0.2210 -1.0305  0.8381
   97SAPS   H3S 9648   3.399   3.146   6.748 -0.0370  0.0600  2.3748
   97SAPS   C24 9649   3.392   3.278   6.912  0.2545 -0.4475 -0.0663
   97SAPS   H4R 9650   3.379   3.382   6.950 -1.6795 -0.3772 -0.8833
   97SAPS   H4S 9651   3.500   3.250   6.920  0.4026  0.5135  1.5973
   97SAPS   C25 9652   3.317   3.201   7.013  0.8658  0.0867 -0.7554
   97SAPS   H5R 9653   3.209   3.196   6.993  1.0852  0.6573 -2.1041
   97SAPS   C26 9654   3.372   3.140   7.117  0.0109 -0.1988  0.6289
   97SAPS   H6R 9655   3.308   3.077   7.181 -1.4862 -0.8155 -1.4268
   97SAPS   C27 9656   3.516   3.153   7.164  0.2776  0.8773 -0.1176
   97SAPS   H7R 9657   3.549   3.258   7.151 -1.2205  1.3512 -0.2628
   97SAPS   H7S 9658   3.582   3.089   7.102  0.3242  0.3018  0.5164
   97SAPS   C28 9659   3.539   3.102   7.309  0.3395 -0.6809  0.8130
   97SAPS   H8R 9660   3.589   3.004   7.320  0.2260 -1.1175 -2.1115
   97SAPS   C29 9661   3.526   3.182   7.418  0.6043 -0.0336 -0.1939
   97SAPS   H9R 9662   3.562   3.142   7.514 -1.3357  0.4241  0.7481
   97SAPS  C210 9663   3.487   3.325   7.437 -0.4178  0.1130 -0.0558
   97SAPS  H10R 9664   3.425   3.350   7.525  0.5680  1.6531  0.2196
   97SAPS  H10S 9665   3.415   3.346   7.354 -0.8715  0.1239  0.3414
   97SAPS  C211 9666   3.604   3.413   7.423  0.3443  0.6950 -0.0323
   97SAPS  H11R 9667   3.653   3.421   7.325  0.0836 -0.5927 -0.2758
   97SAPS  C212 9668   3.651   3.489   7.520  0.4973  0.2085  0.1871
   97SAPS  H12R 9669   3.749   3.535   7.500 -0.9300  2.6652 -1.3688
   97SAPS  C213 9670   3.599   3.496   7.661 -0.7787 -0.0080  0.6541
   97SAPS  H13R 9671   3.669   3.425   7.711  0.7446  0.6366 -0.5074
   97SAPS  H13S 9672   3.499   3.451   7.674 -0.7203 -0.0177  1.0962
   97SAPS  C214 9673   3.602   3.630   7.730  0.1410 -0.0352  0.1730
   97SAPS  H14R 9674   3.570   3.709   7.661  0.0658 -1.2474 -1.1891
   97SAPS  C215 9675   3.634   3.660   7.858  0.7083 -0.1236 -0.2407
   97SAPS  H15R 9676   3.621   3.765   7.889 -1.2536 -0.8711  1.5751
   97SAPS  C216 9677   3.684   3.564   7.961  0.3739  0.4797  0.1969
   97SAPS  H16R 9678   3.689   3.462   7.917  0.9988  0.5263  0.1470
   97SAPS  H16S 9679   3.597   3.569   8.029  0.2641  0.4946  0.0543
   97SAPS  C217 9680   3.804   3.602   8.052 -0.4277 -0.1230  0.5782
   97SAPS  H17R 9681   3.817   3.520   8.126  0.7221  0.6552  1.2603
   97SAPS  H17S 9682   3.773   3.693   8.106 -1.5919  1.9416 -3.3865
   97SAPS  C218 9683   3.938   3.613   7.974  0.6175  0.1616 -0.0363
   97SAPS  H18R 9684   3.959   3.719   7.947  3.6699  0.0341  1.5513
   97SAPS  H18S 9685   3.939   3.566   7.874  1.2257 -0.5817  0.3174
   97SAPS  C219 9686   4.057   3.570   8.054  0.1635  0.0493  0.0869
   97SAPS  H19R 9687   4.142   3.542   7.988  0.0769 -1.0016  0.4056
   97SAPS  H19S 9688   4.042   3.478   8.116 -0.4452 -0.1392 -0.3383
   97SAPS  C220 9689   4.109   3.683   8.145 -0.1392 -1.0120 -0.0603
   97SAPS  H20R 9690   4.218   3.676   8.168  0.0207 -0.9917 -0.7881
   97SAPS  H20S 9691   4.041   3.701   8.231  3.3594  0.0738  2.6090
   97SAPS  H20T 9692   4.099   3.783   8.096 -2.0154  0.9098  3.9809
   97SAPS   C33 9693   3.216   3.653   7.338 -0.1277  0.4423 -0.0791
   97SAPS   H3X 9694   3.156   3.747   7.346  0.6650  0.9060  0.5228
   97SAPS   H3Y 9695   3.312   3.675   7.287 -1.1039  2.6611 -1.0547
   97SAPS   C34 9696   3.252   3.599   7.478  0.2534  0.9694  0.3658
   97SAPS   H4X 9697   3.343   3.646   7.519 -0.3588  2.3427  0.1903
   97SAPS   H4Y 9698   3.275   3.490   7.476 -0.1490  0.8295  2.6932
   97SAPS   C35 9699   3.151   3.620   7.589 -0.0440  0.2115 -0.2644
   97SAPS   H5X 9700   3.045   3.592   7.569 -0.6203  2.2847 -0.2410
   97SAPS   H5Y 9701   3.141   3.722   7.632 -0.3001  1.0389 -2.2392
   97SAPS   C36 9702   3.187   3.545   7.721 -0.1751  0.0918  0.1321
   97SAPS   H6X 9703   3.266   3.600   7.776  0.4927  0.2072 -0.9297
   97SAPS   H6Y 9704   3.219   3.441   7.698 -0.6876  0.2627 -1.4168
   97SAPS   C37 9705   3.065   3.539   7.811  0.3687  0.2955  0.3257
   97SAPS   H7X 9706   3.000   3.467   7.758  0.6373 -0.8228  1.4895
   97SAPS   H7Y 9707   3.022   3.641   7.822  2.0529  1.1250 -0.5478
   97SAPS   C38 9708   3.076   3.488   7.954  0.5469 -0.3372  0.7054
   97SAPS   H8X 9709   3.091   3.379   7.943 -2.4798 -0.6575 -0.7470
   97SAPS   H8Y 9710   2.976   3.510   7.996  0.2542 -0.6130  0.1545
   97SAPS   C39 9711   3.196   3.552   8.035  0.2565  0.3060  0.0433
   97SAPS   H9X 9712   3.182   3.662   8.032 -0.8114  0.1513 -0.7663
   97SAPS   H9Y 9713   3.283   3.520   7.974 -0.8252 -2.2166 -0.2217
   97SAPS  C310 9714   3.216   3.510   8.182 -0.6394 -0.1491  0.0898
   97SAPS  H10X 9715   3.149   3.579   8.237 -1.0383 -0.5928  0.1554
   97SAPS  H10Y 9716   3.322   3.516   8.216 -0.5715  1.9894 -0.3741
   97SAPS  C311 9717   3.179   3.364   8.214  0.1487 -0.7939  0.3121
   97SAPS  H11X 9718   3.237   3.295   8.150  0.2643  1.6688 -2.3202
   97SAPS  H11Y 9719   3.070   3.346   8.200  0.2501 -0.0728 -1.4854
   97SAPS  C312 9720   3.217   3.337   8.361  0.1199 -0.2557 -0.3363
   97SAPS  H12X 9721   3.145   3.383   8.431 -0.4915  0.4522 -1.4196
   97SAPS  H12Y 9722   3.321   3.373   8.379 -1.3097  3.7155  0.4693
   97SAPS  C313 9723   3.223   3.183   8.386 -0.0633  0.1145  0.0448
   97SAPS  H13X 9724   3.138   3.131   8.337 -0.7114  1.6378 -0.4779
   97SAPS  H13Y 9725   3.204   3.160   8.493 -0.8514 -0.9847 -0.3175
   97SAPS  C314 9726   3.356   3.132   8.337  0.4777 -0.6841 -0.3335
   97SAPS  H14X 9727   3.444   3.181   8.383 -0.9440  1.9068 -0.3084
   97SAPS  H14Y 9728   3.372   3.157   8.230  0.3904  0.8612  0.0061
   97SAPS  C315 9729   3.375   2.977   8.355 -0.0482  0.1006 -0.0315
   97SAPS  H15X 9730   3.357   2.947   8.460  3.0381  0.3844  0.5954
   97SAPS  H15Y 9731   3.478   2.950   8.325 -0.2238 -1.9423  1.1475
   97SAPS  C316 9732   3.280   2.898   8.266  0.3294  0.1397  0.0279
   97SAPS  H16X 9733   3.300   2.922   8.160  0.2456  3.0668  0.6406
   97SAPS  H16Y 9734   3.179   2.936   8.292 -0.6088 -0.6470 -2.3548
   97SAPS  C317 9735   3.289   2.745   8.277  0.2751 -0.3265  0.1088
   97SAPS  H17X 9736   3.289   2.719   8.385 -1.3279 -2.2067 -0.3141
   97SAPS  H17Y 9737   3.388   2.708   8.243 -0.0652 -2.4632  1.3313
   97SAPS  C318 9738   3.174   2.667   8.196 -0.5490 -0.0075  0.3655
   97SAPS  H18X 9739   3.159   2.563   8.231 -0.8442  0.4646  1.7007
   97SAPS  H18Y 9740   3.207   2.662   8.090 -0.5189  1.1549  0.3070
   97SAPS  H18Z 9741   3.074   2.715   8.195 -0.6692 -0.1022  2.9093
   98SAPS     N 9742   1.309   4.269   5.910  0.4260 -0.7101  0.3307
   98SAPS   HN1 9743   1.236   4.244   5.840  0.5056 -2.4535  0.8630
   98SAPS   HN2 9744   1.397   4.302   5.866  0.2327 -0.8404 -0.1516
   98SAPS   HN3 9745   1.326   4.192   5.977 -2.6863 -1.0664  0.7983
   98SAPS   C12 9746   1.263   4.389   5.990  0.3232  0.3266 -0.3094
   98SAPS  H12A 9747   1.349   4.453   6.000 -0.4803  1.7309 -2.1145
   98SAPS   C13 9748   1.147   4.454   5.912 -0.4639 -0.1280  0.0304
   98SAPS  O13A 9749   1.107   4.416   5.802 -0.1375 -0.2818 -0.2246
   98SAPS  O13B 9750   1.091   4.543   5.976 -0.2411 -0.6162 -0.0260
   98SAPS   C11 9751   1.219   4.351   6.136 -0.1564  0.0895  0.2941
   98SAPS  H11A 9752   1.120   4.302   6.128 -0.6019  1.1286 -0.8005
   98SAPS  H11B 9753   1.192   4.437   6.202  1.2201  1.4589 -0.8817
   98SAPS     P 9754   1.452   4.304   6.231 -0.1090 -0.5750 -0.1139
   98SAPS   O13 9755   1.538   4.275   6.113  0.2988 -0.2326 -0.6267
   98SAPS   O14 9756   1.438   4.443   6.280  0.0102 -0.1213  0.3812
   98SAPS   O12 9757   1.307   4.255   6.196  0.0077 -0.1188 -0.1447
   98SAPS   O11 9758   1.481   4.209   6.357 -0.2635  0.0306  0.2460
   98SAPS    C1 9759   1.392   4.233   6.467 -0.6791  0.6847 -0.3495
   98SAPS    HA 9760   1.399   4.337   6.505 -1.7037  1.4484 -2.1755
   98SAPS    HB 9761   1.289   4.212   6.432 -1.5718  2.6104  1.0387
   98SAPS    C2 9762   1.409   4.125   6.580 -0.1184  0.7835  0.1980
   98SAPS    HS 9763   1.364   4.032   6.538 -0.2537  1.3508 -0.9340
   98SAPS   O21 9764   1.351   4.166   6.702 -0.1052 -0.6124  0.4697
   98SAPS   C21 9765   1.216   4.148   6.713  0.0621 -0.0074 -0.0783
   98SAPS   O22 9766   1.148   4.078   6.642  0.8031  0.4367 -0.0088
   98SAPS   C22 9767   1.167   4.224   6.832  0.1768 -0.3192  0.0907
   98SAPS   H2R 9768   1.247   4.245   6.906  0.2768 -1.4586  0.3257
   98SAPS   H2S 9769   1.137   4.320   6.785  1.6409  1.2539  2.2537
   98SAPS    C3 9770   1.559   4.091   6.584 -0.4685  0.2646  0.1378
   98SAPS    HX 9771   1.621   4.182   6.600  0.1789  0.0514 -1.0429
   98SAPS    HY 9772   1.587   4.059   6.481  2.2542 -0.5485  1.0767
   98SAPS   O31 9773   1.583   3.975   6.668  0.0820 -0.1779 -0.3426
   98SAPS   C31 9774   1.658   3.996   6.767 -0.2624 -0.6408  1.2284
   98SAPS   O32 9775   1.697   4.107   6.803  1.0180 -0.3265  0.1647
   98SAPS   C32 9776   1.691   3.866   6.838  0.7215  0.1185 -0.3109
   98SAPS   H2X 9777   1.749   3.799   6.770  1.9635 -0.2378  1.0650
   98SAPS   H2Y 9778   1.594   3.823   6.871  0.9070 -1.3242 -1.5910
   98SAPS   C23 9779   1.042   4.168   6.905 -0.4958 -0.0983 -0.0107
   98SAPS   H3R 9780   1.066   4.063   6.930 -0.5566  0.0128  0.5152
   98SAPS   H3S 9781   0.953   4.164   6.839 -1.6671  0.8996  1.4832
   98SAPS   C24 9782   1.005   4.249   7.032 -0.2499 -0.2688 -0.8063
   98SAPS   H4R 9783   0.984   4.356   7.010  1.3592  0.8334  2.5957
   98SAPS   H4S 9784   1.083   4.244   7.111 -0.0956 -0.1917 -0.9538
   98SAPS   C25 9785   0.880   4.187   7.076 -0.4474  0.9087  0.4933
   98SAPS   H5R 9786   0.810   4.185   6.991  0.0269 -2.7352  0.1069
   98SAPS   C26 9787   0.843   4.126   7.192  0.0509 -0.1562  0.0013
   98SAPS   H6R 9788   0.744   4.076   7.191 -1.0819  2.0437  0.1320
   98SAPS   C27 9789   0.929   4.111   7.316 -0.5452 -0.4509 -0.4114
   98SAPS   H7R 9790   1.017   4.178   7.303 -0.1736 -1.2554 -2.1641
   98SAPS   H7S 9791   0.964   4.006   7.323 -0.1370 -0.2209  1.0249
   98SAPS   C28 9792   0.852   4.156   7.442 -0.0929  0.0695  0.8837
   98SAPS   H8R 9793   0.743   4.142   7.445 -0.1187  0.4038  1.5305
   98SAPS   C29 9794   0.896   4.210   7.558 -0.1275 -0.1947  0.3562
   98SAPS   H9R 9795   0.822   4.228   7.638  0.5538  0.9681  0.7441
   98SAPS  C210 9796   1.031   4.253   7.603 -0.2227  0.7797 -0.6209
   98SAPS  H10R 9797   1.098   4.225   7.518  0.2908 -0.4357  0.1752
   98SAPS  H10S 9798   1.062   4.203   7.697 -1.9692 -1.9599 -1.4629
   98SAPS  C211 9799   1.038   4.398   7.621  0.0115 -0.8701 -0.2650
   98SAPS  H11R 9800   1.063   4.451   7.528  0.3355 -0.1774  0.2084
   98SAPS  C212 9801   1.042   4.469   7.736 -0.5498  0.5529  0.4530
   98SAPS  H12R 9802   1.042   4.579   7.733  1.7053  0.5479 -2.1248
   98SAPS  C213 9803   1.026   4.406   7.878 -0.4776 -0.8527 -0.3693
   98SAPS  H13R 9804   1.064   4.475   7.955 -0.5231 -2.0707  0.7509
   98SAPS  H13S 9805   1.093   4.319   7.896 -1.4449 -1.3522  0.9022
   98SAPS  C214 9806   0.884   4.349   7.905 -0.2452  0.4485  0.2295
   98SAPS  H14R 9807   0.852   4.262   7.847  0.5807  1.3391 -1.5867
   98SAPS  C215 9808   0.809   4.379   8.016  0.4438 -0.0746  0.2077
   98SAPS  H15R 9809   0.704   4.347   8.022  0.1545 -0.1519 -3.9098
   98SAPS  C216 9810   0.861   4.463   8.128  0.1280  0.3520 -0.3430
   98SAPS  H16R 9811   0.794   4.551   8.122 -0.5906 -0.3014 -2.2906
   98SAPS  H16S 9812   0.971   4.482   8.126  0.6015 -2.0490  0.3824
   98SAPS  C217 9813   0.839   4.380   8.251  0.3151  0.1645  0.2532
   98SAPS  H17R 9814   0.861   4.272   8.240 -1.0267 -0.2699  1.6671
   98SAPS  H17S 9815   0.730   4.392   8.267  0.8236  3.6660  1.6480
   98SAPS  C218 9816   0.907   4.432   8.371  0.0192 -0.4106  0.1617
   98SAPS  H18R 9817   0.919   4.542   8.362  0.9509 -0.6797 -2.2158
   98SAPS  H18S 9818   1.010   4.392   8.379 -0.0634 -0.2206  2.6175
   98SAPS  C219 9819   0.843   4.383   8.501 -0.1469  0.6881 -0.2124
   98SAPS  H19R 9820   0.873   4.279   8.526  1.5090  1.7081  2.1719
   98SAPS  H19S 9821   0.732   4.378   8.495 -0.3777  1.0515  3.1902
   98SAPS  C220 9822   0.890   4.473   8.613 -0.0097  0.0962  0.7279
   98SAPS  H20R 9823   0.999   4.494   8.601 -0.2794  1.0530 -0.0752
   98SAPS  H20S 9824   0.870   4.425   8.711 -1.5307  1.7500  1.2510
   98SAPS  H20T 9825   0.851   4.576   8.602  0.5779  0.1398 -1.3249
   98SAPS   C33 9826   1.792   3.902   6.952  0.1834 -0.0569  0.3640
   98SAPS   H3X 9827   1.876   3.968   6.921 -1.4364  2.1694  0.5997
   98SAPS   H3Y 9828   1.827   3.807   6.997  1.5162  0.8896  1.3718
   98SAPS   C34 9829   1.730   3.982   7.070  0.3223  0.2782  0.5245
   98SAPS   H4X 9830   1.629   3.939   7.087  0.6636  0.0912  2.1836
   98SAPS   H4Y 9831   1.717   4.088   7.038 -1.7447 -0.2601 -0.4558
   98SAPS   C35 9832   1.823   3.987   7.190 -0.3769 -0.8314 -0.3194
   98SAPS   H5X 9833   1.923   4.026   7.159 -0.5860  0.6284  0.7772
   98SAPS   H5Y 9834   1.849   3.884   7.224 -0.2999 -0.5681  0.4374
   98SAPS   C36 9835   1.757   4.053   7.314 -0.0341  0.6599 -0.2239
   98SAPS   H6X 9836   1.658   4.009   7.339  0.6741 -0.0039  1.4815
   98SAPS   H6Y 9837   1.752   4.160   7.285 -1.0259 -0.2243 -3.5761
   98SAPS   C37 9838   1.832   4.032   7.453 -0.0208 -0.3537 -0.2107
   98SAPS   H7X 9839   1.939   4.060   7.446  0.2760 -1.4034  0.1128
   98SAPS   H7Y 9840   1.837   3.923   7.473  0.6909 -0.5031 -1.1348
   98SAPS   C38 9841   1.761   4.096   7.569 -0.0146  1.4284 -0.2042
   98SAPS   H8X 9842   1.652   4.074   7.568  0.2804 -0.0375 -1.3102
   98SAPS   H8Y 9843   1.774   4.204   7.547  0.6321  1.4874  0.4775
   98SAPS   C39 9844   1.817   4.049   7.697 -0.1736  0.1377  0.3587
   98SAPS   H9X 9845   1.927   4.057   7.700 -0.2021  0.5725  0.3028
   98SAPS   H9Y 9846   1.797   3.940   7.706  3.0542 -0.5435 -0.1870
   98SAPS  C310 9847   1.753   4.118   7.823  1.1412  0.2037  0.1594
   98SAPS  H10X 9848   1.644   4.095   7.824  1.4606 -1.3731  2.8941
   98SAPS  H10Y 9849   1.773   4.228   7.823  1.4014  0.1565 -0.1912
   98SAPS  C311 9850   1.819   4.063   7.955 -0.0512  0.1802  0.2401
   98SAPS  H11X 9851   1.926   4.091   7.961 -0.3920  1.7622 -0.7949
   98SAPS  H11Y 9852   1.803   3.954   7.964 -1.5568  0.5389  2.2835
   98SAPS  C312 9853   1.766   4.124   8.084  0.0248  0.0566 -1.6078
   98SAPS  H12X 9854   1.753   4.233   8.075  4.3804  0.7998 -0.1590
   98SAPS  H12Y 9855   1.851   4.119   8.156  0.1307 -0.0672 -1.7388
   98SAPS  C313 9856   1.643   4.052   8.144  0.2923 -0.8222  0.6717
   98SAPS  H13X 9857   1.646   3.941   8.134  1.1759 -0.6808 -0.8847
   98SAPS  H13Y 9858   1.549   4.086   8.094 -0.5882  0.4554  3.1361
   98SAPS  C314 9859   1.616   4.093   8.288  0.2748 -0.0500 -0.2979
   98SAPS  H14X 9860   1.612   4.204   8.293  1.1325  0.1350 -2.9312
   98SAPS  H14Y 9861   1.697   4.057   8.355  0.3016 -0.8738 -0.7617
   98SAPS  C315 9862   1.488   4.032   8.342 -0.7253  0.7849 -0.6067
   98SAPS  H15X 9863   1.477   3.925   8.314 -0.3564  0.5023  0.3318
   98SAPS  H15Y 9864   1.402   4.091   8.302 -1.6994 -0.2938 -0.1569
   98SAPS  C316 9865   1.478   4.040   8.499  0.4274  0.2578 -0.6937
   98SAPS  H16X 9866   1.423   4.135   8.514 -0.9938  0.0042 -3.7394
   98SAPS  H16Y 9867   1.579   4.055   8.542 -0.8983  2.9353  1.6095
   98SAPS  C317 9868   1.410   3.922   8.558 -0.0900  0.1712 -0.4051
   98SAPS  H17X 9869   1.472   3.837   8.521  0.8935  0.3677  0.7664
   98SAPS  H17Y 9870   1.303   3.916   8.528 -1.0214 -0.2369  2.8763
   98SAPS  C318 9871   1.420   3.940   8.709 -0.1558 -0.2997  0.3448
   98SAPS  H18X 9872   1.453   4.038   8.749 -1.4317 -0.1733  1.1175
   98SAPS  H18Y 9873   1.481   3.859   8.752  2.2803  0.3107 -1.8504
   98SAPS  H18Z 9874   1.322   3.941   8.762 -1.6553  3.5036 -2.2330
   99SAPS     N 9875   0.964   1.180   6.060  0.2644 -0.1693  0.1741
   99SAPS   HN1 9876   0.864   1.208   6.050 -0.4348 -2.2833  0.9465
   99SAPS   HN2 9877   0.960   1.076   6.059 -0.9781 -0.1445  1.1551
   99SAPS   HN3 9878   1.000   1.224   6.147  1.0962 -2.3098  0.9405
   99SAPS   C12 9879   1.041   1.233   5.941  0.2478 -0.7637  0.2272
   99SAPS  H12A 9880   1.146   1.211   5.953  0.6002  1.2871  1.1672
   99SAPS   C13 9881   0.990   1.171   5.810 -0.5122  0.0681 -0.4272
   99SAPS  O13A 9882   0.935   1.063   5.804  0.1958 -0.3747  0.1005
   99SAPS  O13B 9883   1.059   1.213   5.709 -0.2028  1.0074  0.2364
   99SAPS   C11 9884   1.012   1.385   5.930 -0.2825  1.2435  0.0194
   99SAPS  H11A 9885   0.902   1.400   5.922 -0.3459  1.3982  1.0852
   99SAPS  H11B 9886   1.062   1.438   5.847  1.1339  0.5655  0.4186
   99SAPS     P 9887   1.031   1.595   6.086 -0.0401  0.2533 -0.0059
   99SAPS   O13 9888   1.132   1.684   6.030  0.1102 -0.0362  0.0374
   99SAPS   O14 9889   0.889   1.622   6.057 -0.6785  1.1435  0.1603
   99SAPS   O12 9890   1.062   1.445   6.051  0.1991 -0.0377  0.2762
   99SAPS   O11 9891   1.048   1.582   6.246 -0.4318 -0.3867  0.1178
   99SAPS    C1 9892   1.175   1.544   6.303 -0.7333  0.4338 -0.3549
   99SAPS    HA 9893   1.260   1.552   6.233 -0.2279 -1.4625  0.0085
   99SAPS    HB 9894   1.194   1.598   6.398  1.3201  0.4858 -0.7905
   99SAPS    C2 9895   1.168   1.390   6.340  0.6278  0.5142 -0.3928
   99SAPS    HS 9896   1.149   1.340   6.243  0.2416 -0.5932  0.2381
   99SAPS   O21 9897   1.064   1.369   6.434 -1.3001  0.3364 -0.0170
   99SAPS   C21 9898   0.943   1.350   6.393 -0.2414  0.4404 -0.1666
   99SAPS   O22 9899   0.911   1.324   6.278 -0.5733  0.0447 -0.6749
   99SAPS   C22 9900   0.844   1.366   6.512 -0.3345 -0.2203 -1.0270
   99SAPS   H2R 9901   0.814   1.472   6.524 -5.3821 -1.5232 -0.8732
   99SAPS   H2S 9902   0.746   1.330   6.475 -0.7674 -2.7150  2.2482
   99SAPS    C3 9903   1.297   1.331   6.410  0.1310  0.0674 -0.0537
   99SAPS    HX 9904   1.375   1.316   6.333 -1.5588  0.5954 -1.8995
   99SAPS    HY 9905   1.261   1.234   6.449  0.7461 -1.2329 -2.5933
   99SAPS   O31 9906   1.341   1.426   6.517 -0.1257  0.0479 -0.3272
   99SAPS   C31 9907   1.403   1.376   6.625 -0.5636  0.1831  0.0791
   99SAPS   O32 9908   1.420   1.257   6.642 -0.2217 -0.1439 -0.4186
   99SAPS   C32 9909   1.454   1.488   6.717  0.0090  0.2951  0.5272
   99SAPS   H2X 9910   1.379   1.570   6.722  1.8092  1.8768  2.3999
   99SAPS   H2Y 9911   1.551   1.519   6.672  1.6266 -1.4247  2.6994
   99SAPS   C23 9912   0.886   1.291   6.649  0.3069 -0.0164 -0.2469
   99SAPS   H3R 9913   0.903   1.184   6.625  0.4572 -0.0838  0.1704
   99SAPS   H3S 9914   0.794   1.299   6.711  0.9386 -0.9308  0.8263
   99SAPS   C24 9915   1.001   1.353   6.737 -0.3015  0.3036 -0.1114
   99SAPS   H4R 9916   1.099   1.359   6.686  1.0720  0.7377  2.4845
   99SAPS   H4S 9917   1.010   1.279   6.819 -1.1232  1.1780  0.7961
   99SAPS   C25 9918   0.974   1.497   6.776  0.0717 -0.5150  1.0965
   99SAPS   H5R 9919   1.000   1.566   6.694 -1.0374 -0.1999  0.9995
   99SAPS   C26 9920   0.947   1.540   6.895  0.4675  0.8400 -0.1895
   99SAPS   H6R 9921   0.946   1.648   6.918  0.3147  1.5106 -3.1132
   99SAPS   C27 9922   0.920   1.444   7.008  0.0778 -0.1835 -0.9658
   99SAPS   H7R 9923   0.901   1.336   6.988 -2.1151  0.2630 -1.3438
   99SAPS   H7S 9924   0.823   1.474   7.051 -0.3003  0.5157 -2.2877
   99SAPS   C28 9925   1.023   1.472   7.116  0.3909  0.3012  0.5619
   99SAPS   H8R 9926   1.109   1.530   7.080  0.3537  0.2905  0.4550
   99SAPS   C29 9927   1.026   1.412   7.234 -0.3451 -0.4643  0.5637
   99SAPS   H9R 9928   1.111   1.449   7.293 -1.1554  1.3997  0.5852
   99SAPS  C210 9929   0.916   1.319   7.294 -0.0586 -0.8006 -0.5010
   99SAPS  H10R 9930   0.963   1.240   7.356  0.1053 -0.5593 -0.3175
   99SAPS  H10S 9931   0.866   1.259   7.215 -0.5533  0.1576 -0.9248
   99SAPS  C211 9932   0.806   1.396   7.371 -0.4839  0.6361 -0.2386
   99SAPS  H11R 9933   0.719   1.409   7.304 -0.8871 -0.5110  0.0506
   99SAPS  C212 9934   0.815   1.437   7.499  0.1558  0.0945  0.0026
   99SAPS  H12R 9935   0.735   1.497   7.545  0.8498  0.1300  1.1674
   99SAPS  C213 9936   0.931   1.430   7.600  0.3038 -0.2273 -0.6053
   99SAPS  H13R 9937   0.971   1.528   7.634  0.0271 -0.4301  0.3162
   99SAPS  H13S 9938   1.011   1.376   7.546 -0.2088 -0.2178 -1.3755
   99SAPS  C214 9939   0.877   1.346   7.710  0.5493 -0.1535 -0.3172
   99SAPS  H14R 9940   0.830   1.254   7.672  0.6687  0.0077 -0.8512
   99SAPS  C215 9941   0.880   1.378   7.842  0.0975  0.9504  0.4893
   99SAPS  H15R 9942   0.850   1.299   7.913  1.5021 -0.8466 -0.8429
   99SAPS  C216 9943   0.943   1.497   7.916  0.6863 -0.6604 -0.4855
   99SAPS  H16R 9944   0.967   1.569   7.835 -1.0551 -1.1126 -1.4293
   99SAPS  H16S 9945   1.039   1.470   7.964  0.9821  1.4497  0.1360
   99SAPS  C217 9946   0.851   1.566   8.018  0.6584  0.9025  0.3939
   99SAPS  H17R 9947   0.907   1.650   8.065 -0.3644  1.9469 -0.2411
   99SAPS  H17S 9948   0.838   1.489   8.098  2.3688 -1.0524 -1.1478
   99SAPS  C218 9949   0.713   1.611   7.961 -0.2571 -0.6448 -0.2490
   99SAPS  H18R 9950   0.647   1.642   8.044 -0.0867 -0.3434 -0.2273
   99SAPS  H18S 9951   0.663   1.521   7.918 -1.3521 -0.0917 -0.1533
   99SAPS  C219 9952   0.718   1.706   7.842 -0.8523  0.0547 -0.4311
   99SAPS  H19R 9953   0.790   1.672   7.764  0.0572  1.6950 -0.3272
   99SAPS  H19S 9954   0.752   1.804   7.881 -0.3632 -1.2446  2.5347
   99SAPS  C220 9955   0.584   1.737   7.779 -0.4864 -0.4131 -0.4153
   99SAPS  H20R 9956   0.597   1.759   7.671  2.7686  0.6016  0.1387
   99SAPS  H20S 9957   0.550   1.832   7.826 -0.8917 -0.1037 -1.3308
   99SAPS  H20T 9958   0.514   1.652   7.797 -0.3778 -0.1638  1.3345
   99SAPS   C33 9959   1.474   1.434   6.863  0.8832 -0.7932  0.0977
   99SAPS   H3X 9960   1.523   1.509   6.928 -0.4092 -0.7983  1.1016
   99SAPS   H3Y 9961   1.541   1.346   6.868  1.6854 -0.1822  0.2052
   99SAPS   C34 9962   1.340   1.410   6.939 -0.2793 -0.2676  0.0941
   99SAPS   H4X 9963   1.275   1.339   6.883 -1.1094  1.1235 -0.7575
   99SAPS   H4Y 9964   1.276   1.501   6.950  0.1250  0.1019 -0.5781
   99SAPS   C35 9965   1.355   1.342   7.082  0.3017 -0.5407  0.2344
   99SAPS   H5X 9966   1.414   1.251   7.059  1.3306  0.5281 -1.4902
   99SAPS   H5Y 9967   1.259   1.307   7.125  1.0271 -1.5857  1.0247
   99SAPS   C36 9968   1.417   1.429   7.196 -0.0819 -0.9306  0.4189
   99SAPS   H6X 9969   1.362   1.526   7.195  0.1856 -0.7908 -1.2482
   99SAPS   H6Y 9970   1.517   1.467   7.165 -0.8720  0.7377 -0.1566
   99SAPS   C37 9971   1.420   1.358   7.334 -0.5182 -0.1367  0.0369
   99SAPS   H7X 9972   1.510   1.292   7.323 -2.1164 -2.1566 -1.3795
   99SAPS   H7Y 9973   1.330   1.293   7.345 -0.8595  0.7046  2.5446
   99SAPS   C38 9974   1.434   1.446   7.456  0.8327  0.6340  0.6746
   99SAPS   H8X 9975   1.521   1.516   7.450  0.8155  0.6604  0.7307
   99SAPS   H8Y 9976   1.467   1.375   7.534  1.2540  2.2674  2.0217
   99SAPS   C39 9977   1.309   1.519   7.495  0.4782 -0.3601 -0.7020
   99SAPS   H9X 9978   1.220   1.453   7.498  0.0816  0.1217 -1.8170
   99SAPS   H9Y 9979   1.282   1.600   7.424  0.2754 -0.1189 -0.3507
   99SAPS  C310 9980   1.321   1.580   7.633 -0.1225 -0.0106  0.5880
   99SAPS  H10X 9981   1.250   1.666   7.642 -0.7960 -0.6106  1.1724
   99SAPS  H10Y 9982   1.421   1.625   7.653  0.0530 -0.5763  0.9728
   99SAPS  C311 9983   1.281   1.476   7.742 -0.1791 -0.2892  0.4377
   99SAPS  H11X 9984   1.344   1.384   7.734 -2.0312 -1.6081  0.7943
   99SAPS  H11Y 9985   1.179   1.444   7.713  0.6811 -2.9195  0.1505
   99SAPS  C312 9986   1.284   1.540   7.880 -0.1030  0.0990  0.1106
   99SAPS  H12X 9987   1.293   1.456   7.952  0.3200  0.0526  0.0072
   99SAPS  H12Y 9988   1.194   1.604   7.891 -0.5829 -0.3020 -1.3665
   99SAPS  C313 9989   1.406   1.633   7.907 -0.7213  0.2271  0.4472
   99SAPS  H13X 9990   1.394   1.726   7.846  2.7632 -0.1628 -0.8993
   99SAPS  H13Y 9991   1.497   1.584   7.867 -0.1678  1.0842  0.6500
   99SAPS  C314 9992   1.423   1.666   8.054  0.4736 -0.3742 -0.0777
   99SAPS  H14X 9993   1.501   1.744   8.071 -0.5941  1.0719 -1.5912
   99SAPS  H14Y 9994   1.462   1.577   8.107 -1.0350 -0.9321  0.1209
   99SAPS  C315 9995   1.289   1.726   8.116 -0.1621 -0.5143 -0.1460
   99SAPS  H15X 9996   1.228   1.637   8.141  0.4323 -0.9654 -0.2979
   99SAPS  H15Y 9997   1.238   1.809   8.062 -0.4154 -0.9192 -0.5305
   99SAPS  C316 9998   1.331   1.777   8.253 -0.0951 -0.2098  0.3421
   99SAPS  H16X 9999   1.397   1.864   8.237  1.9254 -2.0989 -2.0711
   99SAPS  H16Y10000   1.379   1.690   8.303  1.6226  1.3682  1.4760
   99SAPS  C31710001   1.209   1.823   8.334 -0.0625 -0.0957  0.0350
   99SAPS  H17X10002   1.162   1.731   8.376  1.9913 -1.1366  0.0919
   99SAPS  H17Y10003   1.144   1.882   8.267 -1.3712 -0.5440  0.8822
   99SAPS  C31810004   1.242   1.913   8.454 -0.5276  0.4326 -0.1017
   99SAPS  H18X10005   1.341   1.881   8.494  0.1450  0.2792 -1.8798
   99SAPS  H18Y10006   1.154   1.917   8.521 -0.7427 -0.0198 -0.3593
   99SAPS  H18Z10007   1.273   2.016   8.424  1.1189 -0.2839 -0.9277
  100SAPS     N10008   3.889   3.758   6.213  0.1201  0.5209 -0.1029
  100SAPS   HN110009   3.887   3.718   6.309 -1.6425  0.3755 -0.1816
  100SAPS   HN210010   3.958   3.835   6.198  1.0522 -0.0320  1.1981
  100SAPS   HN310011   3.790   3.788   6.205 -0.6646 -1.1480  2.5472
  100SAPS   C1210012   3.931   3.653   6.113 -0.5860  0.3678 -0.3588
  100SAPS  H12A10013   3.901   3.672   6.011  0.7441 -0.6709 -0.9635
  100SAPS   C1310014   4.085   3.633   6.110  0.1165  0.9676  0.1486
  100SAPS  O13A10015   4.154   3.700   6.195 -0.2290 -0.0502  0.4469
  100SAPS  O13B10016   4.140   3.546   6.036  0.0946 -0.5923 -0.0782
  100SAPS   C1110017   3.855   3.520   6.168  0.2203  0.3171 -0.4234
  100SAPS  H11A10018   3.886   3.501   6.273  1.1520 -3.1874 -1.2676
  100SAPS  H11B10019   3.891   3.437   6.104 -0.0587  0.6302 -0.9983
  100SAPS     P10020   3.625   3.415   6.186 -0.3554  0.0662  0.0339
  100SAPS   O1310021   3.485   3.460   6.202 -0.2071  0.2035 -0.1686
  100SAPS   O1410022   3.648   3.306   6.091 -0.6272  0.5190  0.2111
  100SAPS   O1210023   3.714   3.538   6.149  0.3480  0.8172  0.4302
  100SAPS   O1110024   3.680   3.365   6.324  0.1600  0.5574 -0.5727
  100SAPS    C110025   3.634   3.430   6.444  0.4912 -0.4048  0.0312
  100SAPS    HA10026   3.665   3.537   6.439  2.4732 -0.9597 -0.2741
  100SAPS    HB10027   3.527   3.420   6.470  0.2008 -0.1770 -1.0202
  100SAPS    C210028   3.706   3.365   6.567  0.2677  1.0365  0.8122
  100SAPS    HS10029   3.811   3.357   6.532  0.2501 -2.5261  1.3467
  100SAPS   O2110030   3.649   3.232   6.585  0.3977 -0.1287  0.4066
  100SAPS   C2110031   3.739   3.149   6.630 -0.2961 -0.0760  0.2434
  100SAPS   O2210032   3.859   3.170   6.642  0.0982 -0.0957 -0.4900
  100SAPS   C2210033   3.682   3.014   6.651  0.0375  0.2656  0.6139
  100SAPS   H2R10034   3.605   2.990   6.575  2.8282  2.2935 -3.0053
  100SAPS   H2S10035   3.770   2.949   6.628  0.6830 -0.4895  4.8251
  100SAPS    C310036   3.695   3.463   6.691 -0.1503  0.4264  0.1526
  100SAPS    HX10037   3.588   3.495   6.696  0.3519  1.9536  2.0319
  100SAPS    HY10038   3.755   3.554   6.667  0.7107  0.0768  0.9877
  100SAPS   O3110039   3.720   3.400   6.819 -0.5647  0.0707 -0.4515
  100SAPS   C3110040   3.842   3.425   6.875  0.0549  0.3667 -0.4279
  100SAPS   O3210041   3.937   3.473   6.817  0.4081 -0.2103  0.2515
  100SAPS   C3210042   3.846   3.396   7.024 -0.5888  0.0151  0.3804
  100SAPS   H2X10043   3.845   3.285   7.031 -0.7403 -0.0075  0.0488
  100SAPS   H2Y10044   3.753   3.443   7.062 -0.1296  0.1768  1.3018
  100SAPS   C2310045   3.648   2.995   6.802  0.1758 -0.1496 -0.1178
  100SAPS   H3R10046   3.552   3.040   6.836 -0.2602 -0.5016 -0.8773
  100SAPS   H3S10047   3.728   3.049   6.857  1.4282  0.5675 -2.5970
  100SAPS   C2410048   3.651   2.850   6.858  0.0724 -0.2319 -0.4140
  100SAPS   H4R10049   3.638   2.863   6.967  2.2237  0.3527 -0.2015
  100SAPS   H4S10050   3.754   2.813   6.837  0.5573  0.5587  0.5105
  100SAPS   C2510051   3.537   2.773   6.796  0.3093  0.3111  0.7584
  100SAPS   H5R10052   3.546   2.740   6.692 -0.5521 -0.1269  0.8128
  100SAPS   C2610053   3.427   2.745   6.869  0.6365  0.5091 -0.6734
  100SAPS   H6R10054   3.333   2.705   6.829 -0.1193  1.1265  0.4425
  100SAPS   C2710055   3.400   2.774   7.011 -0.6224 -0.0547  0.2545
  100SAPS   H7R10056   3.315   2.845   7.011 -0.3920  0.2356 -0.6992
  100SAPS   H7S10057   3.480   2.817   7.074 -1.9288 -2.3930  3.6574
  100SAPS   C2810058   3.354   2.646   7.079  0.0146  0.3259 -0.1910
  100SAPS   H8R10059   3.302   2.574   7.015 -0.7012  1.0898 -0.4839
  100SAPS   C2910060   3.380   2.614   7.207 -0.1109 -0.0744 -0.5000
  100SAPS   H9R10061   3.330   2.521   7.239 -1.4555  1.2584  1.3157
  100SAPS  C21010062   3.457   2.683   7.315  0.2032 -0.0974 -0.5353
  100SAPS  H10R10063   3.521   2.764   7.272  1.3066 -1.5523 -1.6865
  100SAPS  H10S10064   3.539   2.622   7.359 -0.8176  0.1913  1.8381
  100SAPS  C21110065   3.363   2.728   7.426 -0.4088  0.0752 -0.0840
  100SAPS  H11R10066   3.274   2.779   7.387 -1.2009  0.7988  2.5625
  100SAPS  C21210067   3.370   2.707   7.561 -0.0979  0.4098  0.2982
  100SAPS  H12R10068   3.290   2.745   7.627  1.5355  3.9023  0.3906
  100SAPS  C21310069   3.492   2.640   7.634  0.4200 -0.4531 -0.1280
  100SAPS  H13R10070   3.588   2.681   7.595 -0.2224 -0.5567 -1.8828
  100SAPS  H13S10071   3.499   2.529   7.624  0.6477 -0.5613  1.1598
  100SAPS  C21410072   3.471   2.676   7.778  0.5038  0.5971 -0.3931
  100SAPS  H14R10073   3.427   2.592   7.832  0.7509  0.3069 -0.6397
  100SAPS  C21510074   3.496   2.800   7.848  0.2006  0.2828  0.2973
  100SAPS  H15R10075   3.485   2.796   7.957 -1.4242 -1.4000  0.1085
  100SAPS  C21610076   3.554   2.930   7.800  0.4505  0.2845 -0.1035
  100SAPS  H16R10077   3.560   2.926   7.689  2.6508 -2.0128  0.0547
  100SAPS  H16S10078   3.662   2.943   7.823  0.2906  0.4474  0.5551
  100SAPS  C21710079   3.466   3.050   7.845 -0.0575 -0.0608  0.5714
  100SAPS  H17R10080   3.361   3.017   7.828  1.4441 -4.6904 -0.3261
  100SAPS  H17S10081   3.489   3.136   7.779  3.1235 -0.3945  1.1556
  100SAPS  C21810082   3.495   3.099   7.986 -0.0836  0.2873  0.2085
  100SAPS  H18R10083   3.494   3.009   8.051  2.3233  0.0815  0.0223
  100SAPS  H18S10084   3.413   3.161   8.028  0.9429  0.7060  1.6399
  100SAPS  C21910085   3.631   3.165   8.003 -0.2080 -0.2018  0.7950
  100SAPS  H19R10086   3.654   3.242   7.926 -1.7954 -0.8496 -0.3504
  100SAPS  H19S10087   3.713   3.090   8.011 -0.5474 -0.6632 -0.0930
  100SAPS  C22010088   3.659   3.226   8.145 -0.1613  0.6380 -0.2276
  100SAPS  H20R10089   3.765   3.220   8.176 -0.4628 -2.2146  0.3692
  100SAPS  H20S10090   3.608   3.164   8.221 -1.3839  1.0328 -0.6998
  100SAPS  H20T10091   3.611   3.326   8.155 -1.4145 -0.0338  0.4934
  100SAPS   C3310092   3.972   3.454   7.086  0.1662  0.2972  0.4079
  100SAPS   H3X10093   3.961   3.564   7.084  0.5483  0.3179 -1.1136
  100SAPS   H3Y10094   4.062   3.427   7.026 -0.6183 -1.4743 -0.0191
  100SAPS   C3410095   3.998   3.414   7.235 -0.1825  0.2460  0.9085
  100SAPS   H4X10096   4.019   3.306   7.250 -1.4491 -0.0508  0.6018
  100SAPS   H4Y10097   3.903   3.431   7.289  0.9192  1.8760  2.3709
  100SAPS   C3510098   4.106   3.504   7.297 -0.3185  1.0123 -0.0532
  100SAPS   H5X10099   4.082   3.611   7.280  0.5383  0.8004 -2.7280
  100SAPS   H5Y10100   4.193   3.494   7.229  1.2913  2.3985  1.7385
  100SAPS   C3610101   4.141   3.500   7.446  0.0018  0.0799  0.4232
  100SAPS   H6X10102   4.149   3.397   7.486  0.9341 -1.1029 -2.6125
  100SAPS   H6Y10103   4.057   3.543   7.504 -0.4929  1.9182 -1.5746
  100SAPS   C3710104   4.263   3.581   7.478 -0.1691  0.8296 -0.3547
  100SAPS   H7X10105   4.245   3.688   7.455 -1.0031  0.2357 -2.5972
  100SAPS   H7Y10106   4.353   3.548   7.422  0.0698 -0.1333  0.5712
  100SAPS   C3810107   4.309   3.574   7.625 -0.2327 -0.3528 -0.4969
  100SAPS   H8X10108   4.401   3.512   7.631  0.1477  0.1430 -1.1614
  100SAPS   H8Y10109   4.233   3.530   7.694  0.1834 -4.3628 -2.4285
  100SAPS   C3910110   4.346   3.719   7.680 -0.3103  0.3560  0.5608
  100SAPS   H9X10111   4.244   3.761   7.688  0.6172  2.5294  1.4152
  100SAPS   H9Y10112   4.397   3.781   7.603  1.0998  0.3979  1.4935
  100SAPS  C31010113   4.403   3.717   7.822 -0.5465 -0.2657 -0.3946
  100SAPS  H10X10114   4.506   3.675   7.825  0.2362  1.6639  0.1287
  100SAPS  H10Y10115   4.338   3.645   7.876 -2.7658  0.9960 -1.3505
  100SAPS  C31110116   4.429   3.854   7.882  0.4204 -0.0963 -0.1961
  100SAPS  H11X10117   4.331   3.907   7.883 -0.2107 -1.2238 -1.5606
  100SAPS  H11Y10118   4.501   3.915   7.823  0.6952  1.4701  1.6737
  100SAPS  C31210119   4.481   3.830   8.023  0.1276 -0.2126 -0.2914
  100SAPS  H12X10120   4.584   3.790   8.022  0.4378  0.5824 -0.6975
  100SAPS  H12Y10121   4.408   3.763   8.073  0.2137 -0.8690 -1.0299
  100SAPS  C31310122   4.462   3.967   8.112 -0.8039  0.0004  0.7926
  100SAPS  H13X10123   4.354   3.996   8.111 -0.6194  0.9159  3.2675
  100SAPS  H13Y10124   4.520   4.049   8.066 -3.4176  1.3196 -0.2804
  100SAPS  C31410125   4.499   3.950   8.265 -0.1350 -0.1913  0.4143
  100SAPS  H14X10126   4.478   4.037   8.330  0.6311 -1.7804  2.8618
  100SAPS  H14Y10127   4.607   3.924   8.273  0.0453  0.9787  1.9683
  100SAPS  C31510128   4.431   3.833   8.332  0.1842 -0.0423  1.0417
  100SAPS  H15X10129   4.489   3.747   8.294 -1.0044 -0.4180  0.0476
  100SAPS  H15Y10130   4.327   3.821   8.296 -0.5255  1.1279  2.6214
  100SAPS  C31610131   4.459   3.841   8.484  0.0992 -0.2047  0.3782
  100SAPS  H16X10132   4.559   3.884   8.504 -0.3665  2.7117 -3.0836
  100SAPS  H16Y10133   4.435   3.742   8.527 -2.6948 -0.1593 -0.9788
  100SAPS  C31710134   4.352   3.937   8.546  0.5207  0.5612 -0.1013
  100SAPS  H17X10135   4.358   4.040   8.504 -1.1500  1.2594  1.3043
  100SAPS  H17Y10136   4.378   3.948   8.653  3.3155 -0.4502 -0.6365
  100SAPS  C31810137   4.206   3.881   8.529 -0.7179  0.0443 -0.4048
  100SAPS  H18X10138   4.176   3.849   8.427 -1.2417  0.7408 -0.4746
  100SAPS  H18Y10139   4.130   3.958   8.554 -1.6131 -0.6401 -0.9939
  100SAPS  H18Z10140   4.184   3.791   8.591  0.0166  0.1528  0.0186
  101OSM      N10141   3.167   3.705  10.842 -0.8409 -0.1112 -0.0080
  101OSM    C1510142   3.269   3.801  10.893  0.3083 -0.4493  0.0513
  101OSM   H15A10143   3.355   3.757  10.942  0.4483 -0.9211 -0.6237
  101OSM   H15B10144   3.235   3.860  10.977 -0.5176  0.0881 -0.6598
  101OSM   H15C10145   3.305   3.866  10.814  0.8817  0.3532  0.9569
  101OSM    C1410146   3.236   3.600  10.751  0.3400  0.4685  0.2858
  101OSM   H14A10147   3.184   3.506  10.742  0.5366  0.0903  2.7951
  101OSM   H14B10148   3.336   3.568  10.778 -0.1167 -0.8106  0.5179
  101OSM   H14C10149   3.242   3.639  10.651 -0.5445  2.5960  1.0302
  101OSM    C1310150   3.107   3.640  10.961  0.5153  0.5174  0.1601
  101OSM   H13A10151   3.184   3.592  11.020  1.1214  2.5073  1.0344
  101OSM   H13B10152   3.040   3.564  10.922 -2.0962  2.3388  0.8996
  101OSM   H13C10153   3.062   3.711  11.029  2.0148  1.4799  0.1625
  101OSM    C1210154   3.062   3.784  10.766  0.0431 -0.9146  0.0426
  101OSM   H12A10155   3.037   3.860  10.838  0.5502 -2.6369  2.0926
  101OSM   H12B10156   2.978   3.721  10.740 -0.1011  0.1780 -2.2730
  101OSM    C1110157   3.108   3.862  10.636  0.4016  0.2475  0.4933
  101OSM   H11A10158   3.007   3.894  10.601 -0.8135 -1.9326  1.9012
  101OSM   H11B10159   3.146   3.794  10.558  1.0852 -0.4207  1.4073
  101OSM      P10160   3.131   4.106  10.708 -0.3166  0.0193  0.3314
  101OSM    O1310161   3.007   4.075  10.778 -0.5546 -0.3177  0.1655
  101OSM    O1410162   3.236   4.177  10.786 -0.2553 -0.1101 -0.1358
  101OSM    O1110163   3.111   4.180  10.578  0.2823 -0.0687 -0.2527
  101OSM    O1210164   3.201   3.972  10.662  0.8510  0.0597 -0.4851
  101OSM    C1S10165   2.995   4.155  10.496  0.6060 -1.2505  0.1558
  101OSM    H1S10166   2.909   4.219  10.526 -0.7175 -1.4041 -3.1048
  101OSM    H1T10167   2.953   4.053  10.501 -1.2957 -0.4962  0.0634
  101OSM     NF10168   2.912   4.190  10.267 -0.0206 -0.2357 -0.0365
  101OSM    HNF10169   2.900   4.120  10.196 -0.4804 -3.1864  2.8225
  101OSM    C2S10170   3.033   4.187  10.349 -0.3304  0.2571  0.4737
  101OSM    H2S10171   3.080   4.288  10.352 -1.9582  1.0127  0.8624
  101OSM    C3S10172   3.141   4.085  10.300  0.1822 -0.4857  0.3184
  101OSM    H3S10173   3.109   3.979  10.310 -0.5802 -0.5096 -2.0801
  101OSM     O310174   3.259   4.110  10.380  0.0880 -0.0540 -0.8514
  101OSM    HO310175   3.224   4.151  10.460 -1.2609 -3.0341  0.1520
  101OSM    C4S10176   3.170   4.116  10.154  0.1074 -0.7246 -0.0012
  101OSM    H4S10177   3.098   4.065  10.088 -0.9086 -0.0487  0.5700
  101OSM    C5S10178   3.258   4.201  10.097  0.3742 -0.1897  0.4880
  101OSM    H5S10179   3.313   4.274  10.157 -0.3981  0.7794  0.0314
  101OSM    C6S10180   3.267   4.234   9.953 -0.5132 -0.0504 -0.1933
  101OSM    H6S10181   3.226   4.337   9.940  2.2324  1.2045  0.6198
  101OSM    H6T10182   3.202   4.172   9.888  2.0963 -0.3791 -2.5708
  101OSM    C7S10183   3.403   4.246   9.892 -0.0403 -0.4046 -0.0004
  101OSM    H7S10184   3.461   4.156   9.923  0.4428 -0.3153 -0.6236
  101OSM    H7T10185   3.462   4.329   9.935  0.7232 -1.1449  0.3894
  101OSM    C8S10186   3.419   4.265   9.740 -0.1128  0.1138 -0.6659
  101OSM    H8S10187   3.525   4.294   9.721  0.1486  0.5643  1.3670
  101OSM    H8T10188   3.370   4.359   9.705 -3.5326 -1.4833 -0.3815
  101OSM    C9S10189   3.366   4.163   9.641 -0.2630 -0.0248 -0.3096
  101OSM    H9S10190   3.264   4.130   9.669 -0.0895 -1.0370 -0.8552
  101OSM    H9T10191   3.427   4.071   9.648  0.9671  0.7795 -0.3595
  101OSM   C10S10192   3.373   4.223   9.496  0.4437 -0.0692 -0.7870
  101OSM   H10S10193   3.481   4.246   9.481  0.5255 -0.1328 -0.3227
  101OSM   H10T10194   3.310   4.314   9.496 -1.6964 -1.5105  0.2998
  101OSM   C11S10195   3.324   4.127   9.387 -0.7633 -0.0128 -0.7014
  101OSM   H11S10196   3.226   4.079   9.408 -0.6479 -0.9841 -2.2909
  101OSM   H11T10197   3.393   4.041   9.405 -3.1535 -1.6912  0.6352
  101OSM   C12S10198   3.322   4.179   9.248  0.9894  0.1098  0.4060
  101OSM   H12S10199   3.425   4.217   9.236  0.8032  0.2038 -0.9695
  101OSM   H12T10200   3.247   4.260   9.232 -0.0718 -1.1359 -1.1836
  101OSM   C13S10201   3.292   4.067   9.148  0.1005  0.9818  0.0681
  101OSM   H13S10202   3.196   4.016   9.173  0.8060 -1.4420 -2.0212
  101OSM   H13T10203   3.373   3.994   9.164 -0.7608  0.3922  1.8369
  101OSM   C14S10204   3.274   4.117   9.005  0.1506 -0.1695 -0.6282
  101OSM   H14S10205   3.243   4.221   9.026  1.2933 -0.0432  0.4877
  101OSM   H14T10206   3.201   4.063   8.941  2.7741 -1.6450 -2.4758
  101OSM   C15S10207   3.400   4.119   8.934  0.8142  0.8691  0.1890
  101OSM   H15S10208   3.434   4.014   8.942  1.8452  1.2806  1.6606
  101OSM   H15T10209   3.471   4.180   8.995 -1.4972  1.5380  2.2770
  101OSM   C16S10210   3.393   4.167   8.789  0.3662  0.1632 -0.0062
  101OSM   H16S10211   3.496   4.197   8.761  0.5980 -0.5277  0.0964
  101OSM   H16T10212   3.330   4.259   8.789 -2.6892 -1.8372  0.0429
  101OSM   C17S10213   3.336   4.069   8.687 -0.2075 -0.2061  0.1546
  101OSM   H17S10214   3.226   4.052   8.687 -0.2465  0.0379  0.5630
  101OSM   H17T10215   3.382   3.969   8.701 -1.1396 -0.6046  0.4138
  101OSM   C18S10216   3.348   4.129   8.545  0.0195  1.0772 -0.5465
  101OSM   H18S10217   3.298   4.063   8.471  0.7129  0.9826 -0.9324
  101OSM   H18T10218   3.454   4.141   8.517 -0.5192  2.5001 -2.0445
  101OSM   H18U10219   3.302   4.230   8.532 -1.3214  0.8454  1.9597
  101OSM    C1F10220   2.826   4.285  10.280  0.6531 -0.6156  0.3410
  101OSM     OF10221   2.851   4.393  10.331 -0.1794  0.4579 -0.2193
  101OSM    C2F10222   2.693   4.268  10.219  0.5460  0.3599  0.3098
  101OSM    H2F10223   2.666   4.161  10.228 -0.1368  0.5358  0.3487
  101OSM    H2G10224   2.713   4.289  10.111  0.0422 -0.8039 -0.0215
  101OSM    C3F10225   2.574   4.356  10.268 -0.7409 -0.0252  0.0503
  101OSM    H3F10226   2.616   4.456  10.295 -1.1041 -0.4685  2.3927
  101OSM    H3G10227   2.528   4.328  10.365 -2.6620 -1.0225 -1.1186
  101OSM    C4F10228   2.463   4.383  10.165 -0.6627 -0.0744  0.5062
  101OSM    H4F10229   2.511   4.435  10.080  0.9102 -0.3273  1.2185
  101OSM    H4G10230   2.377   4.433  10.213 -0.0141  1.2686  0.3023
  101OSM    C5F10231   2.388   4.261  10.099  0.0456  0.7431  0.3893
  101OSM    H5F10232   2.461   4.192  10.053  0.4485  2.4337 -1.5903
  101OSM    H5G10233   2.318   4.303  10.023 -0.1246  2.4872  1.4593
  101OSM    C6F10234   2.316   4.157  10.193 -0.0280  0.3436  0.2450
  101OSM    H6F10235   2.221   4.207  10.221 -0.0843  1.0034 -1.1002
  101OSM    H6G10236   2.374   4.154  10.288 -0.4356  2.0700  0.5523
  101OSM    C7F10237   2.304   4.013  10.143  0.1184 -0.3345  0.4518
  101OSM    H7F10238   2.248   3.952  10.217  0.9729 -1.1324  0.4471
  101OSM    H7G10239   2.407   3.976  10.127  1.1091  1.7612  1.8514
  101OSM    C8F10240   2.234   4.004  10.003 -0.9888  0.6915 -0.0962
  101OSM    H8F10241   2.246   3.899   9.969 -0.8682  1.5333 -2.7699
  101OSM    H8G10242   2.296   4.057   9.928 -1.3025  0.9994 -0.1409
  101OSM    C9F10243   2.094   4.036  10.023 -0.3480 -0.4752  0.7865
  101OSM    H9F10244   2.078   4.102  10.109  1.1767  1.8134 -0.6348
  101OSM   C10F10245   1.991   3.997   9.945 -0.1789 -0.4522 -0.2724
  101OSM   H10F10246   1.887   4.020   9.973 -0.1015  1.1554 -1.2362
  101OSM   C11F10247   1.981   3.909   9.822  0.7711  0.3562 -0.2287
  101OSM   H11F10248   1.879   3.902   9.778  0.1372 -0.8884  1.3592
  101OSM   H11G10249   2.028   3.812   9.851  2.2178  1.5117  1.4229
  101OSM   C12F10250   2.066   3.970   9.713  0.5291 -0.0885 -0.3529
  101OSM   H12F10251   2.085   3.901   9.629 -0.2488 -1.4788  0.5917
  101OSM   H12G10252   2.169   3.982   9.754  0.2415 -3.1121  1.3866
  101OSM   C13F10253   2.029   4.112   9.661 -0.1829  0.1261  1.6684
  101OSM   H13F10254   2.007   4.180   9.747 -0.4464  0.8284  1.0556
  101OSM   H13G10255   1.933   4.104   9.606  0.0198  0.6671  1.2234
  101OSM   C14F10256   2.135   4.191   9.582  0.4911  0.2590 -0.3921
  101OSM   H14F10257   2.164   4.136   9.490 -0.7455 -2.1026  0.5951
  101OSM   H14G10258   2.225   4.194   9.648 -0.6463 -0.6753  1.2178
  101OSM   C15F10259   2.091   4.336   9.541 -0.0719  0.1168 -0.2216
  101OSM   H15F10260   2.167   4.387   9.480  0.6532 -0.4546  0.1935
  101OSM   H15G10261   2.094   4.393   9.637  1.9805 -0.9293  0.3741
  101OSM   C16F10262   1.956   4.327   9.460 -0.0881  0.1012  0.5795
  101OSM   H16F10263   1.934   4.429   9.422  0.3851  0.0366  0.1347
  101OSM   H16G10264   1.871   4.302   9.528 -1.3489  1.8151 -0.3050
  101OSM   C17F10265   1.944   4.252   9.332 -0.5373 -0.7316 -0.2507
  101OSM   H17F10266   1.956   4.143   9.350  0.8737 -0.7645 -1.2766
  101OSM   H17G10267   2.023   4.272   9.256 -1.4430 -2.4202 -1.7002
  101OSM   C18F10268   1.809   4.278   9.256  0.0832  0.1206 -0.2260
  101OSM   H18F10269   1.797   4.388   9.242  1.2252  0.6449  2.5098
  101OSM   H18G10270   1.720   4.235   9.306 -1.2971 -0.7178 -3.2736
  101OSM   H18H10271   1.815   4.242   9.151 -0.5186 -3.0247  0.7847
  102OSM      N10272   2.740   3.301  10.742  0.0449  1.1217  0.0746
  102OSM    C1510273   2.713   3.383  10.862 -0.3504 -0.3502 -0.3621
  102OSM   H15A10274   2.690   3.486  10.835  1.2406 -0.0680 -0.6723
  102OSM   H15B10275   2.794   3.395  10.932 -0.8569  0.0116  0.1652
  102OSM   H15C10276   2.630   3.350  10.922  1.5501  1.2606  3.2866
  102OSM    C1410277   2.782   3.170  10.794 -0.1172  0.1252  0.0693
  102OSM   H14A10278   2.851   3.176  10.877  0.0008 -2.3221  0.1910
  102OSM   H14B10279   2.823   3.107  10.717 -0.3700  0.2951 -0.2012
  102OSM   H14C10280   2.692   3.121  10.828 -1.1243  2.7229  1.2667
  102OSM    C1310281   2.609   3.284  10.660  0.1560 -0.1827  0.3580
  102OSM   H13A10282   2.522   3.252  10.715  0.2975 -0.6986  0.2882
  102OSM   H13B10283   2.632   3.207  10.587  0.9886 -1.5421  2.0223
  102OSM   H13C10284   2.589   3.378  10.611  0.6525  0.2205  0.9273
  102OSM    C1210285   2.853   3.370  10.663  0.1603 -0.2912  0.0498
  102OSM   H12A10286   2.877   3.302  10.583 -0.5779 -0.9143  0.3421
  102OSM   H12B10287   2.940   3.372  10.727 -0.1203 -1.8422  0.5268
  102OSM    C1110288   2.830   3.511  10.597 -0.2722 -0.0855  0.1881
  102OSM   H11A10289   2.755   3.509  10.515 -0.7527  2.7003  0.5105
  102OSM   H11B10290   2.927   3.535  10.547 -0.4716 -1.5785 -0.9680
  102OSM      P10291   2.679   3.706  10.688  0.2366  0.1799  0.3423
  102OSM    O1310292   2.636   3.743  10.825  0.0426  0.2270  0.4377
  102OSM    O1410293   2.705   3.816  10.592  0.0930 -0.4382  0.7154
  102OSM    O1110294   2.573   3.605  10.620  0.5048  0.1123 -0.3762
  102OSM    O1210295   2.809   3.613  10.700 -0.0303 -0.1423 -0.5190
  102OSM    C1S10296   2.434   3.638  10.618  0.1719  0.0974 -0.8494
  102OSM    H1S10297   2.412   3.724  10.685  1.8898 -1.8500  2.3465
  102OSM    H1T10298   2.370   3.552  10.649 -0.5547  0.5812 -1.0062
  102OSM     NF10299   2.257   3.717  10.474  0.2218  0.2098  0.3667
  102OSM    HNF10300   2.179   3.657  10.457 -0.0364  0.8010 -0.5788
  102OSM    C2S10301   2.394   3.664  10.472  0.0408 -0.3021 -0.3575
  102OSM    H2S10302   2.460   3.744  10.433  1.1057 -1.1921 -0.3911
  102OSM    C3S10303   2.410   3.529  10.393 -0.3024 -0.3848  0.0324
  102OSM    H3S10304   2.328   3.465  10.431 -0.0733 -0.3580  0.5963
  102OSM     O310305   2.533   3.453  10.414 -0.3601  0.4715  0.2101
  102OSM    HO310306   2.565   3.499  10.492 -1.2228  2.3496 -0.5010
  102OSM    C4S10307   2.386   3.558  10.249  0.2379 -0.1804  0.1506
  102OSM    H4S10308   2.283   3.596  10.240  0.4529  0.4781  0.5135
  102OSM    C5S10309   2.472   3.574  10.142 -0.1976  0.3946 -0.3004
  102OSM    H5S10310   2.581   3.560  10.149 -0.1591  1.2482  1.1312
  102OSM    C6S10311   2.416   3.620  10.011 -0.0534  0.0195 -1.0114
  102OSM    H6S10312   2.487   3.594   9.930 -0.4900  1.1229 -1.7559
  102OSM    H6T10313   2.407   3.731  10.009 -0.1419  0.0439  0.3512
  102OSM    C7S10314   2.280   3.556   9.977 -0.3294  0.0362 -0.7493
  102OSM    H7S10315   2.197   3.585  10.045  0.8379  1.9646 -0.1269
  102OSM    H7T10316   2.278   3.446   9.992  1.6721  0.0944  0.0905
  102OSM    C8S10317   2.258   3.595   9.835  0.2068  0.1769 -0.3379
  102OSM    H8S10318   2.337   3.544   9.776  0.1723 -0.0977 -0.1498
  102OSM    H8T10319   2.258   3.704   9.816  1.8911  0.3674  0.6700
  102OSM    C9S10320   2.134   3.535   9.776  0.0514 -0.4613 -0.1373
  102OSM    H9S10321   2.047   3.567   9.838  0.1119 -1.1533  0.3119
  102OSM    H9T10322   2.128   3.425   9.790  1.4517 -0.8117 -2.1000
  102OSM   C10S10323   2.115   3.570   9.626 -0.5211  0.2980  0.2549
  102OSM   H10S10324   2.212   3.535   9.583 -0.7949  0.4173 -0.4807
  102OSM   H10T10325   2.122   3.681   9.624 -1.0801  0.3362  0.2593
  102OSM   C11S10326   1.988   3.500   9.562  0.0061 -0.9837  0.4509
  102OSM   H11S10327   1.993   3.393   9.590  1.9708 -1.6776 -2.4166
  102OSM   H11T10328   2.004   3.512   9.453  1.0709  0.4336  0.7549
  102OSM   C12S10329   1.848   3.556   9.603 -0.2560 -0.3526  0.2510
  102OSM   H12S10330   1.850   3.543   9.713  0.4345  1.3724  0.4421
  102OSM   H12T10331   1.762   3.505   9.553 -1.3719 -0.9022  2.6723
  102OSM   C13S10332   1.832   3.703   9.566 -0.8548 -0.1382 -0.5275
  102OSM   H13S10333   1.874   3.732   9.467  1.6993  0.6367  0.7291
  102OSM   H13T10334   1.896   3.764   9.634 -1.2337 -0.4348  0.1001
  102OSM   C14S10335   1.683   3.754   9.574 -0.1776 -0.4490 -0.0046
  102OSM   H14S10336   1.663   3.755   9.683  0.0810 -0.7713  0.0475
  102OSM   H14T10337   1.612   3.677   9.536  0.2713 -0.5117 -0.7208
  102OSM   C15S10338   1.664   3.898   9.517  0.6575  0.0816 -0.4917
  102OSM   H15S10339   1.758   3.957   9.526  0.7744 -0.3791  1.4651
  102OSM   H15T10340   1.582   3.945   9.576  0.9883  1.3080 -0.9902
  102OSM   C16S10341   1.606   3.896   9.376  0.2782  0.4078  0.7189
  102OSM   H16S10342   1.572   4.000   9.358  0.7545  0.6937  1.4348
  102OSM   H16T10343   1.524   3.821   9.370 -0.2943  0.9311  1.7587
  102OSM   C17S10344   1.695   3.853   9.254 -0.1183 -0.2368 -0.7533
  102OSM   H17S10345   1.690   3.742   9.245  0.7692 -0.3802  0.5021
  102OSM   H17T10346   1.797   3.893   9.271 -0.1370 -1.6362  3.0669
  102OSM   C18S10347   1.633   3.912   9.124 -0.2233  0.0505 -0.3975
  102OSM   H18S10348   1.524   3.896   9.131 -0.0896  0.0249  2.0097
  102OSM   H18T10349   1.677   3.840   9.052  2.6779  1.8490 -0.5079
  102OSM   H18U10350   1.677   4.013   9.106  3.1929 -0.9286  1.9764
  102OSM    C1F10351   2.237   3.849  10.502  0.5764 -0.8590  0.4016
  102OSM     OF10352   2.332   3.919  10.541 -0.1363 -0.0268 -0.3111
  102OSM    C2F10353   2.100   3.894  10.478  0.0705  0.4873 -0.5578
  102OSM    H2F10354   2.085   4.002  10.502  2.2854  0.5675  0.6567
  102OSM    H2G10355   2.043   3.840  10.557  1.2653  0.7819  0.5262
  102OSM    C3F10356   2.041   3.854  10.335  0.0535  0.0891 -0.2770
  102OSM    H3F10357   2.104   3.776  10.286  0.9083  0.2942  0.4879
  102OSM    H3G10358   2.071   3.947  10.282  0.1154  0.4007  0.3068
  102OSM    C4F10359   1.885   3.829  10.341 -0.2050 -0.3517  0.2268
  102OSM    H4F10360   1.842   3.903  10.412 -0.2469  1.4677 -1.6439
  102OSM    H4G10361   1.870   3.729  10.387  0.3823 -0.8566 -0.6453
  102OSM    C5F10362   1.798   3.833  10.218  0.9030  0.2015  0.0261
  102OSM    H5F10363   1.814   3.939  10.187  0.6967 -0.2913 -1.7730
  102OSM    H5G10364   1.694   3.817  10.252  1.4320 -1.9980  0.7171
  102OSM    C6F10365   1.826   3.725  10.106  0.8146 -0.6615 -0.0696
  102OSM    H6F10366   1.847   3.624  10.149  1.2726  0.1521  1.6589
  102OSM    H6G10367   1.919   3.743  10.048 -0.0544  0.9460 -0.9904
  102OSM    C7F10368   1.692   3.715  10.024  0.9390  0.1528 -0.1162
  102OSM    H7F10369   1.677   3.813   9.973  1.4531 -0.8491 -2.2378
  102OSM    H7G10370   1.603   3.706  10.090  0.0302  0.3866 -1.3071
  102OSM    C8F10371   1.695   3.589   9.932 -0.0519  0.0368 -0.2053
  102OSM    H8F10372   1.801   3.556   9.934 -0.3390 -0.9662 -1.1791
  102OSM    H8G10373   1.683   3.622   9.827  0.9318  0.5007 -0.1812
  102OSM    C9F10374   1.604   3.472   9.968 -0.5543  0.0892  0.0719
  102OSM    H9F10375   1.627   3.432  10.067 -1.5044  0.3306  0.3909
  102OSM   C10F10376   1.502   3.423   9.896 -0.4901  0.5071  0.4872
  102OSM   H10F10377   1.450   3.335   9.938  0.0456 -2.6616 -5.0284
  102OSM   C11F10378   1.452   3.469   9.760  0.4528 -0.4370 -0.6305
  102OSM   H11F10379   1.518   3.546   9.716 -1.6531  1.4181 -0.6064
  102OSM   H11G10380   1.357   3.525   9.774  0.4266 -0.8105  0.7831
  102OSM   C12F10381   1.447   3.355   9.656 -0.2495  0.1649  0.3804
  102OSM   H12F10382   1.362   3.285   9.669 -0.5560  0.9135  2.6597
  102OSM   H12G10383   1.530   3.282   9.664  0.9273  1.4018 -0.2936
  102OSM   C13F10384   1.429   3.411   9.514 -1.0980 -0.1689 -0.0864
  102OSM   H13F10385   1.519   3.452   9.463 -1.6658 -0.0401 -0.9923
  102OSM   H13G10386   1.350   3.488   9.522 -1.0231 -0.2019  0.9843
  102OSM   C14F10387   1.370   3.302   9.428 -0.2799 -0.0127  0.1776
  102OSM   H14F10388   1.285   3.257   9.485  0.0345  1.2666  1.6769
  102OSM   H14G10389   1.458   3.240   9.400 -1.8029 -1.1548 -2.3481
  102OSM   C15F10390   1.309   3.353   9.303 -0.4399  0.3472 -0.5461
  102OSM   H15F10391   1.387   3.420   9.261  0.7149 -1.9827 -2.1770
  102OSM   H15G10392   1.211   3.402   9.324 -0.9716 -1.5025  1.4856
  102OSM   C16F10393   1.293   3.238   9.201  0.1068  1.0882  0.0894
  102OSM   H16F10394   1.220   3.169   9.247  1.8522 -0.0694  1.1893
  102OSM   H16G10395   1.394   3.194   9.187  0.0613  0.5377  1.4440
  102OSM   C17F10396   1.250   3.285   9.063 -0.1580  0.4021  0.1738
  102OSM   H17F10397   1.312   3.366   9.018  1.4186 -0.4400  0.7601
  102OSM   H17G10398   1.150   3.331   9.056  0.4168  1.5261 -0.8755
  102OSM   C18F10399   1.256   3.168   8.964  0.0725 -0.1157 -0.5410
  102OSM   H18F10400   1.363   3.151   8.938  0.8316  0.7719  1.8877
  102OSM   H18G10401   1.197   3.192   8.873 -0.9097 -0.6524 -0.0522
  102OSM   H18H10402   1.224   3.070   9.007  2.1205 -0.5655  0.0129
  103OSM      N10403   4.337   6.451  11.140  0.7828 -0.1494  0.3214
  103OSM    C1510404   4.427   6.533  11.055  0.3395 -0.0747 -0.0470
  103OSM   H15A10405   4.518   6.484  11.023 -0.5730 -3.0042  1.7020
  103OSM   H15B10406   4.474   6.612  11.113  0.0583 -1.0780  1.5550
  103OSM   H15C10407   4.375   6.575  10.970 -1.4586  0.4906  1.3006
  103OSM    C1410408   4.398   6.417  11.268 -0.0304 -0.1981 -0.5380
  103OSM   H14A10409   4.499   6.382  11.251 -0.2437 -0.5592 -1.0774
  103OSM   H14B10410   4.336   6.343  11.317 -0.3240  0.2705 -0.2033
  103OSM   H14C10411   4.390   6.505  11.329  0.8945  0.9269 -1.9943
  103OSM    C1310412   4.218   6.543  11.175 -0.4469 -0.1462  0.2065
  103OSM   H13A10413   4.243   6.644  11.205 -2.8010  0.1185  1.4015
  103OSM   H13B10414   4.153   6.502  11.252  0.5821  1.7759  2.1548
  103OSM   H13C10415   4.153   6.552  11.089 -0.5212 -1.5558  0.1043
  103OSM    C1210416   4.292   6.320  11.073 -0.6212 -0.2958  0.6381
  103OSM   H12A10417   4.239   6.258  11.144 -0.7440 -1.5697 -0.5376
  103OSM   H12B10418   4.383   6.271  11.044  0.5014  1.0262  1.8275
  103OSM    C1110419   4.205   6.339  10.949 -0.8021 -0.5952 -0.4530
  103OSM   H11A10420   4.197   6.247  10.887 -2.1847 -0.2043 -0.8754
  103OSM   H11B10421   4.258   6.415  10.886  0.0502 -3.0818 -2.8492
  103OSM      P10422   3.972   6.266  11.040  0.3508  0.1665  0.2517
  103OSM    O1310423   4.038   6.146  11.098  0.5379 -1.1049 -0.2719
  103OSM    O1410424   3.874   6.332  11.126  0.3233 -0.2881  0.4111
  103OSM    O1110425   3.907   6.223  10.904 -0.7592 -0.3738 -0.8301
  103OSM    O1210426   4.074   6.379  11.000  0.1183 -0.1041  0.1993
  103OSM    C1S10427   3.836   6.308  10.814  0.1827 -0.9748  0.4832
  103OSM    H1S10428   3.825   6.413  10.848  0.3225 -0.2281 -1.7063
  103OSM    H1T10429   3.731   6.275  10.822 -0.4558  0.6967 -0.8319
  103OSM     NF10430   3.804   6.390  10.580  0.5020 -0.0579 -0.2979
  103OSM    HNF10431   3.720   6.340  10.561  1.5247 -1.2858 -1.6689
  103OSM    C2S10432   3.891   6.310  10.665  0.6070  0.8862 -0.7967
  103OSM    H2S10433   3.994   6.351  10.671  0.7805  0.1112  1.8894
  103OSM    C3S10434   3.900   6.160  10.617 -0.7434  0.6623  0.4646
  103OSM    H3S10435   3.798   6.118  10.620 -0.8603  0.8117 -1.2532
  103OSM     O310436   3.987   6.079  10.699  0.2012 -0.4287 -0.5819
  103OSM    HO310437   3.983   6.117  10.787  1.4001  0.8008 -1.0343
  103OSM    C4S10438   3.955   6.155  10.473  0.4037 -0.3096  0.2164
  103OSM    H4S10439   4.062   6.129  10.467  0.9065  1.8811 -0.7791
  103OSM    C5S10440   3.888   6.170  10.362  0.1064 -0.8448  0.2505
  103OSM    H5S10441   3.783   6.203  10.365  0.7280  1.1619  1.1209
  103OSM    C6S10442   3.957   6.154  10.226  0.1463  0.3514 -0.3797
  103OSM    H6S10443   3.910   6.063  10.181 -2.1314  0.7109  1.2346
  103OSM    H6T10444   4.067   6.141  10.237  0.5308  2.1331 -1.9053
  103OSM    C7S10445   3.939   6.254  10.122  0.4631  0.0110  0.5447
  103OSM    H7S10446   3.989   6.344  10.165  0.3624  0.7754 -0.8944
  103OSM    H7T10447   3.833   6.280  10.104 -0.0219 -1.9342  0.5287
  103OSM    C8S10448   4.007   6.212   9.990  0.1177 -0.0377 -0.6108
  103OSM    H8S10449   3.954   6.120   9.960 -0.9782  0.9473 -1.7284
  103OSM    H8T10450   4.116   6.199  10.009  0.4436  1.6726 -1.1949
  103OSM    C9S10451   3.993   6.318   9.873  0.3892 -0.7547  0.6590
  103OSM    H9S10452   4.040   6.415   9.900  0.6374 -1.5365  3.1778
  103OSM    H9T10453   3.886   6.348   9.878  0.4072 -0.2716 -1.5870
  103OSM   C10S10454   4.034   6.267   9.740  0.4890  0.2791  0.2173
  103OSM   H10S10455   4.005   6.160   9.737  3.3425 -0.5293 -0.2504
  103OSM   H10T10456   4.142   6.264   9.713  0.3620 -1.3192 -0.1362
  103OSM   C11S10457   3.985   6.357   9.624 -0.5603 -0.3309  0.5969
  103OSM   H11S10458   3.888   6.401   9.654 -0.7734  0.8045 -1.6674
  103OSM   H11T10459   3.972   6.300   9.530  1.8732  0.5013 -0.3044
  103OSM   C12S10460   4.081   6.474   9.584  0.1672 -0.7116  0.4069
  103OSM   H12S10461   4.188   6.447   9.591  0.0667 -1.0029  0.8740
  103OSM   H12T10462   4.073   6.542   9.671  1.6106  0.0730 -0.0596
  103OSM   C13S10463   4.039   6.547   9.458  0.1791  0.3855 -0.2931
  103OSM   H13S10464   4.083   6.648   9.443 -1.4031  1.1300  0.0028
  103OSM   H13T10465   3.931   6.573   9.453 -0.4055 -1.7784  0.4944
  103OSM   C14S10466   4.043   6.469   9.327  0.6701  0.4447 -0.0205
  103OSM   H14S10467   3.971   6.387   9.311  0.4325  1.1003 -2.3967
  103OSM   H14T10468   4.142   6.420   9.308 -0.0824 -2.3770  2.7957
  103OSM   C15S10469   4.018   6.554   9.201  0.2991  0.1738 -0.0162
  103OSM   H15S10470   4.082   6.644   9.217  1.3531 -0.6663  0.5732
  103OSM   H15T10471   3.914   6.592   9.197 -0.5358 -1.9827  0.7962
  103OSM   C16S10472   4.059   6.489   9.067  0.7359  0.4541 -0.6482
  103OSM   H16S10473   4.063   6.382   9.098 -0.7071  0.3574 -0.7336
  103OSM   H16T10474   4.149   6.543   9.033  1.5636 -1.0757 -0.9215
  103OSM   C17S10475   3.938   6.500   8.966  0.1953  0.3423 -0.1651
  103OSM   H17S10476   3.919   6.609   8.963 -0.7786  0.1851  0.1868
  103OSM   H17T10477   3.847   6.458   9.014  1.0586  0.8684  1.9854
  103OSM   C18S10478   3.972   6.440   8.829 -0.0661  0.3341 -0.9804
  103OSM   H18S10479   4.074   6.470   8.797 -0.0599 -1.0193 -2.2944
  103OSM   H18T10480   3.907   6.480   8.749 -0.3026  1.3941 -0.2729
  103OSM   H18U10481   3.971   6.329   8.821  1.8948  0.3337 -1.5600
  103OSM    C1F10482   3.823   6.521  10.577  0.2895  0.2345  0.1411
  103OSM     OF10483   3.906   6.569  10.648  0.0593 -0.4691 -0.3683
  103OSM    C2F10484   3.726   6.600  10.495  0.1202 -0.2798  0.4244
  103OSM    H2F10485   3.759   6.706  10.493 -0.8925  0.0219 -1.7496
  103OSM    H2G10486   3.627   6.603  10.546 -0.7701  0.7548 -1.3197
  103OSM    C3F10487   3.701   6.573  10.345  0.0166 -0.8072 -0.1657
  103OSM    H3F10488   3.600   6.615  10.328  0.8337  1.2513 -0.1122
  103OSM    H3G10489   3.706   6.467  10.313 -1.6762  0.1164 -3.6302
  103OSM    C4F10490   3.796   6.657  10.258 -0.6093  0.0379  0.4668
  103OSM    H4F10491   3.899   6.624  10.283 -1.4606 -2.7332  0.5941
  103OSM    H4G10492   3.782   6.765  10.280  1.0771  0.2069  0.7860
  103OSM    C5F10493   3.773   6.647  10.108  0.4411  0.1315  0.7417
  103OSM    H5F10494   3.679   6.692  10.073  1.0692  1.1862  0.3975
  103OSM    H5G10495   3.767   6.543  10.068  0.3104  0.6829 -0.6977
  103OSM    C6F10496   3.897   6.707  10.032 -0.5508  0.2141  0.5449
  103OSM    H6F10497   3.989   6.666  10.080 -0.2518  0.5481  0.2534
  103OSM    H6G10498   3.882   6.816  10.043 -0.3862  0.5832 -2.4830
  103OSM    C7F10499   3.902   6.678   9.882 -0.4411 -1.0440 -0.6431
  103OSM    H7F10500   3.863   6.576   9.858 -0.5971 -0.8042 -1.4078
  103OSM    H7G10501   4.010   6.679   9.855  0.3605  1.2605  2.4527
  103OSM    C8F10502   3.833   6.790   9.800 -1.1177 -0.1913  0.3493
  103OSM    H8F10503   3.745   6.798   9.868 -0.4832 -3.2252  1.6194
  103OSM    H8G10504   3.801   6.740   9.707 -0.9330  0.6289 -0.1542
  103OSM    C9F10505   3.919   6.920   9.790  0.1779 -0.4871 -0.2459
  103OSM    H9F10506   3.964   6.963   9.881  0.1797  0.7871 -0.8409
  103OSM   C10F10507   3.953   6.983   9.678 -0.1379 -0.0309 -0.0626
  103OSM   H10F10508   4.013   7.075   9.678  1.8771 -1.3165  0.5765
  103OSM   C11F10509   3.918   6.945   9.538  0.0961  0.2279  0.0135
  103OSM   H11F10510   3.833   7.012   9.513  1.1598  1.1161 -1.2464
  103OSM   H11G10511   3.879   6.841   9.528 -0.2405  0.3748 -0.2034
  103OSM   C12F10512   4.029   6.996   9.438 -0.0268 -0.4200 -0.2194
  103OSM   H12F10513   4.125   6.957   9.477 -0.0570 -0.2934 -0.0155
  103OSM   H12G10514   4.029   7.106   9.455  2.3700 -0.6454  1.4613
  103OSM   C13F10515   4.002   6.954   9.293 -0.1049 -0.2326  0.4873
  103OSM   H13F10516   3.995   6.843   9.290 -0.2776 -0.1748 -2.1519
  103OSM   H13G10517   3.899   6.982   9.263  0.2484  0.0894 -0.4225
  103OSM   C14F10518   4.093   7.012   9.186 -0.2745  0.5969 -0.1034
  103OSM   H14F10519   4.199   6.977   9.190 -1.0259 -2.1829 -2.3102
  103OSM   H14G10520   4.095   7.121   9.204 -1.3119  0.6587 -0.3392
  103OSM   C15F10521   4.052   6.998   9.040  0.1555  0.4971  0.1818
  103OSM   H15F10522   3.941   7.005   9.040  0.0400 -0.8894 -1.0596
  103OSM   H15G10523   4.072   6.891   9.014  0.1054  0.0083  2.0563
  103OSM   C16F10524   4.117   7.087   8.933 -0.3525  0.3532 -0.0872
  103OSM   H16F10525   4.220   7.068   8.897 -0.0488  1.7953 -0.0233
  103OSM   H16G10526   4.117   7.190   8.976  0.0774  0.6556 -0.8084
  103OSM   C17F10527   4.040   7.068   8.799 -0.2912  0.0593 -0.2576
  103OSM   H17F10528   4.066   7.156   8.736  1.7323  1.3581  2.2814
  103OSM   H17G10529   3.936   7.090   8.831 -0.0731  1.4413 -0.4484
  103OSM   C18F10530   4.058   6.928   8.736  0.0782  0.7322 -0.2598
  103OSM   H18F10531   3.981   6.909   8.659  1.7383 -1.0659 -1.5100
  103OSM   H18G10532   4.041   6.847   8.810 -1.6238  0.6053 -0.7602
  103OSM   H18H10533   4.165   6.913   8.709 -0.2286 -1.4752 -0.3247
  104OSM      N10534   1.132   6.046  10.733 -0.4863 -0.7108 -0.2962
  104OSM    C1510535   1.035   6.149  10.692 -0.0526  0.1987 -0.3383
  104OSM   H15A10536   1.000   6.199  10.782  0.1231 -1.4335  0.6662
  104OSM   H15B10537   0.955   6.103  10.636 -1.6424  0.4976  1.6379
  104OSM   H15C10538   1.081   6.227  10.634  0.9578 -0.2056 -0.0938
  104OSM    C1410539   1.231   6.124  10.830 -0.6381  0.7636  0.2448
  104OSM   H14A10540   1.287   6.196  10.771  2.7328 -1.4874  0.5345
  104OSM   H14B10541   1.298   6.055  10.878 -0.7395  0.6482  0.2179
  104OSM   H14C10542   1.168   6.176  10.900 -1.3424  0.8432 -0.4370
  104OSM    C1310543   1.054   5.945  10.805 -0.0472 -0.0832 -0.2618
  104OSM   H13A10544   1.002   5.980  10.892 -1.8522 -2.2853 -0.3962
  104OSM   H13B10545   1.126   5.868  10.828 -1.2814 -1.1732  0.0181
  104OSM   H13C10546   0.977   5.900  10.745 -1.0322 -1.3022  1.8602
  104OSM    C1210547   1.217   5.991  10.618 -0.2716  0.9368  0.3283
  104OSM   H12A10548   1.272   6.073  10.574 -0.9189  0.0427 -2.2992
  104OSM   H12B10549   1.154   5.951  10.540  0.9944  0.3055 -0.3928
  104OSM    C1110550   1.330   5.882  10.645 -1.0251  0.1944  0.0089
  104OSM   H11A10551   1.403   5.929  10.715  0.2276  0.0251 -1.1571
  104OSM   H11B10552   1.388   5.869  10.551 -1.3268  2.5131 -0.5217
  104OSM      P10553   1.221   5.644  10.618 -0.5072 -0.5290 -0.0851
  104OSM    O1310554   1.321   5.542  10.594  0.0437  0.6441  0.2558
  104OSM    O1410555   1.096   5.602  10.688 -0.5191 -0.2922  0.3280
  104OSM    O1110556   1.177   5.715  10.480  0.2052  0.0027 -0.6365
  104OSM    O1210557   1.284   5.761  10.697 -0.0762  0.1829 -0.4405
  104OSM    C1S10558   1.036   5.730  10.455  0.7085  0.0310 -0.0643
  104OSM    H1S10559   0.990   5.809  10.518  1.8969  1.1764 -0.5988
  104OSM    H1T10560   0.972   5.640  10.467 -0.7536  1.3853  2.5803
  104OSM     NF10561   0.893   5.854  10.286 -0.3993  0.2685 -0.0095
  104OSM    HNF10562   0.804   5.818  10.259 -0.7529  2.1578 -1.4428
  104OSM    C2S10563   1.008   5.772  10.301 -0.4221 -0.3816  0.1314
  104OSM    H2S10564   1.097   5.835  10.278  0.9983 -1.6019  2.1291
  104OSM    C3S10565   1.007   5.652  10.208  0.2127 -0.1410  0.0143
  104OSM    H3S10566   0.924   5.587  10.242 -0.3543  1.1409  1.1676
  104OSM     O310567   1.126   5.574  10.221 -0.0871 -0.2452  0.0160
  104OSM    HO310568   1.176   5.622  10.287  1.9415  0.3860 -1.9014
  104OSM    C4S10569   0.979   5.702  10.066  0.2205  0.2529 -0.3182
  104OSM    H4S10570   0.880   5.685  10.020  0.4229 -0.7647 -0.3743
  104OSM    C5S10571   1.073   5.757   9.985  0.4762  0.0028  0.1361
  104OSM    H5S10572   1.178   5.764  10.019  0.7471 -0.0798 -0.6725
  104OSM    C6S10573   1.035   5.803   9.845 -0.0318 -0.4469  0.3279
  104OSM    H6S10574   1.073   5.727   9.774  1.4413  0.2448  0.3460
  104OSM    H6T10575   1.096   5.895   9.829 -0.4598 -0.3534 -0.8330
  104OSM    C7S10576   0.891   5.851   9.807 -0.7948  0.3999  0.3137
  104OSM    H7S10577   0.845   5.908   9.890 -1.3300 -1.6347  1.4443
  104OSM    H7T10578   0.829   5.759   9.797  1.9114 -1.4094 -0.4590
  104OSM    C8S10579   0.889   5.925   9.671  0.9705  0.3630 -0.3903
  104OSM    H8S10580   0.973   5.998   9.666  2.1704 -0.9005  0.7637
  104OSM    H8T10581   0.798   5.985   9.650 -0.0528 -1.1088 -0.1891
  104OSM    C9S10582   0.908   5.838   9.548 -0.6125  0.1612  0.4273
  104OSM    H9S10583   0.839   5.751   9.537  1.3718 -1.3369 -0.4495
  104OSM    H9T10584   1.006   5.789   9.563  1.3069  4.2143  1.9206
  104OSM   C10S10585   0.898   5.921   9.418 -0.6076 -0.1709  1.2662
  104OSM   H10S10586   0.978   5.997   9.430  0.2676 -1.0085  0.7678
  104OSM   H10T10587   0.803   5.973   9.391 -0.2703 -0.9977 -1.6234
  104OSM   C11S10588   0.934   5.834   9.297 -0.5906  0.0362  0.2031
  104OSM   H11S10589   0.879   5.739   9.314 -0.0555 -0.5042 -1.0403
  104OSM   H11T10590   1.040   5.804   9.286 -0.8712 -1.9753  2.5210
  104OSM   C12S10591   0.869   5.882   9.164  0.1434  0.2450 -0.4945
  104OSM   H12S10592   0.760   5.897   9.175  0.5270  1.4660  1.9956
  104OSM   H12T10593   0.880   5.806   9.083 -0.3596 -0.1492 -0.1896
  104OSM   C13S10594   0.939   6.005   9.110  0.0367  0.3133  0.7257
  104OSM   H13S10595   1.045   6.002   9.141  0.1269 -1.2182  0.2884
  104OSM   H13T10596   0.900   6.090   9.170  0.2448 -0.6426  2.2157
  104OSM   C14S10597   0.916   6.030   8.961  0.2241  0.1532 -0.1928
  104OSM   H14S10598   0.961   5.947   8.902 -1.7742 -0.0294 -1.5057
  104OSM   H14T10599   0.966   6.126   8.934 -1.0393  1.0851  0.6975
  104OSM   C15S10600   0.772   6.037   8.917  0.2643 -0.0383  0.6092
  104OSM   H15S10601   0.730   6.130   8.961  0.8132  0.1894  0.6604
  104OSM   H15T10602   0.716   5.954   8.965 -0.5710 -0.0542 -0.3869
  104OSM   C16S10603   0.740   6.045   8.766  0.8061  0.7882  0.1339
  104OSM   H16S10604   0.798   6.126   8.716  0.2985  0.2956 -1.2452
  104OSM   H16T10605   0.630   6.060   8.759  0.1552 -2.2905  2.6979
  104OSM   C17S10606   0.764   5.920   8.683  0.4503  0.0454 -0.4734
  104OSM   H17S10607   0.716   5.828   8.723  0.3292 -0.2700 -1.3357
  104OSM   H17T10608   0.873   5.901   8.677  0.4329 -0.1983 -0.0011
  104OSM   C18S10609   0.715   5.937   8.542 -0.1929  0.7482 -0.1716
  104OSM   H18S10610   0.760   6.025   8.491  1.5241  0.6591  1.1498
  104OSM   H18T10611   0.605   5.951   8.536 -0.3585  0.0783  1.1325
  104OSM   H18U10612   0.730   5.843   8.484  0.8103  1.4492 -1.0709
  104OSM    C1F10613   0.902   5.976  10.340 -0.6991  0.0596 -0.1575
  104OSM     OF10614   1.012   6.027  10.363  0.0770  0.4141 -0.0995
  104OSM    C2F10615   0.772   6.040  10.391 -0.0249  0.0556 -0.1228
  104OSM    H2F10616   0.777   6.149  10.369  1.5535  0.0721  0.2913
  104OSM    H2G10617   0.760   6.015  10.498 -2.4759  2.1620  0.1392
  104OSM    C3F10618   0.641   5.996  10.320  0.5805 -0.4150 -0.3616
  104OSM    H3F10619   0.560   6.045  10.378 -0.1658 -1.5631 -0.4349
  104OSM    H3G10620   0.618   5.888  10.331  1.5164 -0.9210 -2.9396
  104OSM    C4F10621   0.631   6.022  10.164  0.1733  0.0830 -0.2987
  104OSM    H4F10622   0.522   6.024  10.144  0.4034  4.2689 -1.5871
  104OSM    H4G10623   0.676   5.941  10.103 -1.2765 -1.5138  0.7057
  104OSM    C5F10624   0.684   6.157  10.114  0.0688  0.4881  0.1097
  104OSM    H5F10625   0.794   6.166  10.122  0.4754 -2.0637 -1.6647
  104OSM    H5G10626   0.647   6.236  10.182  0.2005  0.4707  0.2000
  104OSM    C6F10627   0.636   6.180   9.974 -0.2155 -0.5289  0.0618
  104OSM    H6F10628   0.525   6.188   9.976 -0.1617  0.0048  1.7326
  104OSM    H6G10629   0.649   6.088   9.913 -3.2667 -1.7968  1.2218
  104OSM    C7F10630   0.693   6.306   9.897 -0.1779  0.6871 -0.7744
  104OSM    H7F10631   0.799   6.297   9.865 -0.5361  0.4389 -1.9021
  104OSM    H7G10632   0.683   6.381   9.979 -1.0635 -2.1861  1.8691
  104OSM    C8F10633   0.607   6.350   9.769  0.2410 -0.0486 -0.5127
  104OSM    H8F10634   0.655   6.449   9.756  0.6498  0.2363  2.6527
  104OSM    H8G10635   0.505   6.372   9.807 -0.2084 -1.6627 -0.7443
  104OSM    C9F10636   0.611   6.245   9.663  0.0880 -0.9420 -0.4868
  104OSM    H9F10637   0.530   6.171   9.668 -1.2278  0.3791 -1.7816
  104OSM   C10F10638   0.700   6.227   9.569 -0.1661  0.4738 -0.2015
  104OSM   H10F10639   0.703   6.142   9.500 -0.0918  0.3584 -0.0556
  104OSM   C11F10640   0.817   6.316   9.538 -0.1449 -0.6296  0.6666
  104OSM   H11F10641   0.916   6.267   9.555 -0.1326 -0.7291  0.2994
  104OSM   H11G10642   0.819   6.403   9.606  0.5647  0.8008 -1.1575
  104OSM   C12F10643   0.818   6.371   9.395 -0.2203  0.1376  0.0166
  104OSM   H12F10644   0.831   6.284   9.327 -3.1387 -1.3301  1.2606
  104OSM   H12G10645   0.899   6.446   9.379  1.4448 -1.2736  1.6493
  104OSM   C13F10646   0.708   6.470   9.350 -0.1097  0.4384 -0.6331
  104OSM   H13F10647   0.716   6.549   9.428  1.5261 -0.0346 -0.2983
  104OSM   H13G10648   0.615   6.411   9.358  0.0938  0.0401 -1.1738
  104OSM   C14F10649   0.739   6.533   9.214 -0.1954  0.1833 -0.2700
  104OSM   H14F10650   0.849   6.528   9.199 -0.1052 -1.7295  0.9229
  104OSM   H14G10651   0.707   6.640   9.208 -2.3837 -0.4156  0.1741
  104OSM   C15F10652   0.686   6.459   9.090  0.1458 -0.0783  0.1099
  104OSM   H15F10653   0.575   6.460   9.100  0.2518  2.0291  1.1813
  104OSM   H15G10654   0.716   6.353   9.108 -1.7143 -0.2874  2.3196
  104OSM   C16F10655   0.740   6.511   8.951  0.1598  0.3142 -0.1991
  104OSM   H16F10656   0.851   6.516   8.957  0.2463 -1.3835 -0.0389
  104OSM   H16G10657   0.710   6.615   8.926  0.7495  0.2194 -1.3669
  104OSM   C17F10658   0.699   6.419   8.835  0.9290  0.3965  0.8162
  104OSM   H17F10659   0.591   6.396   8.848  1.2758 -0.9834  1.2960
  104OSM   H17G10660   0.760   6.327   8.845  1.6367  0.7501 -0.1910
  104OSM   C18F10661   0.713   6.482   8.696 -0.1414 -0.9002 -0.4707
  104OSM   H18F10662   0.633   6.555   8.674  1.1806  0.8710  0.5264
  104OSM   H18G10663   0.710   6.399   8.621 -1.2913  2.0105 -3.7778
  104OSM   H18H10664   0.814   6.528   8.693  0.3909 -2.0877 -1.1018
  105OSM      N10665   1.103   5.162  11.049  0.2564  0.0477 -0.0512
  105OSM    C1510666   1.242   5.112  11.024 -0.2910  0.5442  0.0737
  105OSM   H15A10667   1.275   5.159  10.933 -1.5902 -0.2383 -0.8204
  105OSM   H15B10668   1.255   5.007  11.001  3.1627  0.9667 -0.2118
  105OSM   H15C10669   1.306   5.139  11.107 -1.9360  1.3353  1.0850
  105OSM    C1410670   1.054   5.104  11.179  0.1774  0.1045 -0.0312
  105OSM   H14A10671   1.118   5.135  11.260  1.0716 -2.5937  0.3476
  105OSM   H14B10672   1.056   4.996  11.180 -0.5935  0.0859  0.1300
  105OSM   H14C10673   0.960   5.149  11.209  2.0375  2.3289  2.6873
  105OSM    C1310674   1.126   5.305  11.069  0.5121 -0.1079  0.0641
  105OSM   H13A10675   1.031   5.357  11.068 -0.6616 -2.1769 -1.5433
  105OSM   H13B10676   1.195   5.346  10.997  0.3378  2.3286  1.2376
  105OSM   H13C10677   1.163   5.338  11.164 -0.9309 -0.1340  0.6474
  105OSM    C1210678   1.015   5.139  10.935  0.2004 -0.3244 -0.2689
  105OSM   H12A10679   0.924   5.192  10.955  0.9380  0.3213  1.4995
  105OSM   H12B10680   0.986   5.037  10.915 -1.9835  0.0829  0.7439
  105OSM    C1110681   1.062   5.208  10.801  0.4542 -0.6602  0.6540
  105OSM   H11A10682   1.071   5.319  10.802  0.2380 -0.6500  1.7890
  105OSM   H11B10683   0.968   5.200  10.742  0.3476  0.4040  0.6666
  105OSM      P10684   1.157   5.037  10.622 -0.2422 -0.4848 -0.2039
  105OSM    O1310685   1.289   4.992  10.566  0.1430 -0.0963  0.5013
  105OSM    O1410686   1.065   4.936  10.679  0.4829  0.2482 -0.1875
  105OSM    O1110687   1.077   5.116  10.509 -0.2098 -0.2543  0.2926
  105OSM    O1210688   1.177   5.152  10.740  0.1135 -0.4503  0.2913
  105OSM    C1S10689   1.149   5.213  10.429  0.4653  0.2552 -0.1982
  105OSM    H1S10690   1.259   5.216  10.440  0.4983 -1.2628  0.0035
  105OSM    H1T10691   1.120   5.319  10.446  0.3868  0.3796 -1.0464
  105OSM     NF10692   1.199   5.283  10.206 -0.2128  0.5460  0.8196
  105OSM    HNF10693   1.164   5.369  10.170  1.1570 -0.2138 -2.5083
  105OSM    C2S10694   1.118   5.194  10.274 -0.2823  0.2002  0.2078
  105OSM    H2S10695   1.133   5.090  10.238 -0.4002 -0.7879  2.8538
  105OSM    C3S10696   0.973   5.230  10.240  0.1179 -0.6146  0.1707
  105OSM    H3S10697   0.946   5.337  10.254 -2.1967 -1.1647  0.0360
  105OSM     O310698   0.884   5.154  10.323 -0.2965  0.4297  0.0707
  105OSM    HO310699   0.941   5.130  10.396 -0.1009  3.3612  0.9061
  105OSM    C4S10700   0.944   5.205  10.100  0.4469 -0.3417  0.7956
  105OSM    H4S10701   0.968   5.105  10.061  0.7987  0.1079 -0.1602
  105OSM    C5S10702   0.906   5.296  10.004 -0.0858 -0.0147  0.4888
  105OSM    H5S10703   0.891   5.400  10.036  0.6126 -0.5914  2.8021
  105OSM    C6S10704   0.899   5.265   9.857 -0.5884  0.1672  0.6364
  105OSM    H6S10705   0.798   5.275   9.814 -0.2352 -0.2299 -0.2972
  105OSM    H6T10706   0.943   5.164   9.845 -1.0547 -0.6325  4.8616
  105OSM    C7S10707   0.985   5.370   9.776 -0.6799  0.0494 -0.4380
  105OSM    H7S10708   1.092   5.351   9.801 -0.3562  0.8929 -1.1512
  105OSM    H7T10709   0.958   5.476   9.796  0.6795  0.0202  1.7366
  105OSM    C8S10710   0.977   5.361   9.625 -0.0775  0.0646  0.6638
  105OSM    H8S10711   0.875   5.395   9.597 -1.2317 -0.2940  4.1605
  105OSM    H8T10712   0.991   5.254   9.600  2.1015  0.5187 -0.1914
  105OSM    C9S10713   1.090   5.439   9.548  0.7108 -0.0183  0.1257
  105OSM    H9S10714   1.189   5.390   9.559  1.1517  0.5677 -1.0828
  105OSM    H9T10715   1.102   5.542   9.590  0.5520 -0.8082  2.1594
  105OSM   C10S10716   1.040   5.457   9.404 -0.2638 -0.4935  0.2413
  105OSM   H10S10717   1.123   5.519   9.364 -1.2832  1.5256  1.1660
  105OSM   H10T10718   0.955   5.529   9.409  1.2010  1.1852  1.5435
  105OSM   C11S10719   1.014   5.326   9.327  0.1029 -0.2786 -0.1146
  105OSM   H11S10720   0.926   5.281   9.379  0.5548 -0.6998  0.2992
  105OSM   H11T10721   1.109   5.274   9.354  1.8567  1.9223 -1.8142
  105OSM   C12S10722   1.005   5.341   9.179  0.8032  0.2650  0.3187
  105OSM   H12S10723   1.000   5.242   9.129  1.6782 -0.5724  1.8583
  105OSM   H12T10724   1.090   5.402   9.144 -0.6558  0.1883 -3.5567
  105OSM   C13S10725   0.875   5.410   9.131 -0.4580 -0.9091  0.0710
  105OSM   H13S10726   0.872   5.509   9.182 -0.9878 -0.5120 -0.7271
  105OSM   H13T10727   0.783   5.355   9.160 -0.0223 -0.6043  2.1344
  105OSM   C14S10728   0.880   5.443   8.975  0.8124  0.1779 -0.3688
  105OSM   H14S10729   0.905   5.352   8.918 -4.3981 -1.1391 -0.8335
  105OSM   H14T10730   0.955   5.524   8.964  2.4273 -1.3898 -1.0719
  105OSM   C15S10731   0.747   5.493   8.920 -0.5486  0.7515  0.0621
  105OSM   H15S10732   0.724   5.595   8.957  0.3601  1.1674 -0.4956
  105OSM   H15T10733   0.664   5.428   8.957  0.1607 -2.1940 -3.2693
  105OSM   C16S10734   0.760   5.485   8.766  0.3938 -0.3365  0.3578
  105OSM   H16S10735   0.780   5.380   8.736  2.9757  0.5183 -1.0822
  105OSM   H16T10736   0.846   5.552   8.745  0.3059 -1.0172 -2.3421
  105OSM   C17S10737   0.632   5.537   8.695  0.2409  0.4914  0.0313
  105OSM   H17S10738   0.606   5.642   8.719  0.2229  0.3298  0.7388
  105OSM   H17T10739   0.544   5.472   8.713 -1.1503  2.3231 -0.0319
  105OSM   C18S10740   0.654   5.538   8.546  0.4412  0.9048 -0.0330
  105OSM   H18S10741   0.592   5.608   8.486  1.0279  1.5655  0.1187
  105OSM   H18T10742   0.662   5.439   8.497 -0.0367 -0.1185  1.9087
  105OSM   H18U10743   0.753   5.588   8.536  0.5686  0.7409  0.4116
  105OSM    C1F10744   1.327   5.259  10.183 -0.3293 -0.0568  0.6819
  105OSM     OF10745   1.378   5.152  10.210  0.7458 -0.1882 -0.4750
  105OSM    C2F10746   1.415   5.375  10.135 -1.0306  0.6721  0.7214
  105OSM    H2F10747   1.520   5.341  10.123 -0.3269  2.0687  2.6625
  105OSM    H2G10748   1.413   5.461  10.204 -0.0758  1.0804  0.2443
  105OSM    C3F10749   1.358   5.428   9.996 -0.2998 -0.3613 -0.1117
  105OSM    H3F10750   1.253   5.464  10.005  0.0160  0.4770  0.2187
  105OSM    H3G10751   1.355   5.345   9.922  0.8681 -0.4668 -0.0414
  105OSM    C4F10752   1.443   5.548   9.943 -0.7436 -0.1435  0.1924
  105OSM    H4F10753   1.550   5.520   9.934 -0.1238  2.7822 -2.5096
  105OSM    H4G10754   1.434   5.633  10.014  1.1801 -0.4946  0.9031
  105OSM    C5F10755   1.391   5.602   9.808  0.0705  0.1996  0.4003
  105OSM    H5F10756   1.286   5.638   9.816 -0.3013 -0.9569  0.7455
  105OSM    H5G10757   1.383   5.516   9.738 -2.0337 -0.2464  1.1363
  105OSM    C6F10758   1.473   5.709   9.743 -0.8591 -0.4324  0.0710
  105OSM    H6F10759   1.567   5.654   9.719  0.5843  0.7971  2.6311
  105OSM    H6G10760   1.500   5.793   9.811  0.1304 -1.0064  0.4163
  105OSM    C7F10761   1.404   5.759   9.613  0.1814 -0.5492 -0.0260
  105OSM    H7F10762   1.468   5.847   9.594  0.5947 -0.7146  0.5762
  105OSM    H7G10763   1.303   5.792   9.646 -0.7085  0.0294 -3.2174
  105OSM    C8F10764   1.391   5.651   9.506  0.7895 -0.1999 -0.2684
  105OSM    H8F10765   1.323   5.569   9.537  0.8614  0.4201  1.6351
  105OSM    H8G10766   1.492   5.610   9.481  1.5662  1.4656  0.0656
  105OSM    C9F10767   1.344   5.714   9.373  0.7249  0.0879 -0.6419
  105OSM    H9F10768   1.319   5.820   9.389  0.9631 -0.3186  2.7862
  105OSM   C10F10769   1.364   5.666   9.254 -0.1774  0.5072  0.5623
  105OSM   H10F10770   1.308   5.721   9.177 -0.6881 -1.8427 -0.8082
  105OSM   C11F10771   1.433   5.533   9.225 -0.5675  0.4119 -0.0346
  105OSM   H11F10772   1.367   5.477   9.154 -1.2405  1.6835 -0.4259
  105OSM   H11G10773   1.428   5.470   9.316  0.6248  0.1467 -0.1494
  105OSM   C12F10774   1.582   5.543   9.178  0.7313  0.2125 -0.3683
  105OSM   H12F10775   1.626   5.441   9.175  0.0389 -0.0854 -0.4985
  105OSM   H12G10776   1.646   5.612   9.238 -1.8209  2.7534 -0.4767
  105OSM   C13F10777   1.588   5.574   9.028  0.6380  0.6901 -0.1094
  105OSM   H13F10778   1.502   5.636   8.994 -0.7015 -0.7665  0.5651
  105OSM   H13G10779   1.582   5.479   8.969 -0.9995  0.0364  1.0552
  105OSM   C14F10780   1.730   5.622   9.002  0.0202  0.4143  0.1576
  105OSM   H14F10781   1.795   5.541   9.041 -1.4188 -0.9762 -0.3154
  105OSM   H14G10782   1.738   5.710   9.070 -1.7343  1.0700 -0.4516
  105OSM   C15F10783   1.753   5.653   8.855 -0.3118 -0.3139  0.5876
  105OSM   H15F10784   1.707   5.576   8.790 -1.4097  1.0318 -0.2719
  105OSM   H15G10785   1.862   5.641   8.837 -0.0555  0.2924  1.7325
  105OSM   C16F10786   1.707   5.791   8.813  0.0518 -0.1500 -0.2164
  105OSM   H16F10787   1.776   5.868   8.854  0.0065  0.9390 -2.1006
  105OSM   H16G10788   1.603   5.813   8.847 -0.1021 -3.1182  1.3357
  105OSM   C17F10789   1.715   5.804   8.658  0.5446  0.1983 -0.1891
  105OSM   H17F10790   1.690   5.911   8.649  1.5243  0.3996 -0.5293
  105OSM   H17G10791   1.640   5.741   8.605  0.5036 -0.0388  0.1453
  105OSM   C18F10792   1.854   5.792   8.597 -0.0896  0.0777  0.3623
  105OSM   H18F10793   1.880   5.686   8.575  2.0615  0.0950  2.5347
  105OSM   H18G10794   1.928   5.831   8.670  0.9467 -0.1529 -0.5586
  105OSM   H18H10795   1.864   5.858   8.509  0.3393 -1.1382 -0.5097
  106OSM      N10796   2.248   3.484  11.089 -0.2063 -0.7019  0.0720
  106OSM    C1510797   2.295   3.571  10.977  0.3677 -0.1086 -0.3818
  106OSM   H15A10798   2.294   3.521  10.881 -1.8003  1.3983 -1.1696
  106OSM   H15B10799   2.396   3.605  10.995  0.0103  0.0269  1.4866
  106OSM   H15C10800   2.239   3.663  10.972  1.9342  0.8333 -0.6874
  106OSM    C1410801   2.352   3.373  11.100 -0.3365 -0.3718 -0.2307
  106OSM   H14A10802   2.345   3.308  11.014  0.5369  0.4174 -0.9135
  106OSM   H14B10803   2.332   3.317  11.190 -0.4590 -0.1802 -0.1398
  106OSM   H14C10804   2.455   3.404  11.089 -0.9290  0.2901 -4.8386
  106OSM    C1310805   2.246   3.560  11.215  0.0505  0.5756  0.3722
  106OSM   H13A10806   2.228   3.503  11.304  1.0646  1.5146  1.1943
  106OSM   H13B10807   2.157   3.621  11.216  1.7064  3.0571  0.9865
  106OSM   H13C10808   2.336   3.617  11.231  1.3880 -1.7863  1.6015
  106OSM    C1210809   2.120   3.414  11.062 -0.2353 -0.3017 -1.2417
  106OSM   H12A10810   2.046   3.487  11.091  0.8996  0.0890  0.7417
  106OSM   H12B10811   2.106   3.335  11.134  0.6653  0.3179 -0.3705
  106OSM    C1110812   2.095   3.362  10.917 -0.4438 -0.1779 -0.4899
  106OSM   H11A10813   2.075   3.456  10.862 -2.8901 -0.2201  0.2693
  106OSM   H11B10814   2.005   3.298  10.913 -0.3075 -0.2845 -2.3524
  106OSM      P10815   2.205   3.137  10.822  0.2224  0.2919 -0.0390
  106OSM    O1310816   2.339   3.100  10.770  0.1110 -0.4448 -0.3671
  106OSM    O1410817   2.131   3.051  10.916  0.3340 -0.3158 -0.2518
  106OSM    O1110818   2.121   3.158  10.692  0.2238 -0.2447  0.2302
  106OSM    O1210819   2.207   3.281  10.877  0.1972  0.3453  0.4618
  106OSM    C1S10820   2.125   3.047  10.598  0.3900  0.0937 -0.7262
  106OSM    H1S10821   2.025   3.001  10.583 -0.0278  0.0328  1.8848
  106OSM    H1T10822   2.191   2.962  10.627 -0.9297 -0.3878  0.9503
  106OSM     NF10823   2.073   3.085  10.366  0.6039  0.1347  0.2634
  106OSM    HNF10824   2.056   2.997  10.322  1.1513 -0.0079  0.3348
  106OSM    C2S10825   2.183   3.096  10.460  0.5712  0.5114  0.1829
  106OSM    H2S10826   2.215   3.201  10.474 -2.8714  1.6024  0.4742
  106OSM    C3S10827   2.310   3.010  10.428 -0.7255  0.5592 -0.1135
  106OSM    H3S10828   2.275   2.907  10.407  0.1519  0.3351 -0.5015
  106OSM     O310829   2.411   2.997  10.530 -0.0556 -0.6554 -0.1202
  106OSM    HO310830   2.372   3.047  10.601  1.6240  1.1011 -0.3956
  106OSM    C4S10831   2.365   3.052  10.289 -0.0876  0.2834  0.8897
  106OSM    H4S10832   2.324   2.992  10.206  1.3146 -0.1655  0.5060
  106OSM    C5S10833   2.454   3.150  10.256 -0.4503  0.4860  0.0955
  106OSM    H5S10834   2.503   3.203  10.339 -0.3926 -0.6260  0.7764
  106OSM    C6S10835   2.503   3.189  10.118 -0.3145 -0.5006 -0.3649
  106OSM    H6S10836   2.599   3.142  10.086 -0.3742 -1.5419  0.9219
  106OSM    H6T10837   2.517   3.299  10.123  0.5656 -0.6609  0.8580
  106OSM    C7S10838   2.407   3.149  10.003 -0.0612  0.0412  0.1349
  106OSM    H7S10839   2.310   3.191  10.036 -1.4169 -2.3897 -0.6427
  106OSM    H7T10840   2.405   3.038   9.999  1.1186  0.0218 -0.1767
  106OSM    C8S10841   2.446   3.215   9.867  0.5703 -0.1186  0.2006
  106OSM    H8S10842   2.551   3.195   9.835  0.1926  1.4445 -2.1628
  106OSM    H8T10843   2.434   3.325   9.872 -0.7142 -0.2984  1.3027
  106OSM    C9S10844   2.366   3.171   9.743 -0.6863 -0.0822 -0.2885
  106OSM    H9S10845   2.261   3.171   9.778 -0.7366  0.8237 -0.4233
  106OSM    H9T10846   2.379   3.060   9.739  2.7033  0.2344  0.7035
  106OSM   C10S10847   2.409   3.244   9.621  1.0213  0.7952  0.2870
  106OSM   H10S10848   2.518   3.229   9.605  0.6621  0.2921 -1.9118
  106OSM   H10T10849   2.389   3.352   9.641 -3.2821  0.5052 -1.8461
  106OSM   C11S10850   2.338   3.209   9.494  0.3287  0.5492 -0.4002
  106OSM   H11S10851   2.228   3.210   9.505  0.2547 -3.2037 -0.0481
  106OSM   H11T10852   2.364   3.102   9.475  2.4628  0.6769  1.5516
  106OSM   C12S10853   2.386   3.292   9.379 -0.0387 -0.4863 -0.6695
  106OSM   H12S10854   2.491   3.263   9.357  0.6970  0.6104  1.2477
  106OSM   H12T10855   2.399   3.399   9.403  0.8437 -0.3957 -1.5167
  106OSM   C13S10856   2.306   3.284   9.256  1.2679  0.6641 -0.0385
  106OSM   H13S10857   2.348   3.360   9.187  2.7340 -0.1652 -0.0663
  106OSM   H13T10858   2.199   3.290   9.286  1.6090 -2.0663  2.0250
  106OSM   C14S10859   2.331   3.153   9.187  0.2007  0.3087 -0.2993
  106OSM   H14S10860   2.264   3.080   9.237 -1.6338  2.1184 -0.0608
  106OSM   H14T10861   2.437   3.124   9.200  0.6920  1.2686 -2.0575
  106OSM   C15S10862   2.327   3.168   9.036 -0.4301  0.8453 -0.5174
  106OSM   H15S10863   2.381   3.080   8.995  1.0744  0.8529  1.3905
  106OSM   H15T10864   2.378   3.252   8.985  1.6407  0.7592  1.3248
  106OSM   C16S10865   2.186   3.165   8.981 -0.2242  0.5503 -0.9788
  106OSM   H16S10866   2.170   3.214   8.883 -1.4196  0.4800 -0.8234
  106OSM   H16T10867   2.123   3.230   9.046 -1.5006 -1.3788 -0.2512
  106OSM   C17S10868   2.140   3.023   8.975 -0.5036  0.3343  0.6169
  106OSM   H17S10869   2.153   2.975   9.075  1.1186 -1.8156 -0.5673
  106OSM   H17T10870   2.211   2.977   8.902 -1.0798 -0.0251  0.2810
  106OSM   C18S10871   1.999   3.004   8.929  0.3278 -0.1157  0.1769
  106OSM   H18S10872   1.939   3.062   9.002 -0.7044 -1.3352  0.3170
  106OSM   H18T10873   1.969   2.897   8.936 -0.9769  0.1444 -1.2730
  106OSM   H18U10874   1.987   3.055   8.831  0.9529 -2.7423 -1.3200
  106OSM    C1F10875   1.979   3.183  10.362  0.5180 -0.2808 -0.3360
  106OSM     OF10876   1.972   3.274  10.444 -0.4706 -0.3779  0.2215
  106OSM    C2F10877   1.872   3.160  10.261  0.3742 -0.0804  0.2823
  106OSM    H2F10878   1.772   3.140  10.306  0.1267  2.5693  0.9738
  106OSM    H2G10879   1.906   3.079  10.192  1.4761  1.3587 -0.8817
  106OSM    C3F10880   1.846   3.281  10.168 -0.2583  0.3675 -0.5520
  106OSM    H3F10881   1.804   3.364  10.228 -1.9155 -1.3439  0.7368
  106OSM    H3G10882   1.761   3.243  10.107 -1.1402  1.2312  0.1257
  106OSM    C4F10883   1.962   3.313  10.078  0.5652  0.1191 -0.0011
  106OSM    H4F10884   2.037   3.359  10.146  0.1401 -0.2764  0.7363
  106OSM    H4G10885   1.925   3.393  10.010 -2.7989 -1.0294  0.3858
  106OSM    C5F10886   2.026   3.201  10.010 -0.3194  1.0053  0.0997
  106OSM    H5F10887   2.082   3.146  10.089 -1.9479  1.1546  1.3781
  106OSM    H5G10888   2.107   3.241   9.945 -0.6271  0.0440 -0.8844
  106OSM    C6F10889   1.935   3.114   9.923 -0.2603  0.0510  0.3049
  106OSM    H6F10890   1.871   3.052   9.989 -0.1776 -0.2458  0.1074
  106OSM    H6G10891   2.000   3.039   9.874 -2.5806 -1.2133 -0.8936
  106OSM    C7F10892   1.861   3.187   9.816  0.9488 -0.5118 -0.2736
  106OSM    H7F10893   1.913   3.276   9.776  0.3051 -0.9499 -2.1244
  106OSM    H7G10894   1.762   3.215   9.857  0.3485 -2.9823  0.0438
  106OSM    C8F10895   1.821   3.091   9.702  0.2249 -0.2079  0.1701
  106OSM    H8F10896   1.730   3.129   9.651 -0.8862 -0.3482  1.9697
  106OSM    H8G10897   1.792   2.996   9.752 -1.6604  0.2672  0.0050
  106OSM    C9F10898   1.937   3.063   9.607  0.8386  0.2344 -0.5886
  106OSM    H9F10899   2.030   3.105   9.648  1.0349  0.9661 -1.7666
  106OSM   C10F10900   1.934   3.023   9.477 -0.0424 -0.1550 -0.8129
  106OSM   H10F10901   2.027   3.005   9.421 -0.2877 -1.0486 -0.9366
  106OSM   C11F10902   1.816   2.983   9.391 -0.2983 -0.2498 -0.2081
  106OSM   H11F10903   1.726   2.965   9.455 -1.4033  1.7754 -1.1563
  106OSM   H11G10904   1.836   2.886   9.340  0.7562 -0.9214  1.4212
  106OSM   C12F10905   1.799   3.074   9.270 -0.7616 -0.6709  0.2414
  106OSM   H12F10906   1.713   3.038   9.210 -1.4990  1.0448  0.2314
  106OSM   H12G10907   1.895   3.071   9.215  1.4080  1.4226  3.7396
  106OSM   C13F10908   1.771   3.225   9.305  0.0767  0.3923  0.6966
  106OSM   H13F10909   1.863   3.276   9.340  0.0586  0.0354  1.2611
  106OSM   H13G10910   1.707   3.227   9.395 -1.6977 -0.7102 -0.5242
  106OSM   C14F10911   1.708   3.301   9.193  0.4149 -0.3511 -0.3083
  106OSM   H14F10912   1.698   3.407   9.227  0.1603 -0.0081 -1.4028
  106OSM   H14G10913   1.609   3.252   9.180  0.2665 -0.1328 -0.0133
  106OSM   C15F10914   1.784   3.299   9.063  1.1065  0.6089 -0.0076
  106OSM   H15F10915   1.787   3.192   9.033  1.5361  0.9532 -1.1786
  106OSM   H15G10916   1.885   3.336   9.090  1.6849 -0.0211 -1.2669
  106OSM   C16F10917   1.739   3.412   8.963  0.9632 -0.5050 -0.1380
  106OSM   H16F10918   1.633   3.396   8.932  1.0907 -1.9617  0.1334
  106OSM   H16G10919   1.802   3.391   8.874  1.5588 -0.2508  0.2238
  106OSM   C17F10920   1.743   3.564   9.010  0.1424 -0.2840 -0.5834
  106OSM   H17F10921   1.671   3.582   9.093  0.4020  0.7300 -0.5718
  106OSM   H17G10922   1.705   3.622   8.924  1.3276  2.5604  0.7644
  106OSM   C18F10923   1.885   3.604   9.047 -0.0151 -0.5090 -0.0740
  106OSM   H18F10924   1.953   3.568   8.967  0.9111 -0.3639  0.6284
  106OSM   H18G10925   1.911   3.537   9.132 -2.3474 -2.8247 -1.1656
  106OSM   H18H10926   1.888   3.713   9.072 -0.3677 -0.3327 -0.8182
  107OSM      N10927   3.706   0.688  11.208 -0.6154  0.7425 -0.3489
  107OSM    C1510928   3.577   0.615  11.218  0.5185 -0.0530 -0.0586
  107OSM   H15A10929   3.497   0.686  11.228  0.5442  0.2485 -1.8136
  107OSM   H15B10930   3.582   0.546  11.300  1.8793 -0.0136 -0.0915
  107OSM   H15C10931   3.550   0.568  11.124  0.8351 -1.2642  0.4467
  107OSM    C1410932   3.738   0.732  11.353 -0.2407 -0.3199  1.0142
  107OSM   H14A10933   3.663   0.801  11.389  2.4410  2.7606  0.9889
  107OSM   H14B10934   3.829   0.791  11.354 -0.2036 -0.3742  2.1022
  107OSM   H14C10935   3.740   0.656  11.430 -0.0460  0.7436  2.0898
  107OSM    C1310936   3.803   0.586  11.157 -0.2639 -0.6063 -0.8185
  107OSM   H13A10937   3.807   0.500  11.222  0.2214 -0.4752 -0.6743
  107OSM   H13B10938   3.898   0.635  11.172 -0.9608  1.4722 -2.8875
  107OSM   H13C10939   3.811   0.558  11.053  1.1108 -1.8413 -0.3886
  107OSM    C1210940   3.692   0.817  11.135  0.3096  0.3745 -0.3638
  107OSM   H12A10941   3.784   0.873  11.119  0.2091  0.3247 -1.1504
  107OSM   H12B10942   3.622   0.886  11.178 -0.3793 -0.1565 -0.6181
  107OSM    C1110943   3.650   0.796  10.984 -0.0075  0.5543  0.1733
  107OSM   H11A10944   3.724   0.726  10.940 -0.4369  0.7572 -0.8986
  107OSM   H11B10945   3.667   0.894  10.933 -1.9440  0.3205 -0.9883
  107OSM      P10946   3.400   0.858  10.995 -0.1374 -0.5720  0.1361
  107OSM    O1310947   3.283   0.791  11.060  0.2583  0.2328 -0.2979
  107OSM    O1410948   3.461   0.973  11.067  0.2630 -0.5966  0.6321
  107OSM    O1110949   3.370   0.902  10.852  0.2148  0.1048 -0.2866
  107OSM    O1210950   3.515   0.753  10.978  0.3392  0.3087  0.5020
  107OSM    C1S10951   3.358   0.796  10.753 -0.7592 -0.1935 -0.1636
  107OSM    H1S10952   3.272   0.731  10.778  0.3002 -1.7677 -0.5134
  107OSM    H1T10953   3.446   0.729  10.755 -0.5024  0.0968 -1.2166
  107OSM     NF10954   3.314   0.743  10.519 -0.4566  0.1797 -0.5946
  107OSM    HNF10955   3.398   0.718  10.471  0.1428 -2.5181  1.7390
  107OSM    C2S10956   3.334   0.854  10.611 -0.1436  0.4390 -0.1138
  107OSM    H2S10957   3.231   0.896  10.618  0.1672  1.0861  0.6790
  107OSM    C3S10958   3.443   0.955  10.573 -0.6118 -0.0498  0.6232
  107OSM    H3S10959   3.530   0.887  10.569 -0.4353  0.2246 -0.3627
  107OSM     O310960   3.476   1.068  10.666 -0.3273  0.1556 -0.3506
  107OSM    HO310961   3.458   1.026  10.750  1.5056 -1.4229 -0.7262
  107OSM    C4S10962   3.406   1.012  10.431 -0.8096  0.9858  0.8692
  107OSM    H4S10963   3.302   1.044  10.416 -0.3332  1.9816 -0.3783
  107OSM    C5S10964   3.502   0.997  10.332  0.2875 -0.2332 -0.5476
  107OSM    H5S10965   3.602   0.967  10.365 -0.2853 -1.2710  0.2492
  107OSM    C6S10966   3.488   1.049  10.191  0.2782  0.3455 -0.6860
  107OSM    H6S10967   3.560   1.133  10.182 -1.2926  1.8826  0.7347
  107OSM    H6T10968   3.387   1.096  10.182  1.7603  3.9037  0.5125
  107OSM    C7S10969   3.516   0.937  10.081  0.4096 -0.5416 -0.1340
  107OSM    H7S10970   3.437   0.862  10.101 -0.1214  0.1989  0.5422
  107OSM    H7T10971   3.617   0.892  10.094 -0.0427 -0.7006  3.1006
  107OSM    C8S10972   3.496   1.006   9.941  0.4039  0.5020 -0.0531
  107OSM    H8S10973   3.396   1.050   9.925  0.3819  0.0214 -1.2660
  107OSM    H8T10974   3.494   0.925   9.865 -3.4473  0.6941 -0.2224
  107OSM    C9S10975   3.603   1.110   9.918 -0.3040  0.2941  0.3871
  107OSM    H9S10976   3.697   1.051   9.916 -0.3201  0.2938 -0.4392
  107OSM    H9T10977   3.612   1.187   9.997 -1.6048  0.3917  0.4579
  107OSM   C10S10978   3.582   1.170   9.778  0.0396 -0.4920 -0.1350
  107OSM   H10S10979   3.630   1.270   9.773  1.2432 -1.0934 -0.7418
  107OSM   H10T10980   3.473   1.183   9.757  0.4484 -1.2840 -2.8790
  107OSM   C11S10981   3.651   1.093   9.659  1.0071  0.1181  0.0975
  107OSM   H11S10982   3.615   0.988   9.652 -2.2296  1.0575  1.5698
  107OSM   H11T10983   3.756   1.079   9.691  0.6810 -1.0035  0.7171
  107OSM   C12S10984   3.642   1.160   9.522  0.8003  0.3125 -0.8976
  107OSM   H12S10985   3.690   1.260   9.537  1.2163  0.0822 -0.6645
  107OSM   H12T10986   3.535   1.170   9.496  0.4516 -0.6395  0.1486
  107OSM   C13S10987   3.695   1.072   9.401  0.6235 -0.2072 -0.0792
  107OSM   H13S10988   3.683   0.965   9.430 -2.0475  0.1310  0.1650
  107OSM   H13T10989   3.803   1.095   9.390  0.6824  0.1834  1.2319
  107OSM   C14S10990   3.626   1.110   9.271  0.4839 -0.4574  0.2675
  107OSM   H14S10991   3.645   1.216   9.246 -1.7184 -0.5187 -1.8592
  107OSM   H14T10992   3.515   1.096   9.272  0.6194 -1.6835 -0.4757
  107OSM   C15S10993   3.667   1.013   9.165 -0.4529  0.0832  0.0028
  107OSM   H15S10994   3.651   0.907   9.195 -0.9021  0.2074  0.2031
  107OSM   H15T10995   3.777   1.027   9.156 -0.1750 -1.1114  1.2554
  107OSM   C16S10996   3.587   1.029   9.035 -0.2173  0.3592 -0.0626
  107OSM   H16S10997   3.624   1.124   8.993 -1.1016  2.1101  2.9922
  107OSM   H16T10998   3.478   1.027   9.057  0.1077 -1.5749  1.4951
  107OSM   C17S10999   3.594   0.900   8.942 -0.2134  0.7098 -0.4352
  107OSM   H17S11000   3.519   0.833   8.989 -0.4209  1.7625  0.7559
  107OSM   H17T11001   3.696   0.857   8.944 -0.2697  0.6357  1.7597
  107OSM   C18S11002   3.549   0.935   8.801 -0.4780  0.4277 -0.2544
  107OSM   H18S11003   3.537   0.846   8.735 -2.0052  0.0814  0.4784
  107OSM   H18T11004   3.636   0.995   8.767  0.1736  0.6240  1.7281
  107OSM   H18U11005   3.460   1.001   8.797 -3.2827 -3.0314  2.1238
  107OSM    C1F11006   3.206   0.665  10.530  0.5674  0.2723  0.9262
  107OSM     OF11007   3.099   0.711  10.579  0.0575  0.4759  0.4317
  107OSM    C2F11008   3.218   0.519  10.488  0.1634 -0.3518  0.5861
  107OSM    H2F11009   3.129   0.461  10.520 -0.7633 -0.4763 -2.0499
  107OSM    H2G11010   3.310   0.478  10.535  0.3645  1.9954  2.3042
  107OSM    C3F11011   3.221   0.507  10.331 -0.5722  0.2744  0.3892
  107OSM    H3F11012   3.220   0.400  10.303 -0.1080  0.5311 -0.6281
  107OSM    H3G11013   3.320   0.548  10.300 -0.6378  0.4769  0.4432
  107OSM    C4F11014   3.110   0.582  10.260  0.3438  0.0200 -0.1718
  107OSM    H4F11015   3.115   0.693  10.259  0.1084  0.0681  1.7163
  107OSM    H4G11016   3.013   0.553  10.305  1.9127 -3.7204  0.9954
  107OSM    C5F11017   3.107   0.542  10.104 -0.4926 -0.8516 -0.4861
  107OSM    H5F11018   3.033   0.593  10.039 -1.1153 -0.4168  0.5413
  107OSM    H5G11019   3.077   0.437  10.084 -2.4453 -0.2706 -0.6537
  107OSM    C6F11020   3.242   0.569  10.042  0.1875  0.1834  0.4160
  107OSM    H6F11021   3.318   0.506  10.093 -2.5483 -2.5527  1.2810
  107OSM    H6G11022   3.274   0.668  10.082  0.5623  0.1694  0.1510
  107OSM    C7F11023   3.256   0.569   9.887  0.1734 -0.7109 -0.1227
  107OSM    H7F11024   3.350   0.616   9.853 -0.5614 -0.4286 -1.7944
  107OSM    H7G11025   3.167   0.624   9.851  1.9521  1.1064 -1.8617
  107OSM    C8F11026   3.245   0.425   9.838 -0.7312  0.9576  0.2690
  107OSM    H8F11027   3.220   0.431   9.730 -0.7776 -3.0794 -0.0169
  107OSM    H8G11028   3.158   0.375   9.884  1.7486 -0.7434  3.3424
  107OSM    C9F11029   3.377   0.341   9.844  0.1834 -0.3830 -0.1605
  107OSM    H9F11030   3.427   0.336   9.942  0.5130 -0.7736 -0.3490
  107OSM   C10F11031   3.420   0.263   9.745 -0.8334 -0.4768  0.6488
  107OSM   H10F11032   3.512   0.209   9.771 -0.0772 -0.8117 -2.5432
  107OSM   C11F11033   3.375   0.235   9.602 -0.0258  0.0963  0.1986
  107OSM   H11F11034   3.331   0.332   9.569  0.8369  0.8469  1.2077
  107OSM   H11G11035   3.303   0.152   9.584  0.1854 -0.1380  0.4338
  107OSM   C12F11036   3.489   0.211   9.510  0.3178  0.9956 -0.2221
  107OSM   H12F11037   3.546   0.123   9.548 -1.9902 -1.5378 -2.4131
  107OSM   H12G11038   3.557   0.299   9.517  0.5834  0.9364 -1.9256
  107OSM   C13F11039   3.433   0.194   9.368 -0.1493 -0.6425  0.7738
  107OSM   H13F11040   3.377   0.284   9.336 -1.0412 -1.7730 -0.9487
  107OSM   H13G11041   3.355   0.116   9.374  0.8099 -1.6758  0.0272
  107OSM   C14F11042   3.541   0.147   9.270  0.2110  0.8885  0.2448
  107OSM   H14F11043   3.605   0.070   9.317  0.0733  0.2348 -0.6283
  107OSM   H14G11044   3.612   0.232   9.256 -0.6683  1.2868 -2.2435
  107OSM   C15F11045   3.492   0.105   9.124 -0.2852  0.8147 -0.2935
  107OSM   H15F11046   3.416   0.176   9.085 -3.0788  0.2335  3.8063
  107OSM   H15G11047   3.460  -0.001   9.121  3.5222 -0.4222 -0.0150
  107OSM   C16F11048   3.618   0.092   9.035  0.9112  0.9491 -0.0891
  107OSM   H16F11049   3.686   0.010   9.068 -1.5745 -1.7969 -1.5090
  107OSM   H16G11050   3.668   0.191   9.031 -0.4446  1.7958  2.7890
  107OSM   C17F11051   3.567   0.057   8.891  0.0905 -0.0666 -0.5499
  107OSM   H17F11052   3.492   0.132   8.858  0.4393  0.6155  0.1750
  107OSM   H17G11053   3.507  -0.036   8.897 -1.4153  0.9247 -0.0273
  107OSM   C18F11054   3.678   0.055   8.786  0.0869  0.2053 -0.0312
  107OSM   H18F11055   3.639   0.025   8.686 -0.4320  0.7907 -0.0082
  107OSM   H18G11056   3.743  -0.032   8.810  1.2912  0.9162 -0.6130
  107OSM   H18H11057   3.746   0.143   8.785  2.0531 -1.2527  0.5089
  108OSM      N11058   0.296   3.960  11.210 -1.0507 -0.2234  0.2622
  108OSM    C1511059   0.300   3.836  11.292 -0.2728 -0.1158  0.9992
  108OSM   H15A11060   0.214   3.835  11.357 -1.9217 -0.0181 -1.1126
  108OSM   H15B11061   0.387   3.812  11.351 -0.6394 -0.9280  1.2105
  108OSM   H15C11062   0.285   3.746  11.234 -0.1795  0.3780  0.1928
  108OSM    C1411063   0.165   3.984  11.138 -0.3956 -0.2370 -0.2225
  108OSM   H14A11064   0.181   4.053  11.057 -0.1956 -2.4535 -2.0997
  108OSM   H14B11065   0.085   4.009  11.207 -0.0186 -1.7107  0.7603
  108OSM   H14C11066   0.145   3.892  11.085  0.3998  0.2157 -1.3068
  108OSM    C1311067   0.317   4.067  11.309 -0.1335 -0.0061  0.9419
  108OSM   H13A11068   0.257   4.051  11.397 -3.7512  0.5615 -1.3136
  108OSM   H13B11069   0.291   4.162  11.265  0.5500 -0.0052  0.5289
  108OSM   H13C11070   0.422   4.073  11.333  0.3718 -3.4302 -0.0498
  108OSM    C1211071   0.405   3.957  11.110 -0.0893 -0.2318 -0.1920
  108OSM   H12A11072   0.409   3.863  11.057 -1.7615 -0.6517  0.4058
  108OSM   H12B11073   0.499   3.970  11.162 -0.1359 -0.9566  0.0724
  108OSM    C1111074   0.406   4.052  10.986  0.0607  0.1808 -0.5329
  108OSM   H11A11075   0.337   4.023  10.904  0.4633 -0.0508 -0.7918
  108OSM   H11B11076   0.507   4.037  10.942  0.6533 -3.2549  1.8322
  108OSM      P11077   0.378   4.303  10.919  0.3821  0.1414  0.2233
  108OSM    O1311078   0.334   4.422  10.986  0.1137 -0.2092 -0.7906
  108OSM    O1411079   0.498   4.321  10.840 -0.3345  0.5444  0.5115
  108OSM    O1111080   0.273   4.242  10.824 -0.0332 -0.1401 -0.4843
  108OSM    O1211081   0.393   4.182  11.024  0.0355  0.0659 -0.3963
  108OSM    C1S11082   0.235   4.309  10.701 -0.2632 -0.8786  0.8498
  108OSM    H1S11083   0.236   4.418  10.723 -0.5249 -0.9934  1.4451
  108OSM    H1T11084   0.127   4.289  10.688 -0.2646 -0.7121  0.5930
  108OSM     NF11085   0.280   4.357  10.462  0.3558 -0.0517 -0.4631
  108OSM    HNF11086   0.255   4.319  10.373 -1.1998  1.8047 -0.8616
  108OSM    C2S11087   0.314   4.271  10.572 -0.3376  0.0255  0.5799
  108OSM    H2S11088   0.422   4.280  10.596 -0.2848 -0.2310  0.4332
  108OSM    C3S11089   0.292   4.120  10.541 -0.5678  0.7399 -0.5325
  108OSM    H3S11090   0.182   4.117  10.525 -0.8615  3.7694  0.6006
  108OSM     O311091   0.320   4.033  10.652  0.2229 -0.2244  0.2229
  108OSM    HO311092   0.335   4.092  10.727  1.5176 -0.2935  0.0428
  108OSM    C4S11093   0.372   4.076  10.427 -0.5456  0.4672  0.2495
  108OSM    H4S11094   0.313   4.057  10.336  1.2362 -4.3246 -0.0361
  108OSM    C5S11095   0.498   4.041  10.419 -0.1949  0.4561  0.0978
  108OSM    H5S11096   0.561   4.040  10.509  3.3684  0.0896 -2.2998
  108OSM    C6S11097   0.574   3.989  10.299 -0.2900  0.2425 -0.3032
  108OSM    H6S11098   0.565   3.878  10.297 -0.2201  0.2086  1.1354
  108OSM    H6T11099   0.682   4.010  10.314  0.2099 -2.7921  0.8710
  108OSM    C7S11100   0.529   4.047  10.166 -0.3648 -0.2070 -0.4314
  108OSM    H7S11101   0.422   4.022  10.149 -0.2820 -0.4556 -0.5818
  108OSM    H7T11102   0.579   3.986  10.088  1.8617 -1.8174  2.1450
  108OSM    C8S11103   0.558   4.196  10.131  0.7190 -0.5810  0.0513
  108OSM    H8S11104   0.665   4.224  10.140  0.0034  2.8152 -0.9972
  108OSM    H8T11105   0.514   4.258  10.212  1.2279  2.0646 -1.6147
  108OSM    C9S11106   0.496   4.248   9.995 -0.6354 -0.6676 -0.0630
  108OSM    H9S11107   0.518   4.357  10.002 -2.0742 -0.4095  0.7941
  108OSM    H9T11108   0.386   4.241  10.010 -0.3027 -2.8246  1.5877
  108OSM   C10S11109   0.548   4.195   9.871  0.3079  0.0363  0.6672
  108OSM   H10S11110   0.541   4.084   9.869  0.5020  0.0468 -0.8976
  108OSM   H10T11111   0.646   4.242   9.850 -1.0297  2.3532 -0.7388
  108OSM   C11S11112   0.454   4.246   9.755  0.2223 -0.1129 -0.3889
  108OSM   H11S11113   0.394   4.336   9.780 -0.5755 -0.7961  0.1677
  108OSM   H11T11114   0.376   4.170   9.736 -2.6781  2.2455  1.6813
  108OSM   C12S11115   0.526   4.269   9.618  0.3823  0.1984  0.2122
  108OSM   H12S11116   0.609   4.199   9.597 -0.4863 -1.1508  1.1898
  108OSM   H12T11117   0.590   4.359   9.632  0.9292 -0.2493  0.5939
  108OSM   C13S11118   0.426   4.292   9.500  0.3532 -0.2341 -0.1995
  108OSM   H13S11119   0.383   4.193   9.475  2.4999 -1.4235  0.7171
  108OSM   H13T11120   0.484   4.326   9.412 -0.4955  1.3468 -0.1661
  108OSM   C14S11121   0.319   4.401   9.524  0.2869  0.4036 -0.0558
  108OSM   H14S11122   0.363   4.475   9.594  0.0029  0.0598  0.4924
  108OSM   H14T11123   0.236   4.345   9.572 -0.6530 -0.5080 -2.6572
  108OSM   C15S11124   0.267   4.476   9.402 -0.7112 -0.2973 -0.1371
  108OSM   H15S11125   0.346   4.547   9.370 -0.6803  0.0491  0.7091
  108OSM   H15T11126   0.177   4.530   9.437 -0.1403  0.5123  0.0742
  108OSM   C16S11127   0.235   4.382   9.281  0.0033 -0.0963  0.4341
  108OSM   H16S11128   0.151   4.313   9.304 -2.9866  3.5465  1.1150
  108OSM   H16T11129   0.321   4.319   9.250  0.2855 -0.4762  1.9584
  108OSM   C17S11130   0.189   4.457   9.149 -0.1951 -0.1416  0.5351
  108OSM   H17S11131   0.277   4.524   9.135 -0.8038  0.7754  1.1063
  108OSM   H17T11132   0.096   4.505   9.185  0.2164  0.5338  0.7028
  108OSM   C18S11133   0.169   4.358   9.039  0.8432 -0.1663 -0.0478
  108OSM   H18S11134   0.148   4.417   8.947  1.6099 -1.6809 -1.2162
  108OSM   H18T11135   0.094   4.277   9.037  2.2386 -1.4723 -3.3860
  108OSM   H18U11136   0.261   4.302   9.012  1.2093 -1.3586  3.4227
  108OSM    C1F11137   0.300   4.483  10.465 -0.0535 -0.5840 -0.2037
  108OSM     OF11138   0.380   4.528  10.550 -0.6135 -0.1721  0.3928
  108OSM    C2F11139   0.239   4.564  10.361 -0.1939 -0.7354  0.2789
  108OSM    H2F11140   0.329   4.617  10.322 -0.3869 -1.3812 -1.0870
  108OSM    H2G11141   0.175   4.646  10.400  0.6656  0.4696 -0.8318
  108OSM    C3F11142   0.170   4.490  10.246  0.3424 -0.1923  0.3031
  108OSM    H3F11143   0.075   4.448  10.287  0.7697 -1.6427 -0.1701
  108OSM    H3G11144   0.230   4.410  10.199  3.9457  2.0201  0.9822
  108OSM    C4F11145   0.135   4.588  10.133 -0.4839 -0.2118  0.2493
  108OSM    H4F11146   0.223   4.649  10.101 -0.6064 -1.7084 -3.2369
  108OSM    H4G11147   0.065   4.668  10.165  1.2973  1.0610  1.0548
  108OSM    C5F11148   0.068   4.513  10.019 -0.3760  0.2913  0.3038
  108OSM    H5F11149  -0.021   4.458  10.056 -1.2493  1.2517 -0.2864
  108OSM    H5G11150   0.139   4.434   9.987  0.8922  1.5269  0.0281
  108OSM    C6F11151   0.023   4.610   9.907 -0.2768 -0.3146 -0.3691
  108OSM    H6F11152   0.002   4.714   9.940  0.7636  0.2758 -1.5376
  108OSM    H6G11153  -0.071   4.572   9.862 -1.7091  2.0465  0.5070
  108OSM    C7F11154   0.137   4.620   9.804 -0.2152  0.4792  0.0882
  108OSM    H7F11155   0.172   4.521   9.768  1.0963  0.6098  0.9645
  108OSM    H7G11156   0.219   4.679   9.851 -1.4350  0.4410  2.3222
  108OSM    C8F11157   0.093   4.693   9.679  0.4163 -0.1870  0.1110
  108OSM    H8F11158  -0.005   4.646   9.655  0.3777  0.5274 -1.1959
  108OSM    H8G11159   0.171   4.681   9.601  1.6196  2.0093  0.9230
  108OSM    C9F11160   0.070   4.838   9.715 -0.0275 -0.1806 -0.4131
  108OSM    H9F11161   0.087   4.873   9.818  0.7828 -0.8675 -0.3139
  108OSM   C10F11162   0.019   4.928   9.625 -0.1885  0.4005  0.4046
  108OSM   H10F11163  -0.007   5.033   9.647  0.9406  0.8873 -0.4913
  108OSM   C11F11164  -0.014   4.882   9.481  0.1695  0.1643  0.0618
  108OSM   H11F11165  -0.124   4.868   9.474 -0.2481  2.6851  1.2265
  108OSM   H11G11166   0.034   4.785   9.453 -0.6077 -1.0615  2.8220
  108OSM   C12F11167   0.022   5.001   9.386 -0.5696  0.2534  0.2876
  108OSM   H12F11168   0.132   5.013   9.372 -0.5651 -0.1053  0.0003
  108OSM   H12G11169  -0.010   5.096   9.433 -1.8065 -0.5712  1.1231
  108OSM   C13F11170  -0.036   4.989   9.245 -0.4486 -0.6962  0.1073
  108OSM   H13F11171  -0.029   5.085   9.190 -0.4662 -0.5537  0.3570
  108OSM   H13G11172  -0.144   4.972   9.264 -0.3962 -0.3679  0.6938
  108OSM   C14F11173   0.032   4.879   9.162  0.2394  0.6666  0.3179
  108OSM   H14F11174  -0.006   4.788   9.213  1.2146  0.4708  0.6957
  108OSM   H14G11175   0.141   4.886   9.182  0.1787 -0.1853  0.9787
  108OSM   C15F11176   0.006   4.888   9.013  0.7098  0.2101 -0.1025
  108OSM   H15F11177   0.070   4.968   8.970 -1.4945  0.6996 -2.6062
  108OSM   H15G11178  -0.101   4.904   8.990  0.3430 -0.1959  1.2582
  108OSM   C16F11179   0.053   4.759   8.944 -0.3114 -0.5065  0.2624
  108OSM   H16F11180   0.013   4.665   8.987  1.0953 -0.9479  0.6414
  108OSM   H16G11181   0.163   4.755   8.961 -0.5248 -1.2595  1.5204
  108OSM   C17F11182   0.042   4.785   8.795  0.4443  0.1154  0.1118
  108OSM   H17F11183   0.085   4.887   8.781  1.0165 -0.1936 -0.3816
  108OSM   H17G11184  -0.064   4.807   8.771  1.3129  2.8769 -1.4585
  108OSM   C18F11185   0.101   4.689   8.696 -0.1427 -0.2992  0.7939
  108OSM   H18F11186   0.029   4.621   8.645  0.4971 -0.5688  0.2435
  108OSM   H18G11187   0.177   4.628   8.751 -0.6045 -0.0838  1.6760
  108OSM   H18H11188   0.152   4.745   8.615 -0.3666 -1.3208 -0.0639
  109OSM      N11189   0.230   5.909  10.588 -0.1121  0.0610  0.2916
  109OSM    C1511190   0.376   5.881  10.578  0.2792  0.7482 -0.1047
  109OSM   H15A11191   0.390   5.773  10.575 -1.5977  0.5151 -1.0274
  109OSM   H15B11192   0.433   5.910  10.664  0.7966 -1.5709  0.3821
  109OSM   H15C11193   0.414   5.916  10.483  0.4562 -0.8670 -0.6609
  109OSM    C1411194   0.151   5.884  10.458 -0.8396 -0.1443 -0.7987
  109OSM   H14A11195   0.176   5.785  10.423 -0.5182 -0.4096  0.1670
  109OSM   H14B11196   0.173   5.954  10.379  0.8365 -1.2112 -1.3067
  109OSM   H14C11197   0.046   5.884  10.485 -0.5872 -1.8312  0.2346
  109OSM    C1311198   0.177   5.822  10.698 -0.2018  0.2225  0.0799
  109OSM   H13A11199   0.213   5.850  10.796  1.0273 -1.1505  0.0379
  109OSM   H13B11200   0.198   5.717  10.684  0.2635  0.4201 -0.7311
  109OSM   H13C11201   0.072   5.835  10.718  0.0279  0.1003  1.4651
  109OSM    C1211202   0.217   6.049  10.640  0.0183 -0.2310  0.3009
  109OSM   H12A11203   0.111   6.062  10.659 -0.0648  0.9594 -0.8741
  109OSM   H12B11204   0.235   6.117  10.558 -0.2390 -1.4052 -0.7408
  109OSM    C1111205   0.310   6.094  10.758  0.5558 -0.0501  0.0559
  109OSM   H11A11206   0.299   6.010  10.829  0.8767 -1.8910 -2.0107
  109OSM   H11B11207   0.268   6.186  10.804  0.8974  2.0857 -3.7075
  109OSM      P11208   0.494   6.243  10.657  0.2036 -0.0390 -0.2135
  109OSM    O1311209   0.438   6.347  10.741  0.0997 -0.3169 -0.0062
  109OSM    O1411210   0.644   6.227  10.652  0.1915  0.4969 -0.1048
  109OSM    O1111211   0.438   6.246  10.509 -0.7743  1.1945  0.2986
  109OSM    O1211212   0.446   6.112  10.723 -0.1838 -0.2534 -0.0168
  109OSM    C1S11213   0.404   6.376  10.458 -0.3355  0.4074 -0.3148
  109OSM    H1S11214   0.496   6.436  10.439 -0.3873 -0.1650 -2.5919
  109OSM    H1T11215   0.326   6.432  10.514  1.3184  3.0989 -0.6379
  109OSM     NF11216   0.314   6.501  10.267 -0.2617  0.8524  0.8451
  109OSM    HNF11217   0.229   6.550  10.288 -0.8137  1.6403 -2.8715
  109OSM    C2S11218   0.339   6.369  10.312 -0.1409  0.1930  0.0346
  109OSM    H2S11219   0.408   6.319  10.241  0.5390  0.0153  0.8129
  109OSM    C3S11220   0.217   6.280  10.303 -0.0224 -0.0729  1.0673
  109OSM    H3S11221   0.136   6.318  10.369 -2.2832  1.0919 -2.2718
  109OSM     O311222   0.250   6.151  10.344  0.1982 -0.1142  0.0183
  109OSM    HO311223   0.332   6.152  10.394  0.5626 -0.6562 -0.5521
  109OSM    C4S11224   0.163   6.269  10.162  0.6124 -0.1700  0.1984
  109OSM    H4S11225   0.070   6.328  10.155  1.5317  1.6930  2.7060
  109OSM    C5S11226   0.206   6.213  10.050 -0.5578 -0.1475 -0.6960
  109OSM    H5S11227   0.304   6.164  10.042  0.7714  2.3513 -0.2658
  109OSM    C6S11228   0.126   6.234   9.920  0.3933 -0.3140 -0.3467
  109OSM    H6S11229   0.020   6.260   9.944  1.1290  2.8740 -0.3463
  109OSM    H6T11230   0.137   6.131   9.879 -0.2918 -0.0613 -1.1858
  109OSM    C7S11231   0.182   6.341   9.830  0.2350  0.3769  0.2938
  109OSM    H7S11232   0.292   6.327   9.823  0.4149  1.0507  1.6310
  109OSM    H7T11233   0.160   6.445   9.862  1.7642  0.3089  1.6466
  109OSM    C8S11234   0.132   6.325   9.687 -0.9435  0.1139 -0.1128
  109OSM    H8S11235   0.027   6.350   9.662 -1.7219 -0.4360  2.3641
  109OSM    H8T11236   0.132   6.217   9.660 -0.0707  0.7134 -2.5787
  109OSM    C9S11237   0.222   6.398   9.588  0.7647 -0.7274 -0.3562
  109OSM    H9S11238   0.326   6.361   9.599  1.2847  0.2627 -1.6943
  109OSM    H9T11239   0.228   6.507   9.612  0.9862 -1.2230  1.9598
  109OSM   C10S11240   0.183   6.381   9.437 -0.3655 -0.8752  0.1612
  109OSM   H10S11241   0.081   6.417   9.412 -0.6354  0.3702  2.7952
  109OSM   H10T11242   0.187   6.273   9.412  0.5895 -0.8605  0.2550
  109OSM   C11S11243   0.279   6.461   9.346  0.3245 -0.0717 -0.6620
  109OSM   H11S11244   0.381   6.455   9.387 -0.1941 -0.7399  0.5514
  109OSM   H11T11245   0.252   6.569   9.345  1.4167  0.1998 -0.8108
  109OSM   C12S11246   0.298   6.423   9.196  0.4200  0.0994 -1.1967
  109OSM   H12S11247   0.334   6.318   9.196 -1.1340 -0.5115  2.2692
  109OSM   H12T11248   0.383   6.483   9.158 -0.3817  2.4275  0.5815
  109OSM   C13S11249   0.165   6.438   9.116  0.6760 -0.0766  0.7500
  109OSM   H13S11250   0.155   6.548   9.105  1.9252 -0.1221 -1.2977
  109OSM   H13T11251   0.081   6.385   9.166 -0.7753  0.9870 -0.4893
  109OSM   C14S11252   0.167   6.381   8.975  0.2014 -0.6867  0.4570
  109OSM   H14S11253   0.080   6.416   8.915  0.7916 -0.2326 -0.1401
  109OSM   H14T11254   0.134   6.276   8.989 -2.2020 -0.7318 -4.2840
  109OSM   C15S11255   0.288   6.409   8.885 -0.4649 -1.1320 -0.1621
  109OSM   H15S11256   0.388   6.377   8.923  0.6072 -0.6502 -2.5181
  109OSM   H15T11257   0.298   6.518   8.872 -0.9935 -0.8676  1.4601
  109OSM   C16S11258   0.271   6.335   8.748  0.3456 -0.1744 -0.2951
  109OSM   H16S11259   0.183   6.371   8.690  1.0664 -1.7482 -2.4224
  109OSM   H16T11260   0.256   6.225   8.758 -1.2618  0.0493 -0.1283
  109OSM   C17S11261   0.391   6.344   8.662  0.0945 -0.2256 -0.0626
  109OSM   H17S11262   0.474   6.315   8.730  0.2721  0.1769 -0.1089
  109OSM   H17T11263   0.403   6.447   8.622 -3.0255 -0.4200 -1.6209
  109OSM   C18S11264   0.393   6.240   8.553 -0.0701 -0.6442 -0.0172
  109OSM   H18S11265   0.375   6.138   8.593  0.1776 -0.4916  0.4866
  109OSM   H18T11266   0.480   6.231   8.485 -1.3264  1.7473 -2.0406
  109OSM   H18U11267   0.312   6.271   8.483 -1.0151  0.0909  1.3709
  109OSM    C1F11268   0.413   6.577  10.222  0.7133  0.2227  0.3085
  109OSM     OF11269   0.534   6.551  10.242  0.3345  0.1563  0.2734
  109OSM    C2F11270   0.379   6.703  10.157  0.8554  0.0165 -0.6849
  109OSM    H2F11271   0.442   6.789  10.186 -3.7692  3.1290  0.7576
  109OSM    H2G11272   0.280   6.748  10.181  0.0713 -1.3635 -1.2426
  109OSM    C3F11273   0.401   6.697  10.001 -0.5846 -0.0262  0.5044
  109OSM    H3F11274   0.349   6.607   9.965 -0.1136  0.2953 -1.0088
  109OSM    H3G11275   0.509   6.683   9.976 -0.5010  0.7873  0.3690
  109OSM    C4F11276   0.362   6.827   9.921  0.5191 -0.5675 -0.3093
  109OSM    H4F11277   0.437   6.908   9.930  0.3686 -0.2520 -1.7123
  109OSM    H4G11278   0.262   6.847   9.966  0.5803 -0.8081 -0.0667
  109OSM    C5F11279   0.344   6.793   9.771  0.1849 -0.0802  1.3914
  109OSM    H5F11280   0.296   6.876   9.715 -1.3306 -1.1305  1.1046
  109OSM    H5G11281   0.272   6.709   9.762 -0.3951  0.5182  0.4288
  109OSM    C6F11282   0.469   6.759   9.694 -0.2192 -0.0438 -0.5245
  109OSM    H6F11283   0.496   6.654   9.717 -0.2738 -0.0755 -0.6056
  109OSM    H6G11284   0.549   6.828   9.729 -0.5319  1.0031 -1.8254
  109OSM    C7F11285   0.461   6.742   9.541  0.2783 -0.3409  0.0723
  109OSM    H7F11286   0.395   6.656   9.515  1.8079 -1.0227 -1.6189
  109OSM    H7G11287   0.559   6.698   9.514  0.9622  0.4815  1.1978
  109OSM    C8F11288   0.435   6.872   9.468  0.5222  0.9392  0.1847
  109OSM    H8F11289   0.517   6.934   9.509  2.5792 -0.6279 -1.4272
  109OSM    H8G11290   0.336   6.909   9.500  0.0166 -0.4297  0.2308
  109OSM    C9F11291   0.436   6.860   9.321  0.0765  0.1068  0.3588
  109OSM    H9F11292   0.361   6.793   9.278  1.6331 -1.6929  0.3807
  109OSM   C10F11293   0.519   6.926   9.235  0.4957  0.1432  0.2755
  109OSM   H10F11294   0.506   6.902   9.128  2.1353 -2.1371  0.5265
  109OSM   C11F11295   0.632   7.018   9.280  0.5375  0.1490  0.0134
  109OSM   H11F11296   0.726   6.959   9.281  2.1711  2.6249 -1.8952
  109OSM   H11G11297   0.602   7.041   9.385 -0.5970 -0.7531 -0.0960
  109OSM   C12F11298   0.648   7.148   9.206 -0.0930 -0.2771  0.2955
  109OSM   H12F11299   0.725   7.211   9.257 -1.8236  2.0866  0.1017
  109OSM   H12G11300   0.560   7.216   9.204  0.3551  0.4393  2.4143
  109OSM   C13F11301   0.705   7.124   9.066 -0.4511 -0.4922 -0.0762
  109OSM   H13F11302   0.637   7.057   9.008 -2.3871  0.5595  0.9794
  109OSM   H13G11303   0.809   7.087   9.078 -0.3241  0.4673  1.8543
  109OSM   C14F11304   0.714   7.262   8.993 -0.1734  0.3246  0.0844
  109OSM   H14F11305   0.774   7.334   9.052  0.9820  0.4633 -1.2503
  109OSM   H14G11306   0.612   7.307   8.995 -0.2820  0.1248 -0.9718
  109OSM   C15F11307   0.767   7.248   8.853 -0.3623 -0.3933 -0.2932
  109OSM   H15F11308   0.872   7.213   8.859 -0.2587 -0.1991 -0.9682
  109OSM   H15G11309   0.771   7.346   8.802 -1.8975 -1.1228 -1.9074
  109OSM   C16F11310   0.673   7.171   8.763  0.4993 -0.8936 -0.2581
  109OSM   H16F11311   0.571   7.213   8.751  0.9382  0.5590  0.9382
  109OSM   H16G11312   0.662   7.068   8.801  2.9157 -1.2370 -0.4081
  109OSM   C17F11313   0.731   7.164   8.623  1.2818 -0.1443 -0.0399
  109OSM   H17F11314   0.821   7.103   8.644  0.4459 -1.3639 -0.0183
  109OSM   H17G11315   0.759   7.269   8.598  1.3105 -0.1121  0.1302
  109OSM   C18F11316   0.634   7.116   8.511 -0.1763  0.1576 -0.4945
  109OSM   H18F11317   0.695   7.104   8.419 -0.6648 -0.7069 -0.7084
  109OSM   H18G11318   0.562   7.200   8.509  1.1853  1.3570  0.3795
  109OSM   H18H11319   0.588   7.019   8.540  0.0220  0.4760  0.9079
  110OSM      N11320   2.176   5.910  11.011 -0.0730  0.5662 -0.6040
  110OSM    C1511321   2.065   6.010  11.053 -0.5492  0.1278  0.7696
  110OSM   H15A11322   2.071   6.108  11.009 -1.3515  0.5922  1.6748
  110OSM   H15B11323   2.080   6.020  11.160  0.8367 -1.0382  0.6928
  110OSM   H15C11324   1.962   5.978  11.040 -0.2356 -0.7101  0.3009
  110OSM    C1411325   2.153   5.885  10.858 -0.5366 -0.8574 -0.4298
  110OSM   H14A11326   2.157   5.973  10.795 -0.8656 -1.5490 -1.4337
  110OSM   H14B11327   2.059   5.835  10.845 -1.4511  0.1732  1.8877
  110OSM   H14C11328   2.229   5.816  10.823  1.3321  0.3817  1.0442
  110OSM    C1311329   2.310   5.981  11.021 -0.4969  0.3332 -0.4680
  110OSM   H13A11330   2.332   6.008  11.123 -0.9885  1.5835 -0.6850
  110OSM   H13B11331   2.310   6.077  10.973  0.1381  0.5820  0.0257
  110OSM   H13C11332   2.395   5.923  10.990  0.5612  1.5358  0.1494
  110OSM    C1211333   2.166   5.782  11.091  0.3477 -0.2577  0.2501
  110OSM   H12A11334   2.198   5.800  11.192  3.2347 -2.3343 -0.2668
  110OSM   H12B11335   2.230   5.710  11.043 -0.6252 -1.8655  1.3343
  110OSM    C1111336   2.024   5.720  11.098 -0.1219  1.1413  0.0903
  110OSM   H11A11337   1.953   5.796  11.136 -0.4368  0.5239  0.7426
  110OSM   H11B11338   2.019   5.644  11.179  0.7837  2.1670  1.1229
  110OSM      P11339   2.006   5.526  10.933  0.0248  0.1993  0.2517
  110OSM    O1311340   2.143   5.492  10.977 -0.1695  0.7174  0.0309
  110OSM    O1411341   1.887   5.450  10.985  0.1622 -0.0684  0.1282
  110OSM    O1111342   2.001   5.522  10.781 -0.5461  1.1709  0.4039
  110OSM    O1211343   1.974   5.680  10.968  0.0597 -0.3826 -0.8434
  110OSM    C1S11344   1.898   5.583  10.703 -0.6005 -0.6354  0.4272
  110OSM    H1S11345   1.920   5.691  10.689 -0.2928 -0.7583 -0.0357
  110OSM    H1T11346   1.796   5.578  10.746  0.0902 -0.7107  2.0869
  110OSM     NF11347   1.773   5.565  10.501  0.4095 -0.6482  0.2743
  110OSM    HNF11348   1.690   5.509  10.499 -0.0922  0.0244  1.4747
  110OSM    C2S11349   1.880   5.505  10.568  0.1853  0.2372 -0.3325
  110OSM    H2S11350   1.974   5.511  10.510  1.0041 -1.7035  0.7298
  110OSM    C3S11351   1.871   5.350  10.591 -1.2231  0.4066 -0.3669
  110OSM    H3S11352   1.789   5.332  10.665 -1.7627  1.4800 -0.6892
  110OSM     O311353   1.984   5.285  10.656 -0.8944  0.4495  0.1150
  110OSM    HO311354   2.037   5.356  10.692 -2.6333  2.2329 -0.8036
  110OSM    C4S11355   1.845   5.275  10.467  0.1538 -0.3206  0.3464
  110OSM    H4S11356   1.741   5.239  10.462  0.7125 -2.2314  1.7753
  110OSM    C5S11357   1.922   5.241  10.364 -0.2788  0.2059 -0.0703
  110OSM    H5S11358   2.026   5.274  10.351  0.3747 -1.7751 -0.0537
  110OSM    C6S11359   1.872   5.163  10.243  0.0694  0.2967  0.1982
  110OSM    H6S11360   1.922   5.063  10.238 -0.6428 -0.2736  3.4337
  110OSM    H6T11361   1.912   5.220  10.157 -1.2114  2.2021  0.8476
  110OSM    C7S11362   1.728   5.134  10.216  0.3322  0.0317  0.7007
  110OSM    H7S11363   1.664   5.225  10.221 -2.3991 -1.6613 -1.7918
  110OSM    H7T11364   1.690   5.073  10.301  1.0052  1.3289  1.9489
  110OSM    C8S11365   1.702   5.082  10.078  0.3463  0.0465 -0.1408
  110OSM    H8S11366   1.598   5.043  10.079  0.1975  0.4338  1.4238
  110OSM    H8T11367   1.768   4.993  10.074  1.9397  1.1496  0.7779
  110OSM    C9S11368   1.718   5.173   9.956 -0.0585 -0.1586 -0.4384
  110OSM    H9S11369   1.809   5.237   9.967 -0.8216  0.5599  1.9925
  110OSM    H9T11370   1.630   5.241   9.956 -0.2653 -0.3979  2.1229
  110OSM   C10S11371   1.728   5.091   9.818  0.1813  0.1517  0.0268
  110OSM   H10S11372   1.635   5.033   9.800 -0.1930  0.7817 -0.0572
  110OSM   H10T11373   1.806   5.015   9.841 -1.0234 -0.6203  1.6659
  110OSM   C11S11374   1.783   5.173   9.706  0.1179 -0.2009  0.0062
  110OSM   H11S11375   1.885   5.212   9.727  0.3384  0.2027 -1.7701
  110OSM   H11T11376   1.724   5.266   9.691  0.9947  0.3139 -0.2640
  110OSM   C12S11377   1.787   5.094   9.578 -0.2078 -0.4570  0.2270
  110OSM   H12S11378   1.685   5.053   9.557 -0.0744  0.3180 -2.0599
  110OSM   H12T11379   1.856   5.008   9.594 -0.1686 -0.0986  2.0998
  110OSM   C13S11380   1.821   5.180   9.456  0.3067  0.6968 -0.0402
  110OSM   H13S11381   1.899   5.247   9.497  2.7292 -1.9976 -0.0260
  110OSM   H13T11382   1.723   5.230   9.445  0.5805  1.3669  0.5744
  110OSM   C14S11383   1.864   5.091   9.334  0.8993  0.5212  0.1167
  110OSM   H14S11384   1.798   5.002   9.329 -0.0195  1.2961 -2.4608
  110OSM   H14T11385   1.972   5.065   9.333  1.1576  1.5610  0.1760
  110OSM   C15S11386   1.843   5.161   9.199 -0.5207 -0.1989 -0.0610
  110OSM   H15S11387   1.877   5.266   9.208  1.8985 -0.9297 -0.4643
  110OSM   H15T11388   1.734   5.166   9.180 -0.7532 -2.0121  0.7223
  110OSM   C16S11389   1.909   5.090   9.079  0.0364 -0.9704  0.8184
  110OSM   H16S11390   1.884   4.984   9.098  1.2328 -1.5271 -0.5776
  110OSM   H16T11391   2.018   5.112   9.083  0.3651 -2.2936 -0.4405
  110OSM   C17S11392   1.868   5.128   8.938 -0.2957  0.0512  0.6812
  110OSM   H17S11393   1.757   5.126   8.940 -0.2482 -3.2314  2.3886
  110OSM   H17T11394   1.909   5.064   8.857  0.9186  3.3426 -1.3982
  110OSM   C18S11395   1.908   5.269   8.889 -0.6702  0.2613 -0.7462
  110OSM   H18S11396   2.018   5.282   8.895 -0.6667  0.8793 -1.9378
  110OSM   H18T11397   1.853   5.350   8.941 -2.0240  0.1763 -2.0107
  110OSM   H18U11398   1.871   5.269   8.784 -0.2183  0.7684 -0.9061
  110OSM    C1F11399   1.767   5.677  10.430  0.3475  0.2352 -0.3420
  110OSM     OF11400   1.873   5.732  10.399 -0.5783 -0.0341  0.0590
  110OSM    C2F11401   1.630   5.712  10.385 -0.2582 -0.2541 -0.0022
  110OSM    H2F11402   1.557   5.712  10.468 -0.6100  0.5541 -0.3067
  110OSM    H2G11403   1.593   5.638  10.312  1.4296 -2.8938  1.7404
  110OSM    C3F11404   1.623   5.844  10.316  0.1036 -0.4987  0.7248
  110OSM    H3F11405   1.700   5.860  10.238  1.8448 -1.1492  2.2876
  110OSM    H3G11406   1.645   5.917  10.396 -2.4492 -1.6264  2.5139
  110OSM    C4F11407   1.488   5.882  10.248 -1.0482 -0.0600 -0.5534
  110OSM    H4F11408   1.407   5.889  10.324  1.4162 -0.7234  2.2439
  110OSM    H4G11409   1.457   5.796  10.185 -0.9905 -1.4228  1.2474
  110OSM    C5F11410   1.490   5.997  10.150 -0.5429  0.4095 -0.0593
  110OSM    H5F11411   1.577   5.979  10.082  0.2313 -0.4631  1.1416
  110OSM    H5G11412   1.521   6.091  10.199  1.0425  1.1296 -2.3364
  110OSM    C6F11413   1.366   6.016  10.065  0.5982  0.5581  0.3564
  110OSM    H6F11414   1.272   6.022  10.124 -0.9299  0.2951 -2.0056
  110OSM    H6G11415   1.356   5.922  10.006  1.0400  1.4537 -1.1687
  110OSM    C7F11416   1.382   6.128   9.958 -0.2911  0.0512 -0.2548
  110OSM    H7F11417   1.471   6.099   9.898  0.7260 -1.5755  1.9620
  110OSM    H7G11418   1.415   6.211  10.025 -0.3454 -1.2368  1.3984
  110OSM    C8F11419   1.251   6.150   9.884  0.1987  0.1259 -0.0222
  110OSM    H8F11420   1.158   6.171   9.941 -0.7072 -1.7675 -0.7762
  110OSM    H8G11421   1.234   6.050   9.839 -0.4371  1.0297 -1.8455
  110OSM    C9F11422   1.279   6.251   9.776  0.8779  0.1761 -0.6322
  110OSM    H9F11423   1.312   6.350   9.813  1.6045 -0.6911  1.0761
  110OSM   C10F11424   1.262   6.241   9.643  0.1132 -0.5340 -0.1556
  110OSM   H10F11425   1.267   6.331   9.580 -0.9184  0.6806  1.4647
  110OSM   C11F11426   1.207   6.125   9.564  0.1906 -0.3165  0.8174
  110OSM   H11F11427   1.098   6.139   9.554  0.5947  3.2842  0.9802
  110OSM   H11G11428   1.231   6.026   9.608  1.6060 -1.3067 -2.0049
  110OSM   C12F11429   1.265   6.134   9.420 -0.1915  0.1837 -0.1394
  110OSM   H12F11430   1.251   6.036   9.370  0.2521  0.4877 -0.8829
  110OSM   H12G11431   1.374   6.151   9.408 -0.2484 -1.3752 -3.6997
  110OSM   C13F11432   1.194   6.240   9.341 -1.2401  0.2053 -0.4557
  110OSM   H13F11433   1.185   6.338   9.392 -3.2380  1.2327 -2.6796
  110OSM   H13G11434   1.086   6.216   9.328 -2.0080  2.1325  1.9404
  110OSM   C14F11435   1.268   6.264   9.211  0.1609 -0.1354 -0.4064
  110OSM   H14F11436   1.285   6.171   9.153 -0.6512  0.2091 -1.2000
  110OSM   H14G11437   1.364   6.309   9.246 -1.0552  1.2400  1.2940
  110OSM   C15F11438   1.177   6.356   9.128  0.1618  0.1615  0.4044
  110OSM   H15F11439   1.162   6.449   9.188  0.3986  0.3213  0.2143
  110OSM   H15G11440   1.078   6.311   9.106 -0.1484  1.6683 -1.3909
  110OSM   C16F11441   1.250   6.397   8.996 -0.0593  0.5730 -0.1336
  110OSM   H16F11442   1.287   6.310   8.937  1.0391  0.1834  1.1225
  110OSM   H16G11443   1.341   6.453   9.024  0.5917 -0.8287  0.5980
  110OSM   C17F11444   1.174   6.486   8.900 -0.1898  0.9839 -0.6187
  110OSM   H17F11445   1.246   6.539   8.834  1.1076 -1.9736 -1.6334
  110OSM   H17G11446   1.119   6.565   8.956  0.7740  1.2808 -0.0907
  110OSM   C18F11447   1.081   6.407   8.806 -0.5276  0.2314  0.0013
  110OSM   H18F11448   1.017   6.477   8.748  2.2477  2.6407 -0.2666
  110OSM   H18G11449   1.014   6.339   8.863  1.7977 -2.7532 -0.6644
  110OSM   H18H11450   1.145   6.345   8.739 -2.2320  2.4583 -3.8340
  111OSM      N11451   2.877   1.632  11.113 -0.1363  0.4036 -0.6881
  111OSM    C1511452   2.822   1.492  11.108  0.4360  0.1527 -0.0890
  111OSM   H15A11453   2.728   1.481  11.162  0.0061  1.9972 -0.3963
  111OSM   H15B11454   2.893   1.423  11.150  1.2437 -0.1668 -1.9443
  111OSM   H15C11455   2.810   1.455  11.008 -0.9347  3.0988 -1.0834
  111OSM    C1411456   2.922   1.650  11.251  0.5324  0.1072 -0.4659
  111OSM   H14A11457   2.991   1.575  11.290  0.4450  0.3748  0.2110
  111OSM   H14B11458   2.836   1.653  11.316  0.6196 -1.6957 -0.2211
  111OSM   H14C11459   2.972   1.745  11.254 -0.8450  0.8335 -0.2229
  111OSM    C1311460   2.994   1.649  11.023 -0.0442 -0.7621 -0.0400
  111OSM   H13A11461   3.033   1.749  11.030 -0.3674 -0.4505 -2.3043
  111OSM   H13B11462   2.956   1.641  10.922  0.3854  0.8797 -0.3370
  111OSM   H13C11463   3.071   1.575  11.041  1.3603  1.2272  2.3446
  111OSM    C1211464   2.769   1.728  11.092 -0.0174 -0.5588  0.6795
  111OSM   H12A11465   2.820   1.822  11.105  0.2965 -0.6853  0.3764
  111OSM   H12B11466   2.687   1.719  11.162  0.9377  0.4528  1.9545
  111OSM    C1111467   2.707   1.734  10.947 -0.4329  1.3449  0.0784
  111OSM   H11A11468   2.629   1.812  10.955 -0.6621  1.0274  1.0022
  111OSM   H11B11469   2.662   1.633  10.932 -2.8172  2.7003 -2.3873
  111OSM      P11470   2.845   1.905  10.815 -0.0103  0.2744  0.1925
  111OSM    O1311471   2.816   1.979  10.943 -0.4636 -0.1018 -0.2149
  111OSM    O1411472   2.984   1.916  10.763 -0.1465  0.0467  0.3957
  111OSM    O1111473   2.744   1.953  10.698  0.7376 -0.1109 -0.2374
  111OSM    O1211474   2.800   1.752  10.840  0.0896  0.2512 -0.0084
  111OSM    C1S11475   2.732   1.877  10.573 -0.2542  0.1711 -1.2055
  111OSM    H1S11476   2.681   1.780  10.585  0.3737 -0.2165 -1.6939
  111OSM    H1T11477   2.834   1.852  10.538  0.2242  0.3473  0.0100
  111OSM     NF11478   2.695   1.877  10.330 -0.0488  0.4104  0.9384
  111OSM    HNF11479   2.737   1.913  10.247 -0.7677  0.6948  0.6910
  111OSM    C2S11480   2.682   1.962  10.446 -0.2029 -0.6856  0.2862
  111OSM    H2S11481   2.575   1.982  10.468 -0.1361 -0.8519  0.7722
  111OSM    C3S11482   2.756   2.094  10.433  0.0533 -0.6187 -0.2848
  111OSM    H3S11483   2.861   2.072  10.405  1.6342  2.8880  2.5008
  111OSM     O311484   2.761   2.165  10.557 -0.6663  0.6855  0.1457
  111OSM    HO311485   2.745   2.100  10.626  1.5034  0.7993  0.7714
  111OSM    C4S11486   2.700   2.188  10.325 -0.7680  0.0786  0.2600
  111OSM    H4S11487   2.752   2.172  10.230 -0.7865 -0.5170  0.3502
  111OSM    C5S11488   2.601   2.275  10.330 -0.1134  0.0710 -0.3354
  111OSM    H5S11489   2.543   2.284  10.423 -1.1356 -0.6466 -0.8973
  111OSM    C6S11490   2.551   2.356  10.220 -0.7876 -0.6772  0.2895
  111OSM    H6S11491   2.552   2.464  10.243 -3.3824 -0.2915 -1.2881
  111OSM    H6T11492   2.443   2.335  10.207 -1.0559  1.1983 -0.5588
  111OSM    C7S11493   2.609   2.328  10.079  0.3171  0.4366 -0.2036
  111OSM    H7S11494   2.570   2.229  10.046 -1.7487  0.9023  0.8076
  111OSM    H7T11495   2.719   2.335  10.092  0.0334  4.6576  0.6851
  111OSM    C8S11496   2.561   2.432   9.982 -0.1435  0.0172 -0.3938
  111OSM    H8S11497   2.582   2.533  10.025  2.3879  0.2468 -1.9946
  111OSM    H8T11498   2.451   2.428   9.970 -0.2887  0.4082  0.7658
  111OSM    C9S11499   2.629   2.419   9.846  0.1477 -0.0763 -0.7703
  111OSM    H9S11500   2.646   2.314   9.813 -0.3356  0.0824 -1.5322
  111OSM    H9T11501   2.733   2.458   9.843 -0.1731  1.1511  1.8924
  111OSM   C10S11502   2.533   2.469   9.742 -0.6634  0.4885  0.2189
  111OSM   H10S11503   2.472   2.553   9.780  0.7155  1.1693  0.9395
  111OSM   H10T11504   2.472   2.379   9.716 -0.5429  0.6562 -0.6694
  111OSM   C11S11505   2.609   2.516   9.615  0.7130  0.1660  0.2297
  111OSM   H11S11506   2.687   2.590   9.642  1.6309 -1.4102  2.1059
  111OSM   H11T11507   2.527   2.565   9.558  0.1495  0.5043  1.2988
  111OSM   C12S11508   2.669   2.412   9.523 -0.2517  0.4324 -0.4941
  111OSM   H12S11509   2.606   2.320   9.521  0.3796 -0.0361  1.0875
  111OSM   H12T11510   2.765   2.370   9.559 -1.3390 -1.1156  0.6644
  111OSM   C13S11511   2.664   2.460   9.380 -0.7921  0.5652 -0.3132
  111OSM   H13S11512   2.720   2.555   9.376  1.4751 -0.6878  0.4757
  111OSM   H13T11513   2.563   2.483   9.340  0.0228  0.5973 -2.4491
  111OSM   C14S11514   2.731   2.361   9.280 -0.4920  0.4120  0.7541
  111OSM   H14S11515   2.662   2.275   9.274  0.8587 -0.5703 -1.6508
  111OSM   H14T11516   2.830   2.326   9.319  0.7988  1.5998 -1.3795
  111OSM   C15S11517   2.762   2.420   9.148 -0.0980 -0.3011  0.2855
  111OSM   H15S11518   2.833   2.505   9.156  2.9665 -2.3046 -4.0758
  111OSM   H15T11519   2.669   2.461   9.104 -0.1911 -0.0362  0.7190
  111OSM   C16S11520   2.817   2.321   9.045 -0.0914 -0.0879 -0.2808
  111OSM   H16S11521   2.736   2.248   9.026 -0.4098  0.0809  0.4328
  111OSM   H16T11522   2.895   2.269   9.105 -1.0541 -1.3273 -0.0734
  111OSM   C17S11523   2.880   2.379   8.920  0.1585  0.5833  0.0327
  111OSM   H17S11524   2.950   2.302   8.880  0.5102  1.4545 -1.0498
  111OSM   H17T11525   2.928   2.474   8.951  1.8832 -0.3682  0.3275
  111OSM   C18S11526   2.780   2.394   8.809  0.1557 -0.0505  0.6268
  111OSM   H18S11527   2.828   2.439   8.719 -1.2223  1.7977  0.7853
  111OSM   H18T11528   2.705   2.472   8.837 -1.3538 -0.6843 -1.5080
  111OSM   H18U11529   2.738   2.298   8.772  2.6358 -0.4765 -1.2088
  111OSM    C1F11530   2.618   1.771  10.316 -0.1278 -0.3532  0.1511
  111OSM     OF11531   2.527   1.758  10.397 -0.3610 -0.0276 -0.1321
  111OSM    C2F11532   2.640   1.683  10.194 -0.1935 -0.5019 -0.4302
  111OSM    H2F11533   2.749   1.687  10.172  0.0323  0.7699  0.8439
  111OSM    H2G11534   2.575   1.716  10.110  0.3364 -1.9051 -1.4241
  111OSM    C3F11535   2.632   1.538  10.229 -0.2216 -0.4914  0.2663
  111OSM    H3F11536   2.533   1.521  10.277  0.7117 -0.8292  2.1470
  111OSM    H3G11537   2.706   1.490  10.297  0.2689 -1.3703 -0.8594
  111OSM    C4F11538   2.626   1.443  10.104 -0.2445  0.2803  0.0009
  111OSM    H4F11539   2.563   1.493  10.027 -0.7764 -1.0383 -0.4448
  111OSM    H4G11540   2.569   1.350  10.128  1.5919 -1.1427 -1.0354
  111OSM    C5F11541   2.758   1.400  10.050 -0.3930 -0.1375 -0.9186
  111OSM    H5F11542   2.813   1.341  10.126  2.0346 -0.4529 -2.8794
  111OSM    H5G11543   2.825   1.484  10.022  0.7941 -1.3357 -1.7333
  111OSM    C6F11544   2.745   1.298   9.939  0.4219 -0.0411  0.3064
  111OSM    H6F11545   2.658   1.235   9.965 -1.9185  2.9459  0.0031
  111OSM    H6G11546   2.844   1.248   9.927  1.4364  1.1953  3.0743
  111OSM    C7F11547   2.738   1.359   9.794  0.3534 -0.6014 -0.0404
  111OSM    H7F11548   2.834   1.415   9.784 -0.7846  1.2812 -0.8520
  111OSM    H7G11549   2.662   1.440   9.794 -0.5814 -1.4369 -2.3463
  111OSM    C8F11550   2.704   1.264   9.685 -0.1080 -0.0814 -0.0567
  111OSM    H8F11551   2.666   1.334   9.608  1.2732  1.7096  0.8548
  111OSM    H8G11552   2.629   1.190   9.723 -0.4202  0.6878  0.8536
  111OSM    C9F11553   2.824   1.184   9.627  0.5297  0.0784  0.5898
  111OSM    H9F11554   2.906   1.157   9.695  0.2955 -3.2511 -0.3437
  111OSM   C10F11555   2.851   1.151   9.498  0.4705 -0.7079 -0.3661
  111OSM   H10F11556   2.943   1.096   9.476  0.0586 -1.9041  0.8053
  111OSM   C11F11557   2.758   1.170   9.385 -0.1752 -0.1963 -0.7299
  111OSM   H11F11558   2.647   1.166   9.394 -0.0343  1.0841  2.0345
  111OSM   H11G11559   2.803   1.100   9.311 -0.3321  0.2445 -1.2469
  111OSM   C12F11560   2.794   1.306   9.317 -0.2916 -0.4353  0.4402
  111OSM   H12F11561   2.896   1.343   9.337 -0.7461  1.2149 -0.2295
  111OSM   H12G11562   2.724   1.377   9.366 -2.5865 -2.2917 -0.0075
  111OSM   C13F11563   2.761   1.312   9.166  0.6489 -0.6868  1.0848
  111OSM   H13F11564   2.785   1.414   9.130  0.1193 -0.7812  0.4351
  111OSM   H13G11565   2.650   1.300   9.159  0.4862  1.3874 -0.3570
  111OSM   C14F11566   2.851   1.221   9.073 -0.0025 -0.3108  0.6962
  111OSM   H14F11567   2.818   1.116   9.090 -2.6757  0.6779  1.8341
  111OSM   H14G11568   2.959   1.238   9.094  0.0634  0.5395 -0.2816
  111OSM   C15F11569   2.825   1.257   8.922  0.6128  0.4937 -0.1154
  111OSM   H15F11570   2.867   1.357   8.901 -1.9789  1.2069 -2.0623
  111OSM   H15G11571   2.715   1.257   8.909  0.5296  1.0010  0.5383
  111OSM   C16F11572   2.902   1.148   8.837 -0.3956 -0.5397  0.7778
  111OSM   H16F11573   2.870   1.045   8.865 -0.8274 -1.2753 -2.2471
  111OSM   H16G11574   3.008   1.161   8.868 -0.2387  0.4633 -0.1588
  111OSM   C17F11575   2.888   1.167   8.688 -0.6793  0.4125 -0.6558
  111OSM   H17F11576   2.932   1.265   8.661  0.9644  0.1851  1.0745
  111OSM   H17G11577   2.778   1.175   8.673 -1.1204  0.3688  2.2958
  111OSM   C18F11578   2.943   1.053   8.602 -0.0494 -0.2589 -0.6029
  111OSM   H18F11579   2.885   0.959   8.606 -0.0083 -0.2257  1.7367
  111OSM   H18G11580   3.045   1.023   8.635 -0.2349 -0.1496  0.0958
  111OSM   H18H11581   2.949   1.082   8.495  3.1519 -1.1960 -0.7303
  112OSM      N11582   3.356   6.719  11.193 -0.1276  0.0397  0.0288
  112OSM    C1511583   3.269   6.610  11.154 -0.0131 -0.5172 -0.7054
  112OSM   H15A11584   3.165   6.619  11.181  1.0496 -1.7985  4.3541
  112OSM   H15B11585   3.300   6.518  11.201 -1.0488 -2.0047 -2.8560
  112OSM   H15C11586   3.257   6.594  11.048 -2.0466 -1.7856 -0.3120
  112OSM    C1411587   3.387   6.711  11.341 -0.7660 -0.1629 -0.0971
  112OSM   H14A11588   3.295   6.714  11.397 -0.7897 -0.4904 -0.1224
  112OSM   H14B11589   3.455   6.788  11.376 -1.5154  0.8021 -0.7563
  112OSM   H14C11590   3.441   6.619  11.359 -0.5165 -0.3318 -1.6573
  112OSM    C1311591   3.482   6.699  11.127 -0.0243  0.0941 -0.0676
  112OSM   H13A11592   3.547   6.782  11.152 -0.1780 -0.2764  1.6812
  112OSM   H13B11593   3.474   6.701  11.020  0.8177 -1.7014 -0.1802
  112OSM   H13C11594   3.523   6.602  11.152 -1.6358  0.4380  4.5430
  112OSM    C1211595   3.300   6.856  11.161 -0.2063 -0.8280 -0.2203
  112OSM   H12A11596   3.363   6.929  11.209 -3.2571  0.0208  2.7095
  112OSM   H12B11597   3.211   6.868  11.221 -1.9034 -1.5692 -2.5241
  112OSM    C1111598   3.260   6.891  11.007  0.2499  0.8395 -0.9855
  112OSM   H11A11599   3.352   6.882  10.945  0.5224 -0.6426 -0.3869
  112OSM   H11B11600   3.242   7.001  11.007  0.4556  1.0216  4.1372
  112OSM      P11601   3.006   6.808  11.025 -0.3231  0.5466  0.3215
  112OSM    O1311602   3.003   6.697  11.116 -0.8193 -0.3884 -0.2291
  112OSM    O1411603   2.973   6.938  11.084  0.3351 -0.5493  0.0717
  112OSM    O1111604   2.915   6.769  10.896  0.0439 -0.1224 -0.0211
  112OSM    O1211605   3.150   6.815  10.963  0.1558  0.2550 -0.3300
  112OSM    C1S11606   2.933   6.840  10.778  0.5709 -0.4086  0.0800
  112OSM    H1S11607   3.036   6.882  10.770  0.8214 -0.7176  1.5480
  112OSM    H1T11608   2.865   6.927  10.776  1.3204  0.1764 -0.1957
  112OSM     NF11609   2.920   6.841  10.523 -0.3513  0.0681  0.3315
  112OSM    HNF11610   2.845   6.898  10.489  0.7157  1.1375 -0.2525
  112OSM    C2S11611   2.900   6.766  10.647  0.3322 -0.0008 -0.0456
  112OSM    H2S11612   2.971   6.681  10.645 -0.0449 -0.3255  0.2841
  112OSM    C3S11613   2.758   6.694  10.657  0.0590 -0.9660  0.2016
  112OSM    H3S11614   2.680   6.772  10.671 -0.7224 -2.2273  3.2179
  112OSM     O311615   2.740   6.623  10.774  0.2344  0.3437 -0.2804
  112OSM    HO311616   2.819   6.651  10.821 -0.4744 -0.4994  1.4944
  112OSM    C4S11617   2.719   6.620  10.527  0.3699  0.1399 -0.0836
  112OSM    H4S11618   2.684   6.684  10.445  2.7233  0.7400 -0.6623
  112OSM    C5S11619   2.749   6.495  10.494  0.2678  0.3032 -0.1022
  112OSM    H5S11620   2.825   6.442  10.553 -0.8200 -3.1593 -1.6866
  112OSM    C6S11621   2.722   6.433  10.362 -1.3095  1.2218 -0.6024
  112OSM    H6S11622   2.651   6.502  10.313 -0.9374  1.3408 -0.9691
  112OSM    H6T11623   2.659   6.342  10.370 -0.8598  1.0063  0.7545
  112OSM    C7S11624   2.857   6.408  10.283  0.5272  0.3255  0.0056
  112OSM    H7S11625   2.919   6.328  10.330 -1.7914 -1.3668  0.2816
  112OSM    H7T11626   2.913   6.504  10.283  1.0998  0.0037  1.1242
  112OSM    C8S11627   2.825   6.357  10.147 -0.1870 -0.1043 -0.0856
  112OSM    H8S11628   2.749   6.426  10.105 -1.6079 -0.4233  1.9302
  112OSM    H8T11629   2.781   6.255  10.147  0.1128 -0.2519  2.0548
  112OSM    C9S11630   2.944   6.369  10.050  0.8438 -0.0843 -0.3308
  112OSM    H9S11631   3.032   6.319  10.095  2.4272  0.7965 -2.3509
  112OSM    H9T11632   2.979   6.473  10.030  1.2142 -0.3098 -0.8567
  112OSM   C10S11633   2.917   6.297   9.911 -0.0279  0.2750  0.5757
  112OSM   H10S11634   2.835   6.340   9.850 -0.5542 -1.0381  0.3560
  112OSM   H10T11635   2.901   6.189   9.929  0.8360 -0.1266 -0.9952
  112OSM   C11S11636   3.034   6.291   9.813 -0.7470 -0.6290  0.4515
  112OSM   H11S11637   3.119   6.232   9.853  1.7118  1.3078 -1.6812
  112OSM   H11T11638   3.081   6.390   9.793  0.8574 -1.6363 -0.8624
  112OSM   C12S11639   3.004   6.221   9.676 -0.2243 -0.0458 -0.2247
  112OSM   H12S11640   2.913   6.248   9.619  0.9126  0.5760 -1.7912
  112OSM   H12T11641   2.981   6.114   9.695  0.1164  0.0106  0.5095
  112OSM   C13S11642   3.130   6.228   9.581 -0.0876 -0.0794  0.0934
  112OSM   H13S11643   3.219   6.177   9.624  0.6695  2.2157  1.3181
  112OSM   H13T11644   3.159   6.334   9.570  0.3147 -0.0062  1.7573
  112OSM   C14S11645   3.094   6.156   9.453 -0.0347  0.5296  0.5576
  112OSM   H14S11646   3.018   6.212   9.395 -1.6318  1.2599  3.2488
  112OSM   H14T11647   3.048   6.056   9.472  0.9995 -0.5088 -2.2073
  112OSM   C15S11648   3.218   6.124   9.358 -0.2798  0.4399 -0.7298
  112OSM   H15S11649   3.302   6.095   9.425 -2.5695 -3.8148  0.5353
  112OSM   H15T11650   3.239   6.223   9.312  0.8721  0.8891  0.7223
  112OSM   C16S11651   3.193   6.024   9.247  0.1739 -0.6542 -0.3932
  112OSM   H16S11652   3.177   5.919   9.280  1.5589 -0.1257  2.0969
  112OSM   H16T11653   3.277   6.043   9.177 -0.1496 -2.9087 -1.4161
  112OSM   C17S11654   3.072   6.080   9.170  0.1707  0.2454  0.3434
  112OSM   H17S11655   3.093   6.189   9.162  0.4908  0.4622  3.7558
  112OSM   H17T11656   2.984   6.050   9.229  0.3524  1.7229  1.3861
  112OSM   C18S11657   3.058   6.044   9.025  0.0957 -0.2488 -0.1862
  112OSM   H18S11658   3.046   5.934   9.020  0.7429 -0.2933 -0.8657
  112OSM   H18T11659   3.142   6.073   8.958  0.1594 -1.5469 -0.6882
  112OSM   H18U11660   2.970   6.100   8.986 -0.0385  0.0111  0.4903
  112OSM    C1F11661   3.036   6.854  10.467 -0.0417 -0.6737 -0.1025
  112OSM     OF11662   3.133   6.798  10.518  0.6080 -0.0639  0.5759
  112OSM    C2F11663   3.043   6.920  10.335  0.5219  0.2649 -0.0218
  112OSM    H2F11664   3.143   6.961  10.309  0.4618  1.3766  1.4259
  112OSM    H2G11665   2.973   7.006  10.338 -0.3194 -0.3382 -1.7253
  112OSM    C3F11666   3.026   6.828  10.213  0.1854  0.0290 -0.6023
  112OSM    H3F11667   2.918   6.809  10.197  0.0618  0.5737 -0.4242
  112OSM    H3G11668   3.071   6.729  10.238 -0.2751 -0.5825 -2.1503
  112OSM    C4F11669   3.096   6.868  10.086  0.0634 -0.0881 -0.3509
  112OSM    H4F11670   3.206   6.870  10.095  0.1161 -0.8064 -0.7938
  112OSM    H4G11671   3.062   6.970  10.060  0.2662  1.0848  3.6340
  112OSM    C5F11672   3.054   6.787   9.965 -0.3238 -1.1259 -0.6249
  112OSM    H5F11673   2.947   6.813   9.951 -0.4061 -0.6501  0.7856
  112OSM    H5G11674   3.069   6.679   9.986 -0.0627 -0.8811  0.4683
  112OSM    C6F11675   3.125   6.836   9.839 -0.2800  0.8825 -0.4089
  112OSM    H6F11676   3.231   6.864   9.858 -0.0215 -1.0328  1.0581
  112OSM    H6G11677   3.072   6.927   9.802  0.0388  1.1083 -0.3139
  112OSM    C7F11678   3.133   6.734   9.732 -0.6663 -0.3248 -0.1469
  112OSM    H7F11679   3.152   6.635   9.778 -0.3216 -0.0611  0.2822
  112OSM    H7G11680   3.217   6.749   9.660 -1.4835  1.2023 -0.7980
  112OSM    C8F11681   3.001   6.722   9.644 -0.6074 -0.0105  0.2611
  112OSM    H8F11682   2.985   6.822   9.599 -0.6590  0.7030  1.8592
  112OSM    H8G11683   2.928   6.695   9.723 -1.5114 -1.7991 -1.1381
  112OSM    C9F11684   2.984   6.608   9.546  0.1567  0.4332  0.2614
  112OSM    H9F11685   2.952   6.512   9.591 -1.4195  1.9840  2.5747
  112OSM   C10F11686   2.975   6.620   9.415  0.2694  0.7150 -0.1348
  112OSM   H10F11687   2.965   6.532   9.349 -3.0726  1.1628 -0.3431
  112OSM   C11F11688   2.978   6.751   9.334  0.1858 -0.3039  0.0441
  112OSM   H11F11689   2.966   6.836   9.405 -0.7513 -0.8789  0.5888
  112OSM   H11G11690   2.894   6.744   9.261 -0.5272  0.8109  0.7358
  112OSM   C12F11691   3.104   6.766   9.250 -0.1637 -0.2558  0.2075
  112OSM   H12F11692   3.119   6.678   9.184  0.2842  0.1046 -0.1705
  112OSM   H12G11693   3.200   6.765   9.306  0.1725 -2.8081 -0.3470
  112OSM   C13F11694   3.106   6.886   9.153 -0.8756 -0.0204 -0.5013
  112OSM   H13F11695   3.206   6.885   9.105 -0.4532  1.6561  0.2771
  112OSM   H13G11696   3.084   6.971   9.222 -0.8393  0.1141 -0.6556
  112OSM   C14F11697   3.001   6.884   9.045 -0.5644 -0.0016  0.1283
  112OSM   H14F11698   3.002   6.986   9.001 -0.8711 -0.2826 -0.5381
  112OSM   H14G11699   2.903   6.879   9.097 -0.7102  0.2087 -0.1182
  112OSM   C15F11700   3.026   6.783   8.935  0.2000 -0.5456 -0.0520
  112OSM   H15F11701   3.065   6.686   8.973  0.5400 -1.4051 -2.5039
  112OSM   H15G11702   3.102   6.815   8.860 -0.1084  0.9217  0.2564
  112OSM   C16F11703   2.895   6.777   8.852  0.6936  0.0481  0.3979
  112OSM   H16F11704   2.809   6.768   8.921  0.6275 -0.5062  0.2401
  112OSM   H16G11705   2.903   6.678   8.803 -0.7566  0.7096 -1.2663
  112OSM   C17F11706   2.883   6.882   8.742 -0.3174  0.1593 -0.7244
  112OSM   H17F11707   2.986   6.918   8.723 -0.1890 -0.3699 -1.0677
  112OSM   H17G11708   2.825   6.965   8.787 -0.7756  0.6611 -2.2184
  112OSM   C18F11709   2.812   6.832   8.621  0.1278 -0.4929 -0.2666
  112OSM   H18F11710   2.842   6.736   8.574  0.3740 -1.1693  1.2386
  112OSM   H18G11711   2.812   6.920   8.554 -0.3382  0.4399  0.9516
  112OSM   H18H11712   2.708   6.811   8.652 -0.5084  0.4548 -1.7187
  113OSM      N11713   6.342   3.246  11.141 -0.2645 -0.4547  0.3400
  113OSM    C1511714   6.266   3.121  11.184  0.5421  0.1317  0.3536
  113OSM   H15A11715   6.180   3.150  11.242  0.4973 -1.3494  1.0268
  113OSM   H15B11716   6.323   3.048  11.238  2.5913 -0.3032 -2.2870
  113OSM   H15C11717   6.224   3.075  11.095 -0.7639  3.9142 -1.0891
  113OSM    C1411718   6.251   3.360  11.128 -0.3410  0.0082 -0.4479
  113OSM   H14A11719   6.167   3.347  11.061 -2.1844 -1.2152  2.0227
  113OSM   H14B11720   6.303   3.450  11.099  1.8326  0.2493  3.8474
  113OSM   H14C11721   6.196   3.384  11.218 -2.7093 -1.9473 -1.3109
  113OSM    C1311722   6.426   3.280  11.247 -0.2403  0.6688  0.5152
  113OSM   H13A11723   6.378   3.329  11.331 -0.9259  0.7905  0.0536
  113OSM   H13B11724   6.492   3.357  11.211 -0.0218  0.5626  0.6880
  113OSM   H13C11725   6.492   3.199  11.273 -1.7763 -0.0624  2.2874
  113OSM    C1211726   6.412   3.227  11.005  0.5248  0.4173 -0.2982
  113OSM   H12A11727   6.473   3.313  10.985  0.1662  0.7127 -0.1325
  113OSM   H12B11728   6.334   3.214  10.932 -0.7957 -3.1086  1.5983
  113OSM    C1111729   6.504   3.104  10.983 -0.1421 -0.0784 -0.3691
  113OSM   H11A11730   6.536   3.080  10.879  3.4482 -1.5078  1.0291
  113OSM   H11B11731   6.457   3.015  11.029  0.5062 -1.0167 -1.5017
  113OSM      P11732   6.740   3.208  11.031 -0.2654  0.6260  0.1540
  113OSM    O1311733   6.742   3.325  11.119 -0.5704 -0.2417  0.3138
  113OSM    O1411734   6.860   3.121  11.020 -0.0936  0.4234 -0.8576
  113OSM    O1111735   6.707   3.263  10.887 -0.0224  0.0914 -0.5109
  113OSM    O1211736   6.619   3.116  11.066 -0.2551 -0.0778  0.1942
  113OSM    C1S11737   6.811   3.294  10.797 -0.1417  0.3598  0.0577
  113OSM    H1S11738   6.892   3.219  10.793 -0.9231 -0.4019 -1.9528
  113OSM    H1T11739   6.859   3.391  10.824 -0.9068  1.2362 -1.6551
  113OSM     NF11740   6.872   3.294  10.553  0.2558 -0.0736 -0.0136
  113OSM    HNF11741   6.894   3.380  10.507  2.0575 -0.6219 -0.2488
  113OSM    C2S11742   6.760   3.303  10.651 -0.8682  0.1394 -0.4539
  113OSM    H2S11743   6.692   3.215  10.641 -1.4559  0.8098 -2.7752
  113OSM    C3S11744   6.668   3.423  10.623 -0.6558  0.2109  0.2084
  113OSM    H3S11745   6.725   3.518  10.632  0.1158  0.1001 -2.8561
  113OSM     O311746   6.554   3.434  10.710 -0.0819 -0.0723  0.3568
  113OSM    HO311747   6.554   3.357  10.768  1.7990  2.3340  3.7257
  113OSM    C4S11748   6.619   3.414  10.478 -0.1685  0.4052 -0.2659
  113OSM    H4S11749   6.527   3.356  10.467  0.6026 -1.1776  1.4645
  113OSM    C5S11750   6.674   3.476  10.369 -0.0801 -0.6458 -0.6738
  113OSM    H5S11751   6.774   3.523  10.372 -0.3038 -0.1711 -0.5467
  113OSM    C6S11752   6.608   3.467  10.230 -0.7866  0.4594  0.6537
  113OSM    H6S11753   6.510   3.520  10.225 -0.9226  0.2232  0.8240
  113OSM    H6T11754   6.585   3.360  10.213  1.1075 -0.1369  1.7212
  113OSM    C7S11755   6.699   3.496  10.108  0.2800  0.0903  0.2252
  113OSM    H7S11756   6.800   3.451  10.101  0.0445 -0.1345 -2.1230
  113OSM    H7T11757   6.711   3.607  10.103  2.7734 -0.2090 -1.3905
  113OSM    C8S11758   6.616   3.454   9.985 -0.8021  0.4968  0.3311
  113OSM    H8S11759   6.511   3.491   9.988 -1.3390 -0.8051 -1.5665
  113OSM    H8T11760   6.606   3.343   9.985  0.9852  0.2778 -2.8070
  113OSM    C9S11761   6.681   3.492   9.854  0.1528 -0.4670 -0.3682
  113OSM    H9S11762   6.643   3.433   9.768 -2.6578 -1.3778  1.4381
  113OSM    H9T11763   6.790   3.468   9.858  0.3880  0.3107 -1.8451
  113OSM   C10S11764   6.644   3.640   9.815 -0.2790  1.0915  0.6887
  113OSM   H10S11765   6.673   3.700   9.903  1.9205  0.1859  0.6057
  113OSM   H10T11766   6.534   3.648   9.803 -0.2101 -0.2204 -1.1404
  113OSM   C11S11767   6.726   3.691   9.691 -0.1524 -0.0916  0.6571
  113OSM   H11S11768   6.833   3.695   9.721 -0.2302  2.2253  0.7127
  113OSM   H11T11769   6.694   3.795   9.668 -0.7953 -0.5912 -0.7933
  113OSM   C12S11770   6.723   3.599   9.568 -0.0777  0.2286 -0.2395
  113OSM   H12S11771   6.618   3.563   9.560 -0.2904  0.6642  0.5368
  113OSM   H12T11772   6.790   3.511   9.581  1.3144  1.5103  1.4215
  113OSM   C13S11773   6.783   3.675   9.448 -0.2206 -0.4499  0.3505
  113OSM   H13S11774   6.893   3.684   9.459  0.1962 -0.3895 -3.1068
  113OSM   H13T11775   6.737   3.776   9.456  0.2917 -0.1790 -0.0210
  113OSM   C14S11776   6.750   3.608   9.314  0.0851 -0.9263  0.7683
  113OSM   H14S11777   6.639   3.602   9.316 -0.1431  1.8246 -1.8705
  113OSM   H14T11778   6.785   3.502   9.313 -0.6748 -1.1677 -0.6242
  113OSM   C15S11779   6.798   3.666   9.184 -0.1704 -0.4462  0.0338
  113OSM   H15S11780   6.791   3.591   9.102  1.2810  1.0882 -1.5229
  113OSM   H15T11781   6.905   3.693   9.197 -0.1088 -0.5840 -0.1780
  113OSM   C16S11782   6.732   3.804   9.143  0.0876  0.3293 -0.7808
  113OSM   H16S11783   6.760   3.883   9.215  1.8784 -1.3166  0.3778
  113OSM   H16T11784   6.623   3.785   9.155 -0.1528  2.8211  1.3806
  113OSM   C17S11785   6.765   3.858   9.005  0.3639 -0.0789 -0.6011
  113OSM   H17S11786   6.715   3.797   8.927 -4.3718  0.3516  1.9393
  113OSM   H17T11787   6.875   3.863   8.993  0.3552  1.3569 -0.1359
  113OSM   C18S11788   6.711   4.004   8.992  0.2233 -0.7431 -0.7641
  113OSM   H18S11789   6.771   4.048   8.910 -1.0687 -0.1708 -1.4242
  113OSM   H18T11790   6.737   4.058   9.085 -2.1628 -0.3740 -0.2877
  113OSM   H18U11791   6.600   4.004   8.982  0.2432  1.2231 -1.0797
  113OSM    C1F11792   6.950   3.191  10.538  0.6268 -0.2151 -0.3720
  113OSM     OF11793   6.915   3.087  10.587  0.7346 -0.4066  0.1266
  113OSM    C2F11794   7.086   3.212  10.473  0.1313 -0.2855  0.0894
  113OSM    H2F11795   7.159   3.229  10.555  2.3065 -0.6195 -1.7343
  113OSM    H2G11796   7.084   3.303  10.411  1.2475  0.5265  1.2219
  113OSM    C3F11797   7.118   3.095  10.381 -0.1952  0.5066  0.2184
  113OSM    H3F11798   7.116   3.002  10.441 -2.6515 -0.6504 -1.5690
  113OSM    H3G11799   7.223   3.111  10.348 -0.7798 -0.9455 -2.5283
  113OSM    C4F11800   7.017   3.093  10.262 -0.2254 -0.4058  0.2645
  113OSM    H4F11801   6.997   3.198  10.235  1.0130  0.1722  1.4974
  113OSM    H4G11802   6.921   3.058  10.306  0.2073 -0.2078  1.3860
  113OSM    C5F11803   7.056   2.997  10.147  0.3074 -0.2647  0.2737
  113OSM    H5F11804   6.963   2.943  10.118 -0.4976  0.7412  0.9331
  113OSM    H5G11805   7.128   2.925  10.192  0.0338 -0.5242  0.3026
  113OSM    C6F11806   7.104   3.066  10.022 -0.0198  0.2371 -0.1416
  113OSM    H6F11807   7.164   2.993   9.962 -0.5981  1.6459 -2.5123
  113OSM    H6G11808   7.169   3.150  10.053 -1.1020  0.0619  2.7237
  113OSM    C7F11809   6.996   3.122   9.925 -0.3933  0.3781 -0.1420
  113OSM    H7F11810   6.921   3.192   9.966 -2.0173  0.1001 -2.5484
  113OSM    H7G11811   6.928   3.041   9.890  0.4706 -1.0109  1.3080
  113OSM    C8F11812   7.069   3.190   9.815 -0.0015  0.6557  1.3840
  113OSM    H8F11813   7.106   3.103   9.756 -0.5338  1.9812 -0.9533
  113OSM    H8G11814   7.155   3.245   9.858  1.2005 -0.5551  0.5644
  113OSM    C9F11815   6.993   3.277   9.716  0.0192  0.3331  0.3750
  113OSM    H9F11816   6.893   3.304   9.754 -1.1655 -1.7890 -1.1163
  113OSM   C10F11817   7.028   3.313   9.587 -0.0918 -0.1124 -0.5358
  113OSM   H10F11818   6.968   3.362   9.509  1.7640  1.1060 -1.2295
  113OSM   C11F11819   7.152   3.266   9.518 -0.1289 -0.5877  0.0744
  113OSM   H11F11820   7.203   3.191   9.582  0.3098  0.9436  1.5528
  113OSM   H11G11821   7.224   3.350   9.503 -0.2130 -0.5907 -0.3599
  113OSM   C12F11822   7.133   3.204   9.373 -1.0703 -0.3476  0.4151
  113OSM   H12F11823   7.041   3.146   9.354 -0.6710 -0.8247 -0.0849
  113OSM   H12G11824   7.216   3.132   9.354 -0.4853 -0.4876  3.1987
  113OSM   C13F11825   7.125   3.300   9.254  0.0912  0.2973 -0.0021
  113OSM   H13F11826   7.212   3.366   9.272 -0.2471  0.8193 -0.2839
  113OSM   H13G11827   7.033   3.360   9.273 -0.5438 -0.7434  0.2812
  113OSM   C14F11828   7.120   3.233   9.119 -0.1596 -0.4003  0.3652
  113OSM   H14F11829   7.039   3.157   9.117 -0.7595  0.2657 -3.8199
  113OSM   H14G11830   7.220   3.188   9.100  0.1276  1.2529 -2.1586
  113OSM   C15F11831   7.111   3.334   9.006  0.6127 -0.7265 -0.1659
  113OSM   H15F11832   7.181   3.420   9.012 -0.8633  0.3477  2.1806
  113OSM   H15G11833   7.013   3.384   9.015  0.9412 -0.4682  2.3605
  113OSM   C16F11834   7.130   3.260   8.877 -0.0820  0.0415  0.5074
  113OSM   H16F11835   7.082   3.160   8.880 -0.0545  0.0835  2.5804
  113OSM   H16G11836   7.232   3.235   8.842 -0.2242 -2.5198  1.8108
  113OSM   C17F11837   7.076   3.328   8.747  0.1252 -0.3455 -0.5184
  113OSM   H17F11838   7.120   3.429   8.731 -1.9863  0.1575 -3.5391
  113OSM   H17G11839   6.974   3.357   8.781 -0.4580 -1.3186 -1.4037
  113OSM   C18F11840   7.075   3.243   8.626  0.5229  0.5941  0.0286
  113OSM   H18F11841   7.047   3.304   8.538 -0.0609 -0.2866 -0.3933
  113OSM   H18G11842   7.005   3.158   8.634  1.0061  0.3109  1.4294
  113OSM   H18H11843   7.178   3.207   8.602 -0.0966 -3.0831  2.5186
  114OSM      N11844   1.559   5.672  10.960  0.3103 -0.6635 -0.9625
  114OSM    C1511845   1.451   5.763  10.993 -0.3780  0.8463  0.1038
  114OSM   H15A11846   1.452   5.786  11.098 -0.2199  2.5767 -0.2609
  114OSM   H15B11847   1.355   5.714  10.978 -0.2023  0.2044  1.0030
  114OSM   H15C11848   1.459   5.855  10.937  1.3552 -0.4916 -1.9333
  114OSM    C1411849   1.568   5.554  11.058  0.3228 -0.0552 -0.4608
  114OSM   H14A11850   1.579   5.574  11.163 -3.5252  2.2002 -0.4184
  114OSM   H14B11851   1.650   5.492  11.023  1.0337  0.1512  0.8060
  114OSM   H14C11852   1.479   5.494  11.044  1.4398 -1.7421 -0.5652
  114OSM    C1311853   1.542   5.625  10.815  0.1978 -0.2587  0.3225
  114OSM   H13A11854   1.620   5.569  10.766  0.8711  2.0886 -1.3210
  114OSM   H13B11855   1.537   5.710  10.749  0.1966 -1.3922 -1.1655
  114OSM   H13C11856   1.451   5.569  10.797 -0.1691  0.6576 -0.6883
  114OSM    C1211857   1.693   5.748  10.967 -0.0395 -0.0680 -1.0998
  114OSM   H12A11858   1.765   5.668  10.972  1.8407  1.6716  0.0367
  114OSM   H12B11859   1.699   5.799  11.062 -0.0236  1.8744 -2.1105
  114OSM    C1111860   1.737   5.848  10.860 -0.0977  0.1763  0.1804
  114OSM   H11A11861   1.751   5.789  10.767  2.8524 -0.4247  0.9295
  114OSM   H11B11862   1.837   5.886  10.892  0.1597  1.6866 -2.3369
  114OSM      P11863   1.668   6.096  10.929 -0.0461 -0.4779  0.0114
  114OSM    O1311864   1.537   6.162  10.954  0.7400 -0.2680  0.1743
  114OSM    O1411865   1.756   6.068  11.044  0.3944 -0.1745 -0.5090
  114OSM    O1111866   1.747   6.199  10.836 -0.2492  0.4895 -0.2762
  114OSM    O1211867   1.647   5.956  10.846 -0.3249  0.6506 -0.1251
  114OSM    C1S11868   1.818   6.149  10.727 -0.7132  0.3027  0.2050
  114OSM    H1S11869   1.744   6.128  10.646 -0.4204 -2.4348  0.5895
  114OSM    H1T11870   1.879   6.059  10.748 -1.0736  0.1358  0.5350
  114OSM     NF11871   1.958   6.209  10.534  0.3727 -0.6426 -0.8511
  114OSM    HNF11872   2.045   6.162  10.523  1.5654  0.9504  1.3544
  114OSM    C2S11873   1.913   6.257  10.668 -0.3058 -0.6208  0.0615
  114OSM    H2S11874   1.859   6.354  10.663  1.7084  0.4355 -1.8201
  114OSM    C3S11875   2.030   6.283  10.773  0.4008  0.5291 -0.0446
  114OSM    H3S11876   2.077   6.187  10.799 -1.7549 -0.7089 -0.5866
  114OSM     O311877   1.978   6.348  10.893  0.0695  0.8047 -0.3849
  114OSM    HO311878   1.885   6.328  10.901  0.1112  0.5499 -0.5467
  114OSM    C4S11879   2.131   6.367  10.717  0.1102  0.3233  0.4614
  114OSM    H4S11880   2.225   6.320  10.685 -0.2024  1.1818 -1.7809
  114OSM    C5S11881   2.130   6.500  10.689 -0.3305  0.3135  0.6696
  114OSM    H5S11882   2.040   6.560  10.709  0.0429  0.1899  2.8452
  114OSM    C6S11883   2.249   6.568  10.622 -0.4125 -0.4128  0.2293
  114OSM    H6S11884   2.317   6.609  10.699  0.5328 -2.0686  0.2807
  114OSM    H6T11885   2.214   6.655  10.561 -0.3237 -0.2935  0.3492
  114OSM    C7S11886   2.338   6.496  10.521 -1.1557  0.1949 -0.4715
  114OSM    H7S11887   2.379   6.407  10.574 -0.4829  0.7059 -0.1159
  114OSM    H7T11888   2.432   6.549  10.495 -0.0870 -0.3573  2.1473
  114OSM    C8S11889   2.271   6.436  10.399 -0.2239 -0.7846  0.4555
  114OSM    H8S11890   2.229   6.521  10.341 -1.6619 -0.5844  1.7640
  114OSM    H8T11891   2.176   6.386  10.426 -1.5097  1.0043 -0.6103
  114OSM    C9S11892   2.366   6.347  10.307 -0.1467 -0.4598 -0.4715
  114OSM    H9S11893   2.378   6.261  10.376 -2.3564 -0.2051  0.2666
  114OSM    H9T11894   2.460   6.403  10.288  0.1599  0.0019  2.2102
  114OSM   C10S11895   2.300   6.318  10.172 -0.1848 -0.2865  0.0438
  114OSM   H10S11896   2.265   6.413  10.127  1.2798  0.6339  0.7936
  114OSM   H10T11897   2.215   6.252  10.201  0.1495 -0.5088  0.5382
  114OSM   C11S11898   2.389   6.246  10.063 -0.3928 -0.1400  0.0428
  114OSM   H11S11899   2.412   6.151  10.115 -1.0406  0.1312  0.8278
  114OSM   H11T11900   2.474   6.316  10.045  0.0672 -1.4513 -3.2522
  114OSM   C12S11901   2.309   6.243   9.940 -0.3661 -0.1253  0.4295
  114OSM   H12S11902   2.283   6.349   9.918 -0.7210 -0.2770  0.1335
  114OSM   H12T11903   2.213   6.191   9.956 -0.6694  0.3603  0.1964
  114OSM   C13S11904   2.384   6.198   9.818  0.6745 -0.0483 -0.7565
  114OSM   H13S11905   2.405   6.089   9.820  1.3485  0.1166  1.5559
  114OSM   H13T11906   2.477   6.258   9.814  1.1364 -0.7260 -0.3957
  114OSM   C14S11907   2.309   6.229   9.681  0.5445  0.8367 -0.1864
  114OSM   H14S11908   2.304   6.340   9.677 -1.1534  0.7673 -0.7859
  114OSM   H14T11909   2.202   6.200   9.694  0.6759  0.2726 -0.3828
  114OSM   C15S11910   2.364   6.181   9.547 -0.3395 -0.6120 -0.1206
  114OSM   H15S11911   2.341   6.074   9.530 -0.8698 -0.5259  0.0246
  114OSM   H15T11912   2.473   6.198   9.532 -0.5772  2.2243  0.9947
  114OSM   C16S11913   2.301   6.258   9.420  0.5942 -0.1726  0.2550
  114OSM   H16S11914   2.364   6.350   9.423  4.5034 -2.6304 -2.5084
  114OSM   H16T11915   2.191   6.271   9.428  0.8447  0.4608  3.0859
  114OSM   C17S11916   2.305   6.172   9.292  0.0169 -0.1133  0.2094
  114OSM   H17S11917   2.244   6.081   9.308 -0.0565 -0.2422 -0.7791
  114OSM   H17T11918   2.411   6.143   9.274 -0.4300 -1.1644 -0.7780
  114OSM   C18S11919   2.252   6.256   9.181  0.0355 -0.4522 -0.3166
  114OSM   H18S11920   2.245   6.189   9.093  0.3688 -1.7277  0.6079
  114OSM   H18T11921   2.326   6.335   9.157 -0.1716 -0.3722 -0.6953
  114OSM   H18U11922   2.154   6.298   9.211  0.4498  0.2118  0.1081
  114OSM    C1F11923   1.871   6.205  10.433 -0.0555  0.4146 -0.0551
  114OSM     OF11924   1.766   6.266  10.438  0.0972 -0.4636 -0.4573
  114OSM    C2F11925   1.906   6.120  10.314  0.1665  0.5336  0.6103
  114OSM    H2F11926   1.882   6.012  10.322  1.9083  0.1422  0.9122
  114OSM    H2G11927   2.016   6.129  10.301  0.0752  2.0561  0.7758
  114OSM    C3F11928   1.828   6.163  10.185  0.0753 -0.4469 -0.0500
  114OSM    H3F11929   1.818   6.274  10.183 -0.0076 -0.4650 -1.3171
  114OSM    H3G11930   1.727   6.117  10.183 -0.3076  0.3929 -1.1362
  114OSM    C4F11931   1.900   6.113  10.065  0.1137  0.0249 -0.1540
  114OSM    H4F11932   1.877   6.004  10.072 -1.2341  0.3371  0.4720
  114OSM    H4G11933   2.009   6.126  10.076 -0.1500  0.1976  2.5704
  114OSM    C5F11934   1.855   6.175   9.932  0.2716 -0.4621 -0.3478
  114OSM    H5F11935   1.874   6.284   9.937  1.8125 -0.7832  1.0781
  114OSM    H5G11936   1.748   6.156   9.910  0.0828 -0.7269  0.7713
  114OSM    C6F11937   1.941   6.127   9.814  0.6734  0.2605  0.2247
  114OSM    H6F11938   1.931   6.017   9.803  1.3066  0.2272 -0.0745
  114OSM    H6G11939   2.045   6.148   9.847  0.2927  0.3411  1.4058
  114OSM    C7F11940   1.919   6.207   9.678 -0.4500  0.2738 -0.5945
  114OSM    H7F11941   2.007   6.179   9.617  0.7073 -0.0321  1.2007
  114OSM    H7G11942   1.921   6.316   9.704 -3.2963  0.1119  0.5829
  114OSM    C8F11943   1.792   6.152   9.600 -0.1607  0.1958  0.0800
  114OSM    H8F11944   1.698   6.183   9.650 -0.8178  0.6819 -1.4302
  114OSM    H8G11945   1.804   6.042   9.604  1.6591  0.4037  0.7165
  114OSM    C9F11946   1.786   6.213   9.461 -0.2888  0.3022 -0.5636
  114OSM    H9F11947   1.776   6.322   9.451 -2.1579  0.0885 -1.1594
  114OSM   C10F11948   1.772   6.151   9.344  0.1168  0.1949 -0.7133
  114OSM   H10F11949   1.761   6.210   9.253 -1.4377 -0.0274 -0.6751
  114OSM   C11F11950   1.767   6.005   9.325  0.3377 -0.5484 -0.6378
  114OSM   H11F11951   1.773   5.946   9.419  1.6857  0.2496 -0.2077
  114OSM   H11G11952   1.853   5.983   9.257  0.9206 -0.9477  0.2226
  114OSM   C12F11953   1.639   5.952   9.252  0.7192 -0.0740  0.1051
  114OSM   H12F11954   1.556   5.977   9.321  0.1218 -1.6257 -0.0274
  114OSM   H12G11955   1.643   5.841   9.245  0.2821 -0.1386  0.8452
  114OSM   C13F11956   1.616   6.013   9.108 -0.0233 -1.0094  0.0639
  114OSM   H13F11957   1.711   5.986   9.056  0.0108 -0.6834 -0.0419
  114OSM   H13G11958   1.609   6.123   9.118 -0.4029 -1.0639  0.4095
  114OSM   C14F11959   1.489   5.953   9.046 -0.1435 -0.4252  0.1009
  114OSM   H14F11960   1.405   5.971   9.117  0.9116  0.7094  1.0994
  114OSM   H14G11961   1.501   5.843   9.034  2.9570 -0.4135  2.2881
  114OSM   C15F11962   1.437   6.025   8.926 -0.2527  0.4191  0.5242
  114OSM   H15F11963   1.521   6.034   8.855  1.4683  0.3686  2.5054
  114OSM   H15G11964   1.402   6.128   8.949  1.8964  0.9743  1.3919
  114OSM   C16F11965   1.306   5.966   8.861 -0.0600 -0.0789 -0.3283
  114OSM   H16F11966   1.226   5.987   8.935 -0.7182  0.3275 -1.1455
  114OSM   H16G11967   1.334   5.860   8.840  1.0426 -0.3806  2.4404
  114OSM   C17F11968   1.269   6.028   8.722  0.0668 -0.8579 -0.7388
  114OSM   H17F11969   1.243   6.136   8.729 -2.8609 -1.4800 -1.2841
  114OSM   H17G11970   1.170   5.981   8.702  0.7432 -2.0262 -1.3627
  114OSM   C18F11971   1.371   5.992   8.612  0.8280 -0.2624  0.0785
  114OSM   H18F11972   1.330   6.011   8.510  1.1537 -1.2728 -0.2474
  114OSM   H18G11973   1.399   5.885   8.605 -0.3052 -0.5615  0.1119
  114OSM   H18H11974   1.465   6.050   8.626 -0.0077  0.7753  1.4973
  115OSM      N11975   5.431   5.673  11.083  0.2418  0.3009 -0.0635
  115OSM    C1511976   5.573   5.651  11.053 -0.3607  0.2671 -0.2476
  115OSM   H15A11977   5.628   5.734  11.010  0.5942  0.5088  1.3850
  115OSM   H15B11978   5.581   5.557  11.001 -0.1744 -1.3798  2.6663
  115OSM   H15C11979   5.625   5.638  11.147  1.6109  0.0575 -1.3313
  115OSM    C1411980   5.421   5.753  11.208  0.7239 -0.8925  0.0752
  115OSM   H14A11981   5.472   5.846  11.188 -1.7078  0.0245 -2.0931
  115OSM   H14B11982   5.446   5.700  11.299 -0.8940 -0.0733  1.0044
  115OSM   H14C11983   5.315   5.769  11.204  1.0426  0.9777 -1.1622
  115OSM    C1311984   5.361   5.755  10.985 -0.5508  0.3991  0.0263
  115OSM   H13A11985   5.414   5.849  10.973 -0.3619  0.3530  0.4743
  115OSM   H13B11986   5.268   5.792  11.026 -0.0198  2.0336 -0.2024
  115OSM   H13C11987   5.332   5.702  10.895  0.2338  1.6535 -0.9773
  115OSM    C1211988   5.352   5.542  11.110 -0.0205  0.1128  0.0378
  115OSM   H12A11989   5.249   5.562  11.138 -0.7012 -1.0074 -1.5964
  115OSM   H12B11990   5.384   5.483  11.195  2.1014 -1.2096 -1.6560
  115OSM    C1111991   5.346   5.446  10.987 -0.6304 -0.5073  0.6154
  115OSM   H11A11992   5.299   5.499  10.902 -2.7760 -4.3753 -0.7298
  115OSM   H11B11993   5.285   5.359  11.020 -0.5757  0.0906  2.3338
  115OSM      P11994   5.529   5.256  10.968  0.3685 -0.1344 -0.2134
  115OSM    O1311995   5.665   5.244  10.911  0.5590  0.3006  0.5320
  115OSM    O1411996   5.505   5.219  11.110 -0.3411 -0.0217  0.7571
  115OSM    O1111997   5.413   5.178  10.893  0.9871 -0.1682  0.1626
  115OSM    O1211998   5.483   5.407  10.951 -0.7180  0.1624 -0.1532
  115OSM    C1S11999   5.398   5.201  10.747 -0.1584  0.7038 -0.2016
  115OSM    H1S12000   5.434   5.301  10.714  0.1436 -0.7193 -4.5273
  115OSM    H1T12001   5.293   5.201  10.711  0.3328 -1.6413 -1.7649
  115OSM     NF12002   5.473   5.125  10.524 -0.6033 -0.0808  0.3183
  115OSM    HNF12003   5.412   5.081  10.459 -1.6040 -1.4389  2.1094
  115OSM    C2S12004   5.465   5.092  10.665 -0.2313 -0.6966 -0.4486
  115OSM    H2S12005   5.566   5.068  10.705 -1.8304 -3.1866  2.3049
  115OSM    C3S12006   5.386   4.958  10.695 -0.9310 -0.1906  0.7641
  115OSM    H3S12007   5.280   4.973  10.665 -0.1334  2.4941 -0.9566
  115OSM     O312008   5.391   4.918  10.832  0.1903 -0.1411  0.0786
  115OSM    HO312009   5.411   5.001  10.875 -0.1805 -1.1282  2.2152
  115OSM    C4S12010   5.439   4.840  10.610  0.7891 -0.2651  0.5465
  115OSM    H4S12011   5.542   4.818  10.640  0.7371 -0.7844  0.3398
  115OSM    C5S12012   5.384   4.769  10.514  0.1646  0.3256  0.3480
  115OSM    H5S12013   5.277   4.780  10.489  0.1341 -0.9819 -0.1296
  115OSM    C6S12014   5.448   4.641  10.463 -0.1281  0.2309 -0.6020
  115OSM    H6S12015   5.391   4.563  10.518 -0.1264  0.0152 -0.9004
  115OSM    H6T12016   5.556   4.624  10.483 -0.4323 -2.2452 -0.7996
  115OSM    C7S12017   5.437   4.593  10.320  0.5893  0.8352  0.1054
  115OSM    H7S12018   5.481   4.673  10.257  0.9007  0.9225  0.4371
  115OSM    H7T12019   5.329   4.577  10.296  0.7507  1.4799 -1.0736
  115OSM    C8S12020   5.512   4.453  10.298  0.2619 -0.6760 -0.1158
  115OSM    H8S12021   5.439   4.376  10.331 -0.1538 -0.2077  0.0670
  115OSM    H8T12022   5.602   4.447  10.363 -0.7025 -0.9605  1.2191
  115OSM    C9S12023   5.570   4.427  10.163  0.3454  0.1552  0.6208
  115OSM    H9S12024   5.616   4.326  10.174 -0.6184 -0.2202  1.2629
  115OSM    H9T12025   5.652   4.498  10.138 -0.3632  1.7915  2.8145
  115OSM   C10S12026   5.470   4.424  10.044  0.0964 -0.4814 -0.1091
  115OSM   H10S12027   5.432   4.528  10.054 -3.3425 -1.5938 -0.9092
  115OSM   H10T12028   5.396   4.347  10.076  0.6501 -0.8762  0.2422
  115OSM   C11S12029   5.548   4.402   9.913 -0.2492  0.3782 -0.0917
  115OSM   H11S12030   5.596   4.302   9.922 -0.2528  0.0071 -3.3645
  115OSM   H11T12031   5.627   4.480   9.923 -0.2270  0.2472  0.7400
  115OSM   C12S12032   5.462   4.418   9.785 -0.4871 -0.2154  0.2143
  115OSM   H12S12033   5.443   4.523   9.754 -1.5213 -0.1716  0.9433
  115OSM   H12T12034   5.368   4.366   9.812 -0.6028  1.1561  2.6455
  115OSM   C13S12035   5.534   4.353   9.671  0.0920  0.4640  0.8936
  115OSM   H13S12036   5.557   4.247   9.693  0.1121  0.1904 -0.4010
  115OSM   H13T12037   5.620   4.421   9.652 -0.4759  1.1789  0.8521
  115OSM   C14S12038   5.454   4.355   9.543 -0.2736 -0.3211  0.6962
  115OSM   H14S12039   5.418   4.459   9.524  3.8004  0.8378 -1.3121
  115OSM   H14T12040   5.356   4.304   9.541 -0.5161  0.0943  1.5939
  115OSM   C15S12041   5.529   4.323   9.410 -0.0483 -0.3161 -0.1212
  115OSM   H15S12042   5.579   4.225   9.423  1.3748  0.2752 -1.0109
  115OSM   H15T12043   5.603   4.403   9.390  0.2046 -0.4960  0.0841
  115OSM   C16S12044   5.433   4.328   9.292  0.1431  0.6502 -0.5798
  115OSM   H16S12045   5.425   4.433   9.258 -2.4534  1.0028  1.0115
  115OSM   H16T12046   5.326   4.308   9.317  0.9726 -2.9060  0.4241
  115OSM   C17S12047   5.473   4.231   9.181  0.2327 -0.2100 -0.0711
  115OSM   H17S12048   5.421   4.249   9.084  1.9785  0.6844 -0.8657
  115OSM   H17T12049   5.455   4.125   9.209 -2.5242 -0.2251 -1.6706
  115OSM   C18S12050   5.627   4.248   9.146  0.3128 -0.3467 -0.1841
  115OSM   H18S12051   5.638   4.182   9.057 -0.1156 -2.0339  1.0054
  115OSM   H18T12052   5.697   4.227   9.229 -1.3062  0.7600  1.5009
  115OSM   H18U12053   5.652   4.351   9.110  2.7344 -0.4368  1.1860
  115OSM    C1F12054   5.556   5.226  10.478 -0.1576 -0.3369 -0.0708
  115OSM     OF12055   5.629   5.287  10.561 -0.3355 -0.3940 -0.2592
  115OSM    C2F12056   5.546   5.263  10.332 -0.4965  0.4269  0.3935
  115OSM    H2F12057   5.474   5.197  10.280 -0.3259 -0.7020  1.5408
  115OSM    H2G12058   5.642   5.231  10.286 -1.1764 -1.3149  0.1315
  115OSM    C3F12059   5.514   5.412  10.328  0.4273  0.4383 -0.2396
  115OSM    H3F12060   5.594   5.477  10.370 -0.9907  1.7309  0.5178
  115OSM    H3G12061   5.421   5.430  10.384  0.1673  0.2896 -0.6188
  115OSM    C4F12062   5.484   5.464  10.188  0.5602 -0.0882  0.6688
  115OSM    H4F12063   5.403   5.399  10.148  2.3488 -2.7495  1.2144
  115OSM    H4G12064   5.565   5.448  10.114 -1.7836 -1.9759 -1.6239
  115OSM    C5F12065   5.447   5.618  10.168  0.4149 -0.0296  1.0191
  115OSM    H5F12066   5.486   5.674  10.256  1.0142  2.9001 -1.0296
  115OSM    H5G12067   5.337   5.636  10.168  0.6880  1.7599  0.8887
  115OSM    C6F12068   5.502   5.683  10.045  0.6529 -0.0472  0.2532
  115OSM    H6F12069   5.475   5.612   9.964 -0.2066  2.0474 -1.3377
  115OSM    H6G12070   5.613   5.685  10.054  0.5509  2.3337  1.5053
  115OSM    C7F12071   5.454   5.822  10.016  0.0877  0.4171  0.5561
  115OSM    H7F12072   5.434   5.884  10.106 -1.6486  0.2888  0.2701
  115OSM    H7G12073   5.353   5.815   9.970 -0.5247  0.6464  1.8377
  115OSM    C8F12074   5.548   5.895   9.918 -0.1344  0.9124 -0.4266
  115OSM    H8F12075   5.557   5.839   9.822 -0.9544  2.5937 -1.4890
  115OSM    H8G12076   5.644   5.904   9.973  0.5379 -1.2212 -1.1865
  115OSM    C9F12077   5.501   6.040   9.898 -0.1322 -0.0767  0.3394
  115OSM    H9F12078   5.541   6.105   9.978 -0.1256 -1.9380  1.8716
  115OSM   C10F12079   5.419   6.091   9.804  0.2472 -0.2291 -0.2219
  115OSM   H10F12080   5.381   6.193   9.814 -0.5321 -0.6963  1.6294
  115OSM   C11F12081   5.355   6.007   9.698  0.0622  0.2193  0.0647
  115OSM   H11F12082   5.247   6.022   9.719  0.1869  0.1973  0.7205
  115OSM   H11G12083   5.352   5.900   9.725  1.7197  0.7352  2.4370
  115OSM   C12F12084   5.392   6.034   9.543 -0.7833  0.2953  0.9180
  115OSM   H12F12085   5.501   6.046   9.528 -0.4652 -1.2150  1.8577
  115OSM   H12G12086   5.332   6.124   9.518 -1.1932  0.8531  3.7058
  115OSM   C13F12087   5.353   5.918   9.448  0.2421  0.1877  0.2211
  115OSM   H13F12088   5.243   5.914   9.463  0.0155  3.1184 -0.3707
  115OSM   H13G12089   5.404   5.826   9.483 -2.1364 -0.8022  1.2290
  115OSM   C14F12090   5.374   5.958   9.300 -0.5210  0.2340  0.0562
  115OSM   H14F12091   5.480   5.988   9.291 -0.7986  1.1226 -0.2902
  115OSM   H14G12092   5.321   6.055   9.291 -0.7637 -0.1130 -2.3932
  115OSM   C15F12093   5.330   5.854   9.203 -0.2225  0.9825 -0.6696
  115OSM   H15F12094   5.230   5.818   9.235  0.3474 -1.2200 -1.2744
  115OSM   H15G12095   5.405   5.772   9.206  1.2923  2.3708 -0.1501
  115OSM   C16F12096   5.329   5.903   9.058  0.0063 -0.3145  0.4215
  115OSM   H16F12097   5.423   5.956   9.029  0.3537 -1.4110 -0.4981
  115OSM   H16G12098   5.244   5.973   9.043 -0.0136 -1.0937 -3.7848
  115OSM   C17F12099   5.306   5.782   8.962 -0.6109  0.3042 -0.1083
  115OSM   H17F12100   5.231   5.713   9.006  0.0860  0.4204  1.2967
  115OSM   H17G12101   5.405   5.735   8.975 -0.2412  0.0140 -3.4615
  115OSM   C18F12102   5.272   5.809   8.816  0.1310 -0.4898 -0.1772
  115OSM   H18F12103   5.265   5.714   8.759 -3.0643 -1.6270  1.9908
  115OSM   H18G12104   5.351   5.878   8.779  0.2434 -0.3334  0.3406
  115OSM   H18H12105   5.173   5.857   8.806  0.7272  0.9085  0.4254
  116OSM      N12106   2.248   2.080  11.165  0.4242  0.4629  0.0501
  116OSM    C1512107   2.246   2.083  11.315  0.4330  0.0905 -0.6702
  116OSM   H15A12108   2.184   2.166  11.347  2.2867  1.6288 -0.9845
  116OSM   H15B12109   2.339   2.107  11.364  0.1366  0.9406 -0.5226
  116OSM   H15C12110   2.209   1.992  11.361 -1.2490  0.8940 -0.3928
  116OSM    C1412111   2.109   2.069  11.119  0.1172  0.4020 -0.4341
  116OSM   H14A12112   2.113   2.088  11.013 -0.2928 -2.1039 -0.9385
  116OSM   H14B12113   2.055   2.152  11.162  0.7610  1.0999 -0.9506
  116OSM   H14C12114   2.064   1.975  11.147 -0.2268 -0.2562 -3.0692
  116OSM    C1312115   2.304   2.213  11.109  0.0156  0.4158  0.2297
  116OSM   H13A12116   2.297   2.211  11.001  0.9784  1.0236  0.1550
  116OSM   H13B12117   2.403   2.227  11.149  0.0459  2.2847 -0.4634
  116OSM   H13C12118   2.242   2.297  11.136  0.8013  0.8736  0.6125
  116OSM    C1212119   2.333   1.965  11.132 -0.0782  0.0863  0.0474
  116OSM   H12A12120   2.435   1.990  11.158  0.8432 -2.3064 -1.0798
  116OSM   H12B12121   2.326   1.951  11.025  0.8973 -0.2931  0.0202
  116OSM    C1112122   2.288   1.826  11.190 -0.3954 -0.9841  0.2327
  116OSM   H11A12123   2.282   1.838  11.301 -0.4362  2.5876 -0.1079
  116OSM   H11B12124   2.370   1.753  11.172  0.9368  0.1565  1.5161
  116OSM      P12125   2.172   1.741  10.979 -0.2137 -0.4241  0.0416
  116OSM    O1312126   2.173   1.591  10.970 -0.5645  0.0571  0.2281
  116OSM    O1412127   2.066   1.801  10.901 -1.1415 -0.5694 -0.1161
  116OSM    O1112128   2.316   1.781  10.920  0.5699  0.1184 -0.8202
  116OSM    O1212129   2.168   1.771  11.135 -1.0272 -0.3536 -0.3985
  116OSM    C1S12130   2.348   1.709  10.793 -0.0383 -0.5218  0.7494
  116OSM    H1S12131   2.333   1.598  10.797  0.8834 -0.8092 -2.5025
  116OSM    H1T12132   2.458   1.713  10.779  0.0005  1.9608  1.5131
  116OSM     NF12133   2.293   1.674  10.558 -0.1783 -0.4261 -0.1599
  116OSM    HNF12134   2.356   1.698  10.484  0.8439  0.4677  0.9923
  116OSM    C2S12135   2.279   1.762  10.673 -0.6326  0.0981  0.0552
  116OSM    H2S12136   2.172   1.773  10.701 -0.7542  0.7643 -0.6745
  116OSM    C3S12137   2.319   1.913  10.652 -0.5876  0.9557 -0.5149
  116OSM    H3S12138   2.430   1.920  10.646 -0.5459  1.0231  0.3187
  116OSM     O312139   2.291   2.003  10.759 -0.1281 -0.0096  0.0586
  116OSM    HO312140   2.270   1.940  10.828  0.2398 -0.3390 -0.1311
  116OSM    C4S12141   2.269   1.956  10.510 -0.3751  0.7468 -0.2870
  116OSM    H4S12142   2.327   1.912  10.428 -0.1774 -1.9416  1.2331
  116OSM    C5S12143   2.164   2.042  10.490  0.3555 -0.1488  0.0619
  116OSM    H5S12144   2.110   2.096  10.569 -1.8927  0.0353 -1.5565
  116OSM    C6S12145   2.117   2.079  10.353  0.7131  0.3132  0.1407
  116OSM    H6S12146   2.013   2.116  10.361  0.8356  0.5885  0.4651
  116OSM    H6T12147   2.114   1.987  10.290 -0.1928 -0.5652  1.4316
  116OSM    C7S12148   2.194   2.191  10.275 -0.1013 -0.0632 -1.1501
  116OSM    H7S12149   2.293   2.147  10.250 -0.6016 -1.4059 -0.7745
  116OSM    H7T12150   2.212   2.278  10.342 -1.1143 -0.4408 -0.3710
  116OSM    C8S12151   2.125   2.228  10.144  0.1654  0.5998 -0.0929
  116OSM    H8S12152   2.047   2.299  10.179 -0.8613  0.1194 -1.3414
  116OSM    H8T12153   2.088   2.141  10.086 -2.5950  1.4527  0.3138
  116OSM    C9S12154   2.210   2.315  10.044 -0.3468 -0.5127  0.0850
  116OSM    H9S12155   2.297   2.247  10.032  0.1090 -0.0009  0.4976
  116OSM    H9T12156   2.243   2.413  10.084 -2.1991 -0.5326  1.7429
  116OSM   C10S12157   2.138   2.341   9.908 -0.2837  0.2451  0.2231
  116OSM   H10S12158   2.161   2.432   9.848  0.2625 -1.0863 -1.6245
  116OSM   H10T12159   2.033   2.350   9.943 -0.3889  0.1245 -0.0599
  116OSM   C11S12160   2.152   2.224   9.808  0.0197 -0.1477 -0.2641
  116OSM   H11S12161   2.112   2.132   9.856  2.1623 -1.1787 -0.3973
  116OSM   H11T12162   2.258   2.197   9.791 -0.0587  0.2447 -1.4241
  116OSM   C12S12163   2.099   2.257   9.676  0.6032  0.3916  0.6846
  116OSM   H12S12164   2.118   2.364   9.652 -1.5705  0.7535  0.4242
  116OSM   H12T12165   1.988   2.251   9.673  0.7554 -2.1725 -1.8899
  116OSM   C13S12166   2.150   2.166   9.567  0.0761 -0.1090  0.1107
  116OSM   H13S12167   2.114   2.063   9.588 -0.9362  0.1360 -0.3927
  116OSM   H13T12168   2.260   2.154   9.569 -0.0441 -1.5877 -1.2448
  116OSM   C14S12169   2.098   2.207   9.429  0.4060  0.4182 -0.6703
  116OSM   H14S12170   1.995   2.246   9.437 -0.7654 -2.6795  0.0982
  116OSM   H14T12171   2.076   2.119   9.365  0.5983  0.6260 -1.0204
  116OSM   C15S12172   2.180   2.311   9.354 -0.1956  0.0590 -0.2614
  116OSM   H15S12173   2.188   2.404   9.414 -1.5649 -0.8161  1.3266
  116OSM   H15T12174   2.127   2.324   9.258  1.5728 -1.7647 -1.5368
  116OSM   C16S12175   2.326   2.260   9.319  0.1880  0.7162 -0.7008
  116OSM   H16S12176   2.380   2.237   9.414  1.6971  3.9242 -0.7325
  116OSM   H16T12177   2.370   2.333   9.248 -2.6167  0.8124 -2.4256
  116OSM   C17S12178   2.331   2.122   9.248 -0.4065 -0.2540  0.4463
  116OSM   H17S12179   2.263   2.058   9.309  1.3682 -1.1226  1.5429
  116OSM   H17T12180   2.433   2.081   9.264 -1.7865 -3.1890  2.0887
  116OSM   C18S12181   2.279   2.113   9.100 -0.1036 -0.6396 -0.4192
  116OSM   H18S12182   2.301   2.009   9.069  1.5661 -0.3424 -0.2988
  116OSM   H18T12183   2.329   2.183   9.029  1.9655 -0.5336  1.0672
  116OSM   H18U12184   2.169   2.121   9.089  0.2175  3.3212 -1.4674
  116OSM    C1F12185   2.231   1.559  10.542  0.0463  0.2646  0.0532
  116OSM     OF12186   2.143   1.521  10.618 -0.5206 -0.3280  0.0834
  116OSM    C2F12187   2.258   1.486  10.406 -0.2972  0.2325 -0.4255
  116OSM    H2F12188   2.366   1.460  10.402  0.1592  2.1122 -0.7599
  116OSM    H2G12189   2.241   1.560  10.325  1.6562 -1.0763 -2.0929
  116OSM    C3F12190   2.181   1.361  10.381  0.5061 -0.3078 -0.3532
  116OSM    H3F12191   2.071   1.375  10.381  0.5893  0.3320 -0.0526
  116OSM    H3G12192   2.194   1.295  10.470 -0.8455  0.7914  0.6773
  116OSM    C4F12193   2.220   1.285  10.258 -0.1025 -0.3273 -0.7243
  116OSM    H4F12194   2.180   1.185  10.233  3.5621 -2.8660  2.9722
  116OSM    H4G12195   2.328   1.262  10.264 -0.3187 -1.3244 -0.5930
  116OSM    C5F12196   2.197   1.359  10.128 -0.4146 -0.9975  0.1138
  116OSM    H5F12197   2.265   1.447  10.136 -0.7597 -0.8952  2.3026
  116OSM    H5G12198   2.095   1.400  10.143  0.7790  3.0183 -1.9795
  116OSM    C6F12199   2.212   1.292   9.991  0.2213  0.7251 -0.4996
  116OSM    H6F12200   2.131   1.226   9.953  1.0180 -0.2395 -0.5350
  116OSM    H6G12201   2.296   1.220  10.004  0.1952  1.2191  2.9882
  116OSM    C7F12202   2.261   1.401   9.894 -0.2283  0.5070 -0.2213
  116OSM    H7F12203   2.349   1.453   9.937  0.3166  1.0044 -1.9125
  116OSM    H7G12204   2.189   1.485   9.897  1.2732  1.7989  0.6518
  116OSM    C8F12205   2.298   1.349   9.759 -0.2499  0.0602  0.3186
  116OSM    H8F12206   2.383   1.279   9.770 -0.0711  0.3588  0.8527
  116OSM    H8G12207   2.337   1.429   9.692  2.2234 -1.2051  0.2112
  116OSM    C9F12208   2.180   1.280   9.688  0.2594 -0.0009 -0.1057
  116OSM    H9F12209   2.112   1.231   9.758 -0.4770  1.7683  0.4483
  116OSM   C10F12210   2.143   1.289   9.555 -0.9535 -0.2810 -0.0259
  116OSM   H10F12211   2.055   1.234   9.518 -0.8147  1.2214 -2.6505
  116OSM   C11F12212   2.212   1.346   9.437  0.2953  0.1002 -0.1304
  116OSM   H11F12213   2.269   1.440   9.449 -0.2241  0.6841 -2.0323
  116OSM   H11G12214   2.139   1.366   9.355  1.1818  0.7716 -0.7673
  116OSM   C12F12215   2.308   1.233   9.388 -0.0234 -0.1545 -0.4982
  116OSM   H12F12216   2.260   1.134   9.375  0.5419 -0.4745 -0.1767
  116OSM   H12G12217   2.382   1.215   9.469  0.7971 -0.3367 -1.2800
  116OSM   C13F12218   2.388   1.262   9.264 -0.0562 -0.3879 -0.3518
  116OSM   H13F12219   2.471   1.189   9.252 -0.1565 -0.6125  0.3117
  116OSM   H13G12220   2.442   1.359   9.268  0.4875 -0.6701 -0.7125
  116OSM   C14F12221   2.299   1.262   9.136 -0.0416 -0.0174  0.5636
  116OSM   H14F12222   2.227   1.346   9.135 -2.2865 -1.8992 -1.4133
  116OSM   H14G12223   2.236   1.171   9.125 -0.2177  0.1406  0.2623
  116OSM   C15F12224   2.383   1.278   9.001 -0.0100 -0.1120 -0.2823
  116OSM   H15F12225   2.461   1.202   9.023 -0.4772  0.0275  2.0877
  116OSM   H15G12226   2.432   1.377   9.009 -0.2677 -0.0626  0.9278
  116OSM   C16F12227   2.302   1.255   8.876  0.2186 -0.6179 -0.3494
  116OSM   H16F12228   2.224   1.334   8.880  1.0752  0.2419 -0.3271
  116OSM   H16G12229   2.251   1.157   8.878 -3.0125  1.0335  3.1242
  116OSM   C17F12230   2.378   1.264   8.744 -0.4086  0.2681 -0.1650
  116OSM   H17F12231   2.416   1.365   8.721 -1.6459  0.9925  0.9076
  116OSM   H17G12232   2.304   1.238   8.664  0.2662  0.3909 -0.8378
  116OSM   C18F12233   2.487   1.166   8.736  0.0961  0.1873 -0.7276
  116OSM   H18F12234   2.517   1.144   8.632  1.1610 -1.6244 -0.0535
  116OSM   H18G12235   2.469   1.066   8.780  0.3503  0.6924  0.5669
  116OSM   H18H12236   2.583   1.200   8.781 -0.7646  0.8176  0.6870
  117OSM      N12237   6.517   2.267  10.956  0.2663 -0.7548 -0.0177
  117OSM    C1512238   6.636   2.220  10.886  0.1701 -0.2699 -0.3109
  117OSM   H15A12239   6.703   2.305  10.890  1.6231 -1.3206 -1.5817
  117OSM   H15B12240   6.616   2.192  10.784 -1.6527  0.6030 -0.2148
  117OSM   H15C12241   6.680   2.138  10.940  1.0615  0.1117 -0.4500
  117OSM    C1412242   6.418   2.155  10.973 -0.4828  0.1927  0.2368
  117OSM   H14A12243   6.321   2.193  11.001 -0.0429  0.6321  1.1982
  117OSM   H14B12244   6.447   2.085  11.051 -0.9593  0.3221  0.5351
  117OSM   H14C12245   6.399   2.100  10.882 -0.5711  1.3580 -0.4526
  117OSM    C1312246   6.544   2.306  11.100 -0.3376 -0.2053  0.1049
  117OSM   H13A12247   6.559   2.223  11.169  3.5340  0.2531 -0.0675
  117OSM   H13B12248   6.458   2.358  11.140  0.5963  0.4429  1.2845
  117OSM   H13C12249   6.633   2.364  11.118 -1.0067  0.4850  1.2348
  117OSM    C1212250   6.450   2.377  10.880  0.3484 -0.2702  0.1704
  117OSM   H12A12251   6.350   2.395  10.918  1.2487  3.0649  1.1363
  117OSM   H12B12252   6.437   2.338  10.780  1.7967 -1.3963  0.4081
  117OSM    C1112253   6.528   2.514  10.875  0.1029 -1.1515  0.3056
  117OSM   H11A12254   6.457   2.574  10.815 -0.7654 -0.8828  1.5828
  117OSM   H11B12255   6.624   2.510  10.818 -0.0298 -2.0338  0.1393
  117OSM      P12256   6.541   2.734  11.012  0.2663 -0.1278  0.1223
  117OSM    O1312257   6.411   2.752  11.072  0.1798  0.1606  0.2630
  117OSM    O1412258   6.670   2.777  11.079 -0.4556  1.3552 -0.5041
  117OSM    O1112259   6.545   2.776  10.858  0.6556 -0.3977 -0.1513
  117OSM    O1212260   6.552   2.583  11.001  0.4525  0.2951  0.2560
  117OSM    C1S12261   6.671   2.803  10.798  0.0430  0.3321 -0.8204
  117OSM    H1S12262   6.736   2.717  10.822  0.9808  0.5327 -2.5417
  117OSM    H1T12263   6.713   2.900  10.831 -1.8758  0.9181 -0.0233
  117OSM     NF12264   6.764   2.800  10.580  0.1350  0.2742 -0.3565
  117OSM    HNF12265   6.783   2.891  10.544 -0.7996  1.2337  1.5085
  117OSM    C2S12266   6.641   2.802  10.647  0.1202 -0.3303  0.5207
  117OSM    H2S12267   6.582   2.710  10.626 -1.7777 -0.1444  4.6457
  117OSM    C3S12268   6.545   2.923  10.603 -0.4589 -0.5108 -0.0187
  117OSM    H3S12269   6.602   3.017  10.620 -0.7925 -0.3122  0.0113
  117OSM     O312270   6.433   2.948  10.691  0.0560 -0.0534  0.7480
  117OSM    HO312271   6.457   2.895  10.768 -2.6535 -1.3864  0.7275
  117OSM    C4S12272   6.499   2.903  10.469  0.5364 -0.4694  0.7231
  117OSM    H4S12273   6.446   2.808  10.452  0.7686 -0.5881  0.6588
  117OSM    C5S12274   6.520   2.987  10.364 -0.4365  0.0181  0.3374
  117OSM    H5S12275   6.578   3.076  10.391 -0.2385 -0.5755  1.9611
  117OSM    C6S12276   6.484   2.967  10.217  0.4801 -0.1251 -0.3124
  117OSM    H6S12277   6.461   3.062  10.164 -0.6762 -0.6666 -0.7997
  117OSM    H6T12278   6.410   2.886  10.202  0.0419 -0.0449  1.3830
  117OSM    C7S12279   6.608   2.902  10.144 -0.0757  0.1678 -0.1296
  117OSM    H7S12280   6.627   2.808  10.200 -0.7725 -0.4533 -0.9362
  117OSM    H7T12281   6.702   2.959  10.163  0.5394 -0.5241 -1.0236
  117OSM    C8S12282   6.588   2.881   9.990 -0.3518  0.2118 -0.3804
  117OSM    H8S12283   6.498   2.819   9.970 -2.2208  2.5784  0.4997
  117OSM    H8T12284   6.684   2.840   9.951 -0.7601 -0.4304 -0.7036
  117OSM    C9S12285   6.589   3.007   9.916 -0.6924  0.2492 -0.2429
  117OSM    H9S12286   6.666   3.071   9.965 -0.7675  0.9747 -1.0563
  117OSM    H9T12287   6.493   3.062   9.929 -1.3193 -0.6510 -1.0201
  117OSM   C10S12288   6.622   2.996   9.760  0.8453 -0.0879  0.4837
  117OSM   H10S12289   6.541   2.932   9.720  0.6361  0.0607  0.6703
  117OSM   H10T12290   6.709   2.928   9.749  0.3853 -0.2872 -2.0626
  117OSM   C11S12291   6.628   3.135   9.702  0.1509  0.0376  0.0132
  117OSM   H11S12292   6.683   3.212   9.760  1.3476 -2.4933  2.3218
  117OSM   H11T12293   6.525   3.175   9.691  0.1301  0.4635  1.6494
  117OSM   C12S12294   6.682   3.143   9.561 -0.6567 -0.5133  0.4764
  117OSM   H12S12295   6.772   3.080   9.546 -0.7777 -0.4888 -0.3778
  117OSM   H12T12296   6.698   3.250   9.538 -0.7635 -0.5718  0.1209
  117OSM   C13S12297   6.596   3.085   9.445 -0.0265  0.9629  0.1734
  117OSM   H13S12298   6.495   3.130   9.451  1.0883  3.7336 -1.4123
  117OSM   H13T12299   6.579   2.976   9.462  2.7678 -0.0661 -3.0327
  117OSM   C14S12300   6.655   3.090   9.310  0.0075  0.0402  0.5469
  117OSM   H14S12301   6.745   3.026   9.301  0.0495  0.1799 -0.1072
  117OSM   H14T12302   6.675   3.194   9.278  1.4225 -0.1834  0.6650
  117OSM   C15S12303   6.567   3.029   9.196  0.1499 -0.1178  0.2249
  117OSM   H15S12304   6.486   3.100   9.170  0.5297  0.5988  0.9897
  117OSM   H15T12305   6.524   2.935   9.237 -0.8319  0.2208 -0.0153
  117OSM   C16S12306   6.643   2.991   9.069 -0.2017 -0.1890  0.1099
  117OSM   H16S12307   6.569   2.937   9.006  0.8872 -2.0611  0.3939
  117OSM   H16T12308   6.717   2.914   9.101 -0.0430 -1.2032 -2.5798
  117OSM   C17S12309   6.709   3.098   8.990  0.0828  0.4645  0.1402
  117OSM   H17S12310   6.772   3.166   9.052  0.8477  2.7006 -2.9363
  117OSM   H17T12311   6.633   3.166   8.947 -0.9726  1.0415  2.8328
  117OSM   C18S12312   6.786   3.035   8.875  0.6907 -0.0001 -0.5987
  117OSM   H18S12313   6.825   3.118   8.813  1.4684  1.6058  1.9568
  117OSM   H18T12314   6.714   2.972   8.818 -0.7117 -2.0583  3.2371
  117OSM   H18U12315   6.858   2.964   8.919  0.1054  1.1191  2.2981
  117OSM    C1F12316   6.858   2.704  10.573  0.2002 -0.5126 -0.3611
  117OSM     OF12317   6.830   2.590  10.603  0.2026  0.0341 -0.0247
  117OSM    C2F12318   6.994   2.728  10.521  0.0946  0.2306 -0.2518
  117OSM    H2F12319   7.054   2.724  10.615 -1.8752 -1.1483  0.9666
  117OSM    H2G12320   7.007   2.829  10.475 -0.3030 -0.3567 -1.6816
  117OSM    C3F12321   7.051   2.623  10.426  0.3469 -0.9116 -0.1146
  117OSM    H3F12322   7.066   2.524  10.475  3.1008 -0.6581 -0.3468
  117OSM    H3G12323   7.153   2.652  10.393  0.4643  1.1285  1.9328
  117OSM    C4F12324   6.978   2.606  10.298 -0.1036  0.3437 -0.0013
  117OSM    H4F12325   6.984   2.708  10.254  0.0074  1.0749  1.7035
  117OSM    H4G12326   6.872   2.573  10.293 -0.1997  0.4064  1.4089
  117OSM    C5F12327   7.059   2.505  10.215  0.1235  0.5341  0.6179
  117OSM    H5F12328   7.024   2.404  10.245  1.3011  0.2462  1.0370
  117OSM    H5G12329   7.170   2.514  10.210  0.2437 -0.6802  1.0156
  117OSM    C6F12330   7.022   2.524  10.066 -0.0990  0.5646 -0.2419
  117OSM    H6F12331   6.912   2.523  10.054 -0.0737 -0.0065 -0.4530
  117OSM    H6G12332   7.062   2.441  10.004 -2.2129 -1.7460  1.4105
  117OSM    C7F12333   7.069   2.654  10.006 -0.2168  0.0871 -0.6763
  117OSM    H7F12334   7.172   2.674  10.042 -0.1245 -0.9595 -0.3466
  117OSM    H7G12335   7.001   2.737  10.036 -0.1552 -0.3604  0.7504
  117OSM    C8F12336   7.089   2.644   9.854 -0.2590 -0.0993 -0.1453
  117OSM    H8F12337   7.156   2.559   9.829 -1.7409 -1.4113  0.2841
  117OSM    H8G12338   7.149   2.733   9.827 -2.4381  1.9081  1.4943
  117OSM    C9F12339   6.971   2.611   9.762 -0.1356  0.6328 -0.8834
  117OSM    H9F12340   6.923   2.515   9.786 -2.1676  1.9630  0.5463
  117OSM   C10F12341   6.924   2.691   9.661 -0.2825  1.1042 -0.9536
  117OSM   H10F12342   6.835   2.660   9.605 -0.7322  0.4334  0.1293
  117OSM   C11F12343   6.984   2.823   9.630  0.3773  0.1205  0.0367
  117OSM   H11F12344   7.054   2.853   9.710  2.3098 -1.4601 -1.0251
  117OSM   H11G12345   6.910   2.906   9.627 -0.5363 -0.7464 -2.0461
  117OSM   C12F12346   7.071   2.838   9.506 -0.2808 -0.0431 -0.0630
  117OSM   H12F12347   7.157   2.770   9.490  0.6068  1.5011 -2.1005
  117OSM   H12G12348   7.117   2.936   9.533  1.0582 -0.7604  0.2913
  117OSM   C13F12349   6.995   2.842   9.372 -0.3478  0.3355 -0.5511
  117OSM   H13F12350   6.926   2.928   9.378 -1.2293 -0.2936 -1.4005
  117OSM   H13G12351   6.930   2.752   9.366 -0.4691  0.0207  3.6896
  117OSM   C14F12352   7.099   2.840   9.260  0.6035 -0.5514 -0.0217
  117OSM   H14F12353   7.156   2.747   9.281  0.8853 -0.9771 -2.5842
  117OSM   H14G12354   7.181   2.914   9.264  1.8469 -1.6307 -3.8483
  117OSM   C15F12355   7.040   2.823   9.121  0.4024  0.9054 -0.3489
  117OSM   H15F12356   6.986   2.916   9.095  1.4841  1.0506 -2.1766
  117OSM   H15G12357   6.959   2.748   9.112  0.8581  0.6395 -2.4748
  117OSM   C16F12358   7.144   2.785   9.017  0.0234 -0.1990  0.2839
  117OSM   H16F12359   7.245   2.804   9.060  0.3062 -0.5664 -0.2126
  117OSM   H16G12360   7.123   2.843   8.924  0.1499  0.2368  0.5233
  117OSM   C17F12361   7.137   2.636   8.973 -0.7923 -0.2660  0.0545
  117OSM   H17F12362   7.035   2.625   8.930  0.7165 -1.3254 -3.4191
  117OSM   H17G12363   7.145   2.560   9.053 -1.7188 -0.1195  0.2894
  117OSM   C18F12364   7.246   2.606   8.873 -0.1750  0.0466  0.1392
  117OSM   H18F12365   7.349   2.594   8.914 -0.5298 -1.1826  0.6786
  117OSM   H18G12366   7.243   2.689   8.798 -1.9524 -1.3800 -1.4062
  117OSM   H18H12367   7.218   2.519   8.810  1.3372  1.3754 -2.4700
  118OSM      N12368   0.500   3.135  11.120 -0.2332  0.2867  0.1391
  118OSM    C1512369   0.562   2.998  11.112 -0.0958 -0.3263 -0.1891
  118OSM   H15A12370   0.626   2.997  11.025  0.3529 -0.6985  0.1475
  118OSM   H15B12371   0.484   2.929  11.081 -0.8263  0.2828  0.2641
  118OSM   H15C12372   0.605   2.971  11.207  1.8847  0.4056 -0.8654
  118OSM    C1412373   0.377   3.134  11.209 -0.0219  0.4325  0.2869
  118OSM   H14A12374   0.292   3.092  11.158  0.6790 -2.4195  1.3394
  118OSM   H14B12375   0.342   3.232  11.234 -1.0959 -0.1510  1.1097
  118OSM   H14C12376   0.395   3.086  11.304  1.3066  0.7850  0.2249
  118OSM    C1312377   0.607   3.226  11.161 -0.4016  0.3368 -0.7838
  118OSM   H13A12378   0.591   3.333  11.156 -3.5417 -0.0532  0.4295
  118OSM   H13B12379   0.703   3.214  11.111  1.0444 -2.6413  2.4924
  118OSM   H13C12380   0.635   3.209  11.264 -1.0349 -2.5717 -1.0494
  118OSM    C1212381   0.448   3.172  10.978 -0.5604 -0.4333 -0.0465
  118OSM   H12A12382   0.379   3.092  10.955  1.1989 -2.3664  1.2644
  118OSM   H12B12383   0.530   3.180  10.907  1.3735 -0.6281  2.1094
  118OSM    C1112384   0.371   3.299  10.944  0.0823 -0.4246  0.0262
  118OSM   H11A12385   0.275   3.288  10.997  0.4803  0.0427  0.8477
  118OSM   H11B12386   0.341   3.315  10.838 -0.4315  0.2325  0.2603
  118OSM      P12387   0.379   3.538  11.063  0.1867 -0.4730 -0.3120
  118OSM    O1312388   0.302   3.495  11.185 -0.6477  0.0495  0.4143
  118OSM    O1412389   0.482   3.643  11.079 -0.2381 -0.1848 -0.2943
  118OSM    O1112390   0.283   3.577  10.943  0.3830  0.0927  0.6263
  118OSM    O1212391   0.454   3.407  10.991  0.4902 -0.2549 -0.0098
  118OSM    C1S12392   0.331   3.623  10.813 -0.4221 -0.0944  0.0638
  118OSM    H1S12393   0.380   3.542  10.754 -1.1941  1.7485 -3.1586
  118OSM    H1T12394   0.400   3.710  10.820 -1.4294  0.6383  1.0979
  118OSM     NF12395   0.246   3.727  10.601 -0.1162  0.6070  0.0527
  118OSM    HNF12396   0.290   3.816  10.590 -1.3158  1.6060  2.7884
  118OSM    C2S12397   0.209   3.675  10.730 -0.2098 -0.4194 -0.2034
  118OSM    H2S12398   0.149   3.584  10.713  0.1045 -0.3947 -1.4584
  118OSM    C3S12399   0.120   3.775  10.819  0.3530 -0.1419  0.0661
  118OSM    H3S12400   0.184   3.860  10.851 -0.4898  0.7766 -0.6576
  118OSM     O312401   0.071   3.720  10.941 -0.1456 -0.6296  0.3510
  118OSM    HO312402   0.135   3.649  10.956  0.9686  0.5946  1.5320
  118OSM    C4S12403   0.000   3.817  10.735  0.0139  0.2358 -0.5680
  118OSM    H4S12404  -0.082   3.745  10.729 -1.6494  1.8708  1.8831
  118OSM    C5S12405  -0.027   3.933  10.680 -0.3694  0.7005 -0.4917
  118OSM    H5S12406   0.044   4.015  10.701 -1.8889  1.3735  2.1845
  118OSM    C6S12407  -0.143   3.982  10.603 -0.0192 -0.3243  0.8428
  118OSM    H6S12408  -0.153   4.092  10.612 -1.5457 -0.5373  1.9383
  118OSM    H6T12409  -0.238   3.945  10.647 -1.5554  0.4087 -1.7462
  118OSM    C7S12410  -0.156   3.935  10.458 -0.5696 -0.0057 -0.3419
  118OSM    H7S12411  -0.254   3.968  10.419 -0.6570 -0.9026 -0.8797
  118OSM    H7T12412  -0.155   3.824  10.458  2.7375 -0.0395  1.0197
  118OSM    C8S12413  -0.046   3.982  10.361 -0.5309 -0.1275 -0.0446
  118OSM    H8S12414   0.020   3.893  10.349 -3.1388 -2.5697  2.7848
  118OSM    H8T12415   0.018   4.067  10.393 -1.1439 -0.0616  1.0323
  118OSM    C9S12416  -0.096   4.006  10.211 -0.1801  0.0336  0.5682
  118OSM    H9S12417  -0.162   4.095  10.215  1.6483  1.4753 -0.4699
  118OSM    H9T12418  -0.146   3.918  10.167 -1.2085 -0.0633  1.9126
  118OSM   C10S12419   0.013   4.053  10.107  0.2151  0.0278  1.0902
  118OSM   H10S12420   0.068   3.964  10.072 -0.1169  1.0742 -2.2514
  118OSM   H10T12421   0.085   4.112  10.169  0.4296 -0.4122  1.2614
  118OSM   C11S12422  -0.047   4.127   9.991 -0.4405 -0.1018 -0.3425
  118OSM   H11S12423  -0.090   4.224  10.025  1.7855  1.0230 -0.6610
  118OSM   H11T12424  -0.121   4.063   9.939 -0.8205  0.0604 -0.0089
  118OSM   C12S12425   0.061   4.160   9.885  0.0313 -0.1640  0.6185
  118OSM   H12S12426   0.105   4.061   9.859  0.1685  0.2995 -0.9598
  118OSM   H12T12427   0.127   4.234   9.936 -1.9686  2.0232  0.1061
  118OSM   C13S12428  -0.009   4.222   9.762  0.4410 -0.1312  0.3847
  118OSM   H13S12429   0.065   4.283   9.706 -0.1752 -0.6084 -0.9960
  118OSM   H13T12430  -0.087   4.297   9.785  0.0086  0.0350 -1.4849
  118OSM   C14S12431  -0.060   4.110   9.665  0.5015  0.4251 -0.1730
  118OSM   H14S12432  -0.119   4.030   9.716  0.0737  0.8982  0.0811
  118OSM   H14T12433   0.028   4.068   9.612  0.1782 -0.0535 -0.3315
  118OSM   C15S12434  -0.161   4.175   9.566 -0.2456  0.2971 -0.1566
  118OSM   H15S12435  -0.249   4.206   9.627 -0.1220  1.2687 -0.4664
  118OSM   H15T12436  -0.203   4.090   9.509  3.2317 -1.4162 -0.2870
  118OSM   C16S12437  -0.114   4.297   9.485 -0.5271 -0.4883  0.3164
  118OSM   H16S12438  -0.012   4.278   9.443  0.1187 -0.2969  1.7738
  118OSM   H16T12439  -0.110   4.381   9.557  0.1656 -0.9912  0.8707
  118OSM   C17S12440  -0.211   4.345   9.379  0.9573  0.4018  1.0101
  118OSM   H17S12441  -0.309   4.333   9.430  0.7999 -0.9991  0.4228
  118OSM   H17T12442  -0.225   4.281   9.289  1.2971 -1.1683  2.0512
  118OSM   C18S12443  -0.193   4.489   9.321 -0.2062 -0.6507 -0.8578
  118OSM   H18S12444  -0.272   4.504   9.245  2.3409  1.7367 -3.0966
  118OSM   H18T12445  -0.103   4.496   9.256  1.0645 -1.0303  0.8012
  118OSM   H18U12446  -0.196   4.571   9.396 -1.5893 -2.1625  0.7973
  118OSM    C1F12447   0.254   3.649  10.495  0.3165  0.4706  0.1688
  118OSM     OF12448   0.222   3.533  10.496  0.4549  0.8081  0.2464
  118OSM    C2F12449   0.306   3.708  10.367 -0.4748 -0.0714 -0.9632
  118OSM    H2F12450   0.416   3.692  10.355 -0.2793  0.8603 -0.4929
  118OSM    H2G12451   0.303   3.819  10.361 -1.7320  0.0569  1.3918
  118OSM    C3F12452   0.226   3.662  10.244  0.7441 -0.0327  0.3021
  118OSM    H3F12453   0.123   3.699  10.261  1.2797  0.9533  1.4603
  118OSM    H3G12454   0.231   3.551  10.232  0.7802 -0.0895  0.8670
  118OSM    C4F12455   0.288   3.733  10.119  0.4766  0.4507  0.0097
  118OSM    H4F12456   0.397   3.715  10.128  0.4384  0.5355  0.6578
  118OSM    H4G12457   0.267   3.842  10.124 -0.4177  0.2275  1.4747
  118OSM    C5F12458   0.257   3.662   9.988  0.4875 -0.4475  0.4434
  118OSM    H5F12459   0.155   3.692   9.955  0.7020 -0.8296 -0.5706
  118OSM    H5G12460   0.251   3.552   9.995 -0.1640 -0.3496  1.5919
  118OSM    C6F12461   0.350   3.695   9.875 -0.0824 -0.2867 -0.3599
  118OSM    H6F12462   0.300   3.650   9.787  1.7605 -1.4215 -0.8490
  118OSM    H6G12463   0.451   3.649   9.872  0.7457  1.4583 -0.1239
  118OSM    C7F12464   0.370   3.848   9.843  0.0878  0.5375 -0.4130
  118OSM    H7F12465   0.453   3.879   9.911 -0.5803  0.7774  0.2991
  118OSM    H7G12466   0.283   3.903   9.884 -0.4252 -1.1187  0.8046
  118OSM    C8F12467   0.396   3.869   9.703 -0.5390  0.3555  0.3606
  118OSM    H8F12468   0.455   3.787   9.657  0.6178  0.3238  1.8550
  118OSM    H8G12469   0.467   3.955   9.702 -1.0068  0.7455 -0.4669
  118OSM    C9F12470   0.277   3.898   9.619 -0.5951  0.5658  0.4396
  118OSM    H9F12471   0.183   3.900   9.676 -0.0889 -1.5890  1.4130
  118OSM   C10F12472   0.272   3.926   9.489  0.3722 -0.9808  0.2637
  118OSM   H10F12473   0.180   3.944   9.431 -0.2967  1.9653  2.1409
  118OSM   C11F12474   0.397   3.935   9.395 -0.4673 -0.1740 -0.3171
  118OSM   H11F12475   0.490   3.932   9.456  0.6426  0.6996 -1.9627
  118OSM   H11G12476   0.410   4.027   9.335 -2.2802  0.8180  0.7701
  118OSM   C12F12477   0.380   3.825   9.294 -0.6517 -0.7718  0.1441
  118OSM   H12F12478   0.287   3.850   9.239 -0.9313 -2.0563  0.0232
  118OSM   H12G12479   0.359   3.726   9.340 -0.4529 -0.9527 -0.1556
  118OSM   C13F12480   0.496   3.815   9.190 -0.3557  0.0596 -0.4744
  118OSM   H13F12481   0.583   3.774   9.246 -0.1742 -2.0831 -2.2614
  118OSM   H13G12482   0.513   3.916   9.149  1.5361  1.6975  3.9870
  118OSM   C14F12483   0.451   3.718   9.078 -0.3863 -0.1349  0.2408
  118OSM   H14F12484   0.344   3.732   9.053 -0.3115  0.0506  0.0197
  118OSM   H14G12485   0.454   3.615   9.121 -4.7959  0.9137  3.4716
  118OSM   C15F12486   0.546   3.733   8.963 -0.6792  0.4248  0.4227
  118OSM   H15F12487   0.646   3.718   9.009 -0.3954  1.4294  0.1306
  118OSM   H15G12488   0.534   3.834   8.918  1.6896  0.5633  0.0081
  118OSM   C16F12489   0.517   3.638   8.854  0.2587  0.0500 -0.3590
  118OSM   H16F12490   0.420   3.665   8.805  0.2257  0.4534 -0.0786
  118OSM   H16G12491   0.494   3.540   8.899  0.6719  0.0089 -0.2381
  118OSM   C17F12492   0.629   3.628   8.758 -0.7546  0.3676 -0.2194
  118OSM   H17F12493   0.729   3.603   8.797 -1.0406 -0.3063  0.0955
  118OSM   H17G12494   0.640   3.725   8.705 -0.0198  0.5792  0.3248
  118OSM   C18F12495   0.601   3.515   8.655  0.5822 -0.1211  0.1646
  118OSM   H18F12496   0.580   3.419   8.706 -0.7145 -0.0534 -0.2284
  118OSM   H18G12497   0.678   3.512   8.576 -0.5157 -0.3291 -0.9122
  118OSM   H18H12498   0.512   3.541   8.594  1.4594  0.3920 -0.8944
  119OSM      N12499   1.095   3.462  11.143  0.6011 -0.3190 -0.0852
  119OSM    C1512500   0.979   3.391  11.202 -0.3064  0.6237 -0.2862
  119OSM   H15A12501   0.886   3.414  11.153 -0.1330  0.3893 -0.7282
  119OSM   H15B12502   0.976   3.429  11.303 -1.5726  0.0743 -0.1040
  119OSM   H15C12503   0.991   3.284  11.191  1.2363  0.9165 -1.5850
  119OSM    C1412504   1.075   3.610  11.170  0.1073  0.1983 -0.4553
  119OSM   H14A12505   0.974   3.639  11.143 -0.0806  2.3788  2.3893
  119OSM   H14B12506   1.146   3.670  11.115  0.4150  0.9374  0.7246
  119OSM   H14C12507   1.097   3.636  11.272 -0.2370 -1.9324  0.1863
  119OSM    C1312508   1.225   3.424  11.210  0.7522  0.0868  0.6192
  119OSM   H13A12509   1.216   3.451  11.314 -0.6825  2.9083 -0.2053
  119OSM   H13B12510   1.313   3.478  11.178 -1.0825  1.9854 -1.4607
  119OSM   H13C12511   1.242   3.317  11.203 -0.8827 -0.1590  0.0408
  119OSM    C1212512   1.099   3.435  10.992 -0.2000 -0.2516  0.8278
  119OSM   H12A12513   1.187   3.487  10.955  0.8403 -0.9971  2.2167
  119OSM   H12B12514   1.011   3.468  10.939  0.6633  0.5286 -0.1466
  119OSM    C1112515   1.127   3.287  10.955 -0.2716 -0.1357 -0.6751
  119OSM   H11A12516   1.222   3.268  11.010 -1.6024  3.0034  2.9753
  119OSM   H11B12517   1.141   3.257  10.849 -0.4889  0.5038 -0.8862
  119OSM      P12518   0.903   3.167  10.924  0.1114  0.2422 -0.2223
  119OSM    O1312519   0.856   3.031  10.961 -0.3878 -0.0730  0.1763
  119OSM    O1412520   0.808   3.273  10.949  0.0100 -0.2386  0.5211
  119OSM    O1112521   0.938   3.180  10.769  0.1631 -0.0430  0.5844
  119OSM    O1212522   1.030   3.199  11.011 -0.3239 -0.1609 -0.8370
  119OSM    C1S12523   0.895   3.075  10.681  0.4454  0.3530  0.3786
  119OSM    H1S12524   0.800   3.024  10.707 -0.5869  1.7173 -0.6548
  119OSM    H1T12525   0.975   2.998  10.671  0.2947  0.2179  0.1987
  119OSM     NF12526   0.847   3.000  10.462  0.7129  0.0558 -0.7008
  119OSM    HNF12527   0.909   2.923  10.456  1.6515  0.6191  1.5803
  119OSM    C2S12528   0.907   3.112  10.533  0.0071 -0.8125  0.2328
  119OSM    H2S12529   0.845   3.202  10.515  0.3720 -0.8366 -1.2061
  119OSM    C3S12530   1.058   3.145  10.490 -0.5865 -0.4830  0.1780
  119OSM    H3S12531   1.128   3.062  10.514 -0.4722 -0.0912  1.1855
  119OSM     O312532   1.113   3.251  10.571 -0.0378  0.0844  0.0318
  119OSM    HO312533   1.060   3.248  10.651 -0.5614  1.5408 -0.2428
  119OSM    C4S12534   1.073   3.179  10.343  0.0146  0.9850  0.2823
  119OSM    H4S12535   1.064   3.093  10.276 -1.7945  1.1138  0.3503
  119OSM    C5S12536   1.079   3.305  10.287 -0.5665 -0.8163  0.1258
  119OSM    H5S12537   1.078   3.393  10.352  0.3570  1.0295 -2.2465
  119OSM    C6S12538   1.082   3.329  10.138  0.7059 -0.0917  0.2736
  119OSM    H6S12539   1.166   3.398  10.117  0.9310 -0.0444  1.3267
  119OSM    H6T12540   0.993   3.380  10.095  2.0124 -0.8549 -3.5571
  119OSM    C7S12541   1.095   3.202  10.050  0.4965 -0.2032 -1.0718
  119OSM    H7S12542   1.010   3.132  10.057  0.9048 -0.4488  2.1295
  119OSM    H7T12543   1.181   3.142  10.086 -0.7167 -0.4084  1.5944
  119OSM    C8S12544   1.096   3.232   9.899  0.7118 -0.3435 -0.8043
  119OSM    H8S12545   1.191   3.285   9.874  2.0064 -1.7572  1.0013
  119OSM    H8T12546   1.013   3.304   9.882 -0.2377 -1.0479  0.7769
  119OSM    C9S12547   1.076   3.114   9.806  0.7267  0.0468  0.5456
  119OSM    H9S12548   1.016   3.037   9.858  0.3946  0.4323  0.7358
  119OSM    H9T12549   1.171   3.069   9.770  0.9896 -2.1403  3.7742
  119OSM   C10S12550   1.002   3.164   9.680  0.3791  0.1692  0.6291
  119OSM   H10S12551   1.077   3.204   9.608 -1.3165  1.7098 -0.3169
  119OSM   H10T12552   0.934   3.244   9.717  1.0516  0.7290  0.6674
  119OSM   C11S12553   0.909   3.070   9.610  0.5377  0.5083 -0.2755
  119OSM   H11S12554   0.832   3.025   9.677  1.2786  1.8886  1.5561
  119OSM   H11T12555   0.964   2.988   9.560 -1.4193 -0.2642 -1.2132
  119OSM   C12S12556   0.834   3.148   9.495 -0.6843  0.7525  0.4923
  119OSM   H12S12557   0.909   3.206   9.438  0.1775  1.1141  1.9527
  119OSM   H12T12558   0.777   3.222   9.555 -2.0096 -1.3744  1.9335
  119OSM   C13S12559   0.743   3.066   9.405  1.2445  0.3048 -0.6117
  119OSM   H13S12560   0.667   3.140   9.373  0.6579  0.7189  1.6221
  119OSM   H13T12561   0.679   2.998   9.466  0.4321  1.1083 -0.5506
  119OSM   C14S12562   0.811   2.997   9.291  0.1221  0.1368  0.2019
  119OSM   H14S12563   0.885   2.927   9.335 -1.4430 -0.5627  1.8040
  119OSM   H14T12564   0.865   3.070   9.228  0.4155 -1.5138 -1.5258
  119OSM   C15S12565   0.708   2.921   9.206  0.1441  0.8551 -0.3141
  119OSM   H15S12566   0.636   2.990   9.157  0.5491  1.7253  0.2813
  119OSM   H15T12567   0.648   2.856   9.272  0.2612 -0.6051 -1.6312
  119OSM   C16S12568   0.775   2.837   9.102 -0.3484  0.1657 -0.0283
  119OSM   H16S12569   0.704   2.765   9.057 -1.5240  1.6343 -0.5610
  119OSM   H16T12570   0.848   2.775   9.159 -1.2901 -1.0346 -0.1035
  119OSM   C17S12571   0.853   2.916   8.995 -0.2924  0.3819  0.4479
  119OSM   H17S12572   0.931   2.979   9.043  1.6999 -1.1713 -0.6599
  119OSM   H17T12573   0.787   2.989   8.943  1.5695  1.5853 -0.2893
  119OSM   C18S12574   0.911   2.823   8.893 -0.1169 -0.5131  0.6963
  119OSM   H18S12575   0.842   2.783   8.815  1.7271 -0.2247 -1.1113
  119OSM   H18T12576   0.941   2.734   8.952  2.4991 -0.2624 -0.2172
  119OSM   H18U12577   0.991   2.873   8.836  0.0642  1.4277  2.5951
  119OSM    C1F12578   0.716   2.982  10.441  0.0354 -0.8361  0.1558
  119OSM     OF12579   0.638   3.073  10.466  0.2959 -0.4784  0.4011
  119OSM    C2F12580   0.662   2.849  10.390  0.4347  0.1565 -0.1035
  119OSM    H2F12581   0.571   2.821  10.448  1.1248 -2.5679 -0.2808
  119OSM    H2G12582   0.740   2.774  10.412  0.9183  0.9807  1.0025
  119OSM    C3F12583   0.630   2.852  10.236 -0.1561 -0.3554 -0.1145
  119OSM    H3F12584   0.568   2.943  10.227  1.8957  1.0392 -0.4887
  119OSM    H3G12585   0.562   2.766  10.220  0.5577 -1.3023  1.6828
  119OSM    C4F12586   0.758   2.853  10.157  0.3735 -0.3699  0.0578
  119OSM    H4F12587   0.811   2.763  10.195  2.0157  0.3820 -0.3703
  119OSM    H4G12588   0.832   2.934  10.176 -1.7608  1.4501  0.8543
  119OSM    C5F12589   0.747   2.816  10.013  0.2600 -0.0328 -0.0653
  119OSM    H5F12590   0.724   2.905   9.951  1.6324 -0.5617 -1.3744
  119OSM    H5G12591   0.683   2.727   9.993  2.1307 -0.8813 -2.5485
  119OSM    C6F12592   0.888   2.764   9.960  0.4345  0.1993  0.9539
  119OSM    H6F12593   0.916   2.669  10.010 -0.2830 -0.0405  0.9119
  119OSM    H6G12594   0.963   2.840   9.989 -1.8036  1.9146  2.4202
  119OSM    C7F12595   0.893   2.736   9.804 -0.1411  0.3077  0.4705
  119OSM    H7F12596   1.002   2.727   9.784  0.0088  1.0634  0.9439
  119OSM    H7G12597   0.853   2.825   9.749 -0.3196  0.5399  0.9703
  119OSM    C8F12598   0.819   2.607   9.776 -0.7489  1.0075 -0.4963
  119OSM    H8F12599   0.830   2.534   9.859 -0.4988  1.8765  0.2517
  119OSM    H8G12600   0.860   2.558   9.685  0.6832 -1.3871  1.3923
  119OSM    C9F12601   0.667   2.621   9.764  0.3753 -0.3051  0.9139
  119OSM    H9F12602   0.606   2.602   9.853  0.0735 -0.9564  0.5667
  119OSM   C10F12603   0.607   2.636   9.641  0.1975  0.6329  0.4275
  119OSM   H10F12604   0.497   2.640   9.642  0.1642 -0.4198  1.3014
  119OSM   C11F12605   0.663   2.649   9.500 -0.3136 -0.1710  0.8481
  119OSM   H11F12606   0.773   2.656   9.502 -0.3514  0.7931  0.0599
  119OSM   H11G12607   0.623   2.744   9.458 -3.1897 -0.4859  2.7441
  119OSM   C12F12608   0.619   2.543   9.391 -0.8231 -0.7394 -0.3712
  119OSM   H12F12609   0.635   2.583   9.288 -0.4825  0.6859  0.2169
  119OSM   H12G12610   0.509   2.528   9.397 -1.4500  3.3806  0.1888
  119OSM   C13F12611   0.695   2.415   9.406  0.1137  0.4554  0.2606
  119OSM   H13F12612   0.662   2.390   9.510 -0.3971 -0.8006 -0.1845
  119OSM   H13G12613   0.805   2.424   9.403  0.1678 -0.7993 -2.7719
  119OSM   C14F12614   0.648   2.300   9.319  0.3688  0.0725  0.6982
  119OSM   H14F12615   0.538   2.292   9.330  0.1155 -0.8156 -2.1075
  119OSM   H14G12616   0.682   2.201   9.356  1.5730 -0.0260 -0.6281
  119OSM   C15F12617   0.693   2.305   9.169  1.0785 -0.4034 -0.1345
  119OSM   H15F12618   0.681   2.408   9.127  3.9693  0.2736  0.5911
  119OSM   H15G12619   0.628   2.243   9.104  2.4276  1.2700 -3.1399
  119OSM   C16F12620   0.838   2.262   9.164  0.7107 -0.3831  0.3760
  119OSM   H16F12621   0.857   2.157   9.194  1.4632 -0.8294 -1.5923
  119OSM   H16G12622   0.898   2.329   9.230 -0.4644  1.4943 -0.4252
  119OSM   C17F12623   0.898   2.286   9.028 -0.2884  0.0044 -0.1272
  119OSM   H17F12624   0.881   2.201   8.959 -0.1188 -1.3232  1.4257
  119OSM   H17G12625   1.007   2.277   9.049 -0.8466 -1.7121  2.2170
  119OSM   C18F12626   0.872   2.413   8.953  0.1825  0.4685  0.2258
  119OSM   H18F12627   0.782   2.406   8.888  1.0726 -0.4429 -0.9338
  119OSM   H18G12628   0.954   2.430   8.881  0.8876 -2.9269  0.1512
  119OSM   H18H12629   0.862   2.503   9.018  0.3556  0.4709  0.2511
  120OSM      N12630   6.334   6.161  10.766  0.1017 -0.0104 -0.2123
  120OSM    C1512631   6.326   6.218  10.628 -0.3037  0.2353  0.1457
  120OSM   H15A12632   6.227   6.192  10.592 -0.2538  0.7595 -0.3894
  120OSM   H15B12633   6.402   6.175  10.564  1.2887  1.5184  1.1792
  120OSM   H15C12634   6.345   6.323  10.639 -0.5885  0.0328  2.8521
  120OSM    C1412635   6.254   6.239  10.856 -0.1706 -0.2785 -0.4523
  120OSM   H14A12636   6.148   6.247  10.838 -0.2125  0.8060  0.2347
  120OSM   H14B12637   6.291   6.340  10.867  0.4740 -0.4529 -1.0143
  120OSM   H14C12638   6.259   6.189  10.951 -2.7000 -0.8433 -0.5677
  120OSM    C1312639   6.270   6.026  10.757  0.1577  0.9175  0.8603
  120OSM   H13A12640   6.189   6.024  10.685 -0.3205 -0.3193  1.4369
  120OSM   H13B12641   6.237   5.995  10.855  0.1103 -0.5885  0.3834
  120OSM   H13C12642   6.347   5.957  10.728  0.0844  0.4320  1.8189
  120OSM    C1212643   6.476   6.150  10.827  0.1856  0.5126  1.3265
  120OSM   H12A12644   6.533   6.100  10.750 -0.8371  3.1461 -1.2541
  120OSM   H12B12645   6.475   6.075  10.905 -0.5172 -0.5771  0.2998
  120OSM    C1112646   6.554   6.278  10.865 -0.1158 -0.1989  0.1730
  120OSM   H11A12647   6.652   6.259  10.913 -0.1090  0.2145  0.3252
  120OSM   H11B12648   6.502   6.331  10.947  0.5477  1.0362 -0.1870
  120OSM      P12649   6.711   6.306  10.659  0.5957  0.0749 -0.0913
  120OSM    O1312650   6.813   6.412  10.678 -0.1522 -0.1722  0.3219
  120OSM    O1412651   6.744   6.167  10.698  0.4759 -0.1221  0.4150
  120OSM    O1112652   6.651   6.302  10.513 -0.5777  0.2597  0.1735
  120OSM    O1212653   6.584   6.347  10.746 -0.4637 -0.5079  0.1231
  120OSM    C1S12654   6.604   6.413  10.453  0.8864  0.4639 -0.1580
  120OSM    H1S12655   6.670   6.502  10.458  2.0905 -0.3678 -1.0336
  120OSM    H1T12656   6.501   6.439  10.488  0.3480 -0.3594 -1.1043
  120OSM     NF12657   6.573   6.502  10.231 -0.2678  0.3058 -0.4314
  120OSM    HNF12658   6.481   6.534  10.208  0.4987  1.8363 -1.4617
  120OSM    C2S12659   6.582   6.379  10.304 -0.8916  0.3755  0.6493
  120OSM    H2S12660   6.674   6.327  10.270  0.0440  1.6192  1.2619
  120OSM    C3S12661   6.463   6.280  10.283 -0.3364  0.2601  0.6193
  120OSM    H3S12662   6.368   6.328  10.313 -0.7791  1.4238 -2.4820
  120OSM     O312663   6.474   6.155  10.361 -0.3493 -0.0264  0.3529
  120OSM    HO312664   6.542   6.165  10.428 -0.9988  0.2553  0.9747
  120OSM    C4S12665   6.451   6.240  10.136  0.3549 -0.4370  0.1376
  120OSM    H4S12666   6.548   6.225  10.087 -0.7872 -2.8955 -1.4815
  120OSM    C5S12667   6.335   6.243  10.068  0.9313 -0.0037  0.1725
  120OSM    H5S12668   6.245   6.282  10.117  1.4995  0.8618  0.5540
  120OSM    C6S12669   6.317   6.214   9.918 -0.6446 -0.2499  0.2170
  120OSM    H6S12670   6.209   6.202   9.894 -0.4731  0.0702 -0.7283
  120OSM    H6T12671   6.379   6.123   9.902  2.3039  1.5015  1.2277
  120OSM    C7S12672   6.376   6.325   9.825 -0.0340  0.5262 -0.3574
  120OSM    H7S12673   6.486   6.318   9.838  0.4596  3.6891 -2.4107
  120OSM    H7T12674   6.337   6.426   9.847 -0.7483  0.2185 -0.1644
  120OSM    C8S12675   6.357   6.287   9.683  0.8551  0.2590  0.3285
  120OSM    H8S12676   6.247   6.278   9.668  1.1035 -0.5298 -1.2173
  120OSM    H8T12677   6.419   6.195   9.672  1.4455  0.6225  0.6245
  120OSM    C9S12678   6.420   6.390   9.584  0.2289  0.7256 -0.4667
  120OSM    H9S12679   6.526   6.402   9.614  0.1131 -0.5125  0.4352
  120OSM    H9T12680   6.371   6.487   9.606 -2.0334 -0.5937  0.4579
  120OSM   C10S12681   6.416   6.355   9.436  0.0401 -0.1199  0.1665
  120OSM   H10S12682   6.316   6.372   9.391 -0.5193 -0.0080  1.4418
  120OSM   H10T12683   6.436   6.248   9.417 -0.3336 -0.4049  1.3780
  120OSM   C11S12684   6.510   6.439   9.351  1.2454 -0.0095 -0.2427
  120OSM   H11S12685   6.610   6.451   9.397  0.4088  2.2118  1.0929
  120OSM   H11T12686   6.486   6.547   9.350 -0.2002 -0.3274 -0.9020
  120OSM   C12S12687   6.527   6.402   9.203  0.1038 -0.7043  0.6977
  120OSM   H12S12688   6.437   6.344   9.177  2.1958 -3.8496  0.1671
  120OSM   H12T12689   6.604   6.324   9.183  1.6171  0.9592 -0.1476
  120OSM   C13S12690   6.545   6.531   9.123 -0.0257  0.0826 -0.1244
  120OSM   H13S12691   6.646   6.570   9.148  0.1727  0.2396 -1.1400
  120OSM   H13T12692   6.472   6.612   9.144  0.1094 -0.3346  2.1126
  120OSM   C14S12693   6.552   6.499   8.976 -0.8063 -0.1590  0.1201
  120OSM   H14S12694   6.456   6.447   8.956 -1.0774 -0.7181  2.6782
  120OSM   H14T12695   6.637   6.430   8.956  0.8640  1.7550  0.5307
  120OSM   C15S12696   6.554   6.611   8.876 -0.3928  0.3526  0.4903
  120OSM   H15S12697   6.634   6.677   8.918  0.2413 -1.5332  2.3450
  120OSM   H15T12698   6.457   6.665   8.867 -1.4124 -1.5714 -0.1254
  120OSM   C16S12699   6.596   6.566   8.731  0.6694  0.1028  0.1818
  120OSM   H16S12700   6.517   6.498   8.694 -0.0799 -0.5143  2.8166
  120OSM   H16T12701   6.696   6.518   8.732  1.0274  0.7838 -1.1231
  120OSM   C17S12702   6.595   6.692   8.641  0.3155  0.2231  0.6820
  120OSM   H17S12703   6.669   6.758   8.690  1.7086 -0.6392 -0.2567
  120OSM   H17T12704   6.498   6.746   8.633 -1.7651 -3.3281  1.0322
  120OSM   C18S12705   6.656   6.655   8.504 -0.5257 -0.4205  0.1756
  120OSM   H18S12706   6.755   6.606   8.512 -0.3382 -0.0070  0.3256
  120OSM   H18T12707   6.641   6.743   8.438 -2.4414 -0.4292  0.5548
  120OSM   H18U12708   6.597   6.575   8.454  3.1074 -1.9128 -1.8725
  120OSM    C1F12709   6.680   6.573  10.193  0.0387  0.0038 -0.2436
  120OSM     OF12710   6.784   6.560  10.258 -0.3941  0.1442 -0.5066
  120OSM    C2F12711   6.675   6.678  10.084  0.5470 -0.2075 -0.1841
  120OSM    H2F12712   6.719   6.771  10.126  1.4968 -0.4348 -0.6493
  120OSM    H2G12713   6.568   6.701  10.068  0.1244 -2.2559 -0.4282
  120OSM    C3F12714   6.750   6.621   9.964 -0.0223  0.2612 -0.2605
  120OSM    H3F12715   6.720   6.519   9.932  1.5567 -0.6250  1.0229
  120OSM    H3G12716   6.857   6.612   9.993 -0.3027  0.5879  0.8954
  120OSM    C4F12717   6.733   6.722   9.854  0.1123 -1.1067  0.5694
  120OSM    H4F12718   6.832   6.752   9.814 -0.7175 -0.8490 -1.3527
  120OSM    H4G12719   6.683   6.809   9.902  0.4352 -0.4880 -0.2005
  120OSM    C5F12720   6.647   6.664   9.740 -0.1161  0.1690 -0.5547
  120OSM    H5F12721   6.542   6.665   9.775  0.3347 -1.3871  0.8815
  120OSM    H5G12722   6.681   6.563   9.710  1.9013  1.0345 -1.3018
  120OSM    C6F12723   6.657   6.742   9.606  0.2313 -0.5360 -0.2260
  120OSM    H6F12724   6.645   6.848   9.636  1.0623 -0.6546  0.5246
  120OSM    H6G12725   6.564   6.719   9.549  1.0055  1.4735 -2.3789
  120OSM    C7F12726   6.789   6.729   9.524 -1.0378 -0.1266 -0.1161
  120OSM    H7F12727   6.794   6.620   9.504  1.5674  0.1495 -1.1343
  120OSM    H7G12728   6.883   6.754   9.578 -1.5897 -2.2705  1.8918
  120OSM    C8F12729   6.777   6.808   9.392 -0.4512  0.6912 -0.4419
  120OSM    H8F12730   6.692   6.764   9.336 -1.1568  0.1399  1.0347
  120OSM    H8G12731   6.871   6.790   9.336  0.6409  0.1999  1.4993
  120OSM    C9F12732   6.766   6.957   9.386  0.6907  0.3054  0.1687
  120OSM    H9F12733   6.856   7.008   9.421 -0.5644  2.2268  0.6424
  120OSM   C10F12734   6.644   7.005   9.365  0.4412 -0.0762  0.2296
  120OSM   H10F12735   6.645   7.115   9.355 -1.2820 -0.1279 -0.7571
  120OSM   C11F12736   6.511   6.942   9.316 -0.2189  0.4058 -0.1062
  120OSM   H11F12737   6.429   6.977   9.382 -0.1176  1.5492 -0.5756
  120OSM   H11G12738   6.522   6.832   9.304 -0.3170  0.2598  1.0135
  120OSM   C12F12739   6.494   6.979   9.165 -0.0910  0.1385 -0.9792
  120OSM   H12F12740   6.577   6.926   9.112  0.7758 -0.3071  0.7740
  120OSM   H12G12741   6.492   7.089   9.150  0.1665  0.5371  1.5977
  120OSM   C13F12742   6.363   6.934   9.114 -0.3335 -1.0609  0.5224
  120OSM   H13F12743   6.292   6.989   9.179 -0.4003  1.5994 -1.7076
  120OSM   H13G12744   6.351   6.825   9.129 -2.1686 -0.6769  1.8981
  120OSM   C14F12745   6.341   6.968   8.964 -0.1476 -0.9771 -0.8658
  120OSM   H14F12746   6.424   6.917   8.911  2.2157  0.2697  1.5323
  120OSM   H14G12747   6.353   7.078   8.955 -0.7300 -0.8459 -0.0928
  120OSM   C15F12748   6.202   6.926   8.910 -0.1588 -0.2460  0.4678
  120OSM   H15F12749   6.120   6.947   8.982 -0.1831 -1.1892  0.7256
  120OSM   H15G12750   6.211   6.815   8.903 -0.8963 -0.4147  1.9605
  120OSM   C16F12751   6.158   6.986   8.774  0.4854  0.3634 -0.2257
  120OSM   H16F12752   6.164   7.097   8.778  1.0063  0.3272  0.0407
  120OSM   H16G12753   6.050   6.963   8.761  0.4265 -0.4487  1.4979
  120OSM   C17F12754   6.232   6.957   8.646 -0.0031  0.2598  0.7394
  120OSM   H17F12755   6.273   6.855   8.656 -1.9772 -0.4700  1.6409
  120OSM   H17G12756   6.316   7.030   8.646 -1.0089  1.5218  3.9128
  120OSM   C18F12757   6.146   6.969   8.520  0.0380  0.1662  0.5691
  120OSM   H18F12758   6.109   7.069   8.488  0.3157  0.2764  0.5962
  120OSM   H18G12759   6.056   6.905   8.529  0.7695 -1.0516 -0.6855
  120OSM   H18H12760   6.201   6.931   8.431  2.0412 -0.3541  2.0016
  121OSM      N12761   5.438   3.053  11.062  0.1525 -0.4364  0.9029
  121OSM    C1512762   5.292   3.026  11.069 -0.5769  0.8971 -0.6046
  121OSM   H15A12763   5.236   3.087  10.999  0.4669 -0.8208 -2.9755
  121OSM   H15B12764   5.267   3.047  11.172  0.8687  0.8989 -0.2497
  121OSM   H15C12765   5.284   2.923  11.039  1.8492  0.6229 -0.3857
  121OSM    C1412766   5.458   3.200  11.095 -0.0718  0.6553  0.0930
  121OSM   H14A12767   5.407   3.223  11.188  1.9496 -1.4595  1.7840
  121OSM   H14B12768   5.431   3.269  11.017 -1.3034  0.9568  0.7642
  121OSM   H14C12769   5.561   3.204  11.125 -0.5113 -1.3643  2.0541
  121OSM    C1312770   5.500   2.967  11.173  0.6228  0.2856 -0.0168
  121OSM   H13A12771   5.454   2.995  11.266  1.0036 -2.4176  1.0344
  121OSM   H13B12772   5.607   2.981  11.171  0.6415  0.6081  2.4084
  121OSM   H13C12773   5.482   2.860  11.164  2.1544  0.1252 -1.3183
  121OSM    C1212774   5.502   3.012  10.929 -0.0667 -0.5224 -0.3290
  121OSM   H12A12775   5.444   3.061  10.852  1.2132 -1.0398 -1.6409
  121OSM   H12B12776   5.476   2.911  10.899 -2.1029 -0.2836  0.6010
  121OSM    C1112777   5.652   3.028  10.907 -0.0140 -0.7122 -0.6400
  121OSM   H11A12778   5.673   3.137  10.896 -2.1183 -0.0595  1.4018
  121OSM   H11B12779   5.658   2.988  10.803  0.2655  1.8483 -1.6628
  121OSM      P12780   5.846   3.022  11.091 -0.1270  0.0898 -0.2223
  121OSM    O1312781   5.775   3.123  11.181 -1.0791 -0.1200 -0.1247
  121OSM    O1412782   5.917   2.916  11.163 -0.1682 -0.4380  0.3292
  121OSM    O1112783   5.953   3.091  11.001  0.3338  0.6235  0.5361
  121OSM    O1212784   5.733   2.951  11.003  1.2889 -0.1319 -0.3172
  121OSM    C1S12785   5.999   3.012  10.885 -0.0083 -0.8497 -0.0521
  121OSM    H1S12786   5.933   2.930  10.851 -0.9881  0.6776 -1.8852
  121OSM    H1T12787   6.099   2.973  10.912 -0.2804 -2.1573 -0.9182
  121OSM     NF12788   6.092   3.016  10.663  0.0779 -0.0668 -0.5808
  121OSM    HNF12789   6.187   3.041  10.648  0.0988  1.2163  1.4816
  121OSM    C2S12790   6.014   3.100  10.761  0.0075  0.1418 -0.7525
  121OSM    H2S12791   5.909   3.114  10.726 -0.5926  0.1509  0.9981
  121OSM    C3S12792   6.083   3.234  10.792 -0.0392 -0.6143 -0.0044
  121OSM    H3S12793   6.187   3.218  10.828 -0.2710 -1.3893  0.3366
  121OSM     O312794   6.027   3.316  10.896  0.5123 -0.3410 -0.2809
  121OSM    HO312795   5.976   3.254  10.949 -2.3584  0.4435 -2.0404
  121OSM    C4S12796   6.085   3.317  10.669 -0.3298 -0.2653 -0.6008
  121OSM    H4S12797   5.986   3.344  10.631 -1.0774 -1.0710  0.7555
  121OSM    C5S12798   6.194   3.355  10.598  0.2213  0.3882 -0.2896
  121OSM    H5S12799   6.298   3.329  10.623 -0.2658  2.0491  3.9127
  121OSM    C6S12800   6.180   3.424  10.467  0.7853 -0.6245 -0.0028
  121OSM    H6S12801   6.237   3.520  10.466 -0.5782  0.2253  1.7943
  121OSM    H6T12802   6.078   3.467  10.450  0.4638 -2.1334 -2.0183
  121OSM    C7S12803   6.231   3.342  10.344 -0.1179  0.1374  0.1221
  121OSM    H7S12804   6.155   3.264  10.327  0.3389 -0.2905  0.0269
  121OSM    H7T12805   6.333   3.298  10.352 -1.0385 -1.9722  0.3151
  121OSM    C8S12806   6.219   3.437  10.225  0.8932 -0.1785 -0.7612
  121OSM    H8S12807   6.289   3.523  10.223  0.7920 -0.0346  1.2130
  121OSM    H8T12808   6.118   3.482  10.216  2.1507  2.5556 -1.5869
  121OSM    C9S12809   6.237   3.362  10.093 -0.3759  0.4661  0.1794
  121OSM    H9S12810   6.154   3.291  10.079 -0.1237  0.1732  0.1648
  121OSM    H9T12811   6.339   3.317  10.097 -1.0553 -1.2896 -1.6722
  121OSM   C10S12812   6.237   3.466   9.979  1.0254 -0.0207  0.8283
  121OSM   H10S12813   6.301   3.555  10.000  0.1550  0.7078  0.3822
  121OSM   H10T12814   6.133   3.502   9.968  1.2571  0.3028 -0.3589
  121OSM   C11S12815   6.284   3.411   9.847 -0.4724 -0.7725 -0.7033
  121OSM   H11S12816   6.225   3.319   9.827 -2.0197  0.1245 -0.3752
  121OSM   H11T12817   6.386   3.371   9.860 -0.1990 -0.2914 -1.3651
  121OSM   C12S12818   6.254   3.497   9.726 -0.0812 -0.7339  0.0458
  121OSM   H12S12819   6.302   3.597   9.718 -2.1102  0.1297 -1.8281
  121OSM   H12T12820   6.146   3.512   9.704  0.2183  0.6353 -0.5602
  121OSM   C13S12821   6.299   3.420   9.595 -0.0658 -0.5584  0.8160
  121OSM   H13S12822   6.239   3.327   9.584  0.2497 -0.6155 -0.5271
  121OSM   H13T12823   6.404   3.392   9.619  0.0900 -1.5317 -0.9294
  121OSM   C14S12824   6.293   3.488   9.460  0.0989  1.3398  0.6631
  121OSM   H14S12825   6.341   3.588   9.455  2.9744 -0.0347  0.0029
  121OSM   H14T12826   6.189   3.520   9.435 -1.1021 -2.7184  0.1136
  121OSM   C15S12827   6.363   3.413   9.352  0.0041  0.2370 -0.4334
  121OSM   H15S12828   6.292   3.329   9.334  0.2944 -0.3447  1.0833
  121OSM   H15T12829   6.462   3.367   9.374  0.4540  0.2305 -2.4055
  121OSM   C16S12830   6.368   3.499   9.227  0.5566  0.0144  0.0176
  121OSM   H16S12831   6.428   3.587   9.258 -0.1863  0.6833 -0.4231
  121OSM   H16T12832   6.268   3.542   9.206  0.8823  0.7572 -0.0545
  121OSM   C17S12833   6.434   3.425   9.111 -0.2899  0.5729 -0.2993
  121OSM   H17S12834   6.368   3.338   9.090 -0.8888  1.5026 -2.3047
  121OSM   H17T12835   6.531   3.388   9.152  0.3438  1.7676 -0.7012
  121OSM   C18S12836   6.462   3.497   8.979 -0.1468 -0.6399 -0.6211
  121OSM   H18S12837   6.525   3.425   8.922 -0.7058 -2.0007  0.4533
  121OSM   H18T12838   6.506   3.596   9.005 -1.0132 -0.2753 -0.5370
  121OSM   H18U12839   6.378   3.514   8.909 -0.3509  2.9612  0.4093
  121OSM    C1F12840   6.038   2.913  10.602  0.3555  0.2270 -0.5588
  121OSM     OF12841   5.920   2.885  10.605 -0.0823  0.1888  0.7407
  121OSM    C2F12842   6.133   2.840  10.513 -0.2292 -0.2148  0.3875
  121OSM    H2F12843   6.172   2.749  10.563  2.3506  0.1779 -0.8069
  121OSM    H2G12844   6.214   2.904  10.472  0.0174  1.1539  2.9257
  121OSM    C3F12845   6.059   2.802  10.384 -0.2429 -0.0690 -0.1807
  121OSM    H3F12846   6.029   2.888  10.320 -0.4277 -1.2197 -1.6724
  121OSM    H3G12847   5.967   2.742  10.400 -0.0412 -1.1926 -2.8840
  121OSM    C4F12848   6.147   2.711  10.292 -0.0493 -0.0570 -0.6705
  121OSM    H4F12849   6.176   2.620  10.350  2.0910  2.7328  2.8877
  121OSM    H4G12850   6.243   2.761  10.267 -0.2222  1.4174  1.4439
  121OSM    C5F12851   6.082   2.666  10.158  0.4355  0.2449  0.0813
  121OSM    H5F12852   5.974   2.665  10.183  0.4904 -0.0417  0.3076
  121OSM    H5G12853   6.094   2.563  10.118  0.7776 -0.0564  0.9547
  121OSM    C6F12854   6.119   2.767  10.045 -0.2354  0.4558  0.3639
  121OSM    H6F12855   6.075   2.734   9.949  1.0428 -0.6289  0.1458
  121OSM    H6G12856   6.229   2.772  10.031 -0.3973  0.1337 -1.0615
  121OSM    C7F12857   6.065   2.915  10.074  0.4413  0.1108  0.2167
  121OSM    H7F12858   6.132   2.960  10.149  0.9818  2.2275 -1.4867
  121OSM    H7G12859   5.961   2.902  10.111  0.6984 -0.9427  0.5866
  121OSM    C8F12860   6.067   2.996   9.945  0.5319  0.3309 -0.1007
  121OSM    H8F12861   6.024   3.096   9.964 -0.8296  0.2361 -2.5617
  121OSM    H8G12862   5.998   2.937   9.881 -0.7150  0.3062  1.2349
  121OSM    C9F12863   6.204   3.018   9.890 -0.2006 -0.1652 -0.4511
  121OSM    H9F12864   6.273   3.047   9.970  0.3376 -1.0366 -0.5910
  121OSM   C10F12865   6.237   3.006   9.760  0.5084  0.0083 -0.5528
  121OSM   H10F12866   6.339   3.035   9.730  0.5484 -0.3609 -0.7717
  121OSM   C11F12867   6.152   2.967   9.646  0.7307  0.5913  0.1995
  121OSM   H11F12868   6.050   3.012   9.653  0.2615 -0.7313  2.4598
  121OSM   H11G12869   6.130   2.861   9.671  3.3254 -0.8476 -3.2775
  121OSM   C12F12870   6.210   2.980   9.507  0.4392  0.1957  0.1187
  121OSM   H12F12871   6.308   2.927   9.504 -0.3965 -1.3738  0.0542
  121OSM   H12G12872   6.226   3.089   9.499 -3.0863  0.7610  0.0588
  121OSM   C13F12873   6.119   2.938   9.394  0.1982 -0.4977 -0.5632
  121OSM   H13F12874   6.020   2.984   9.411  0.1385  0.0242 -2.2386
  121OSM   H13G12875   6.111   2.827   9.392  0.1168 -0.4743 -2.6388
  121OSM   C14F12876   6.162   2.985   9.256  0.0024  0.1608  0.5743
  121OSM   H14F12877   6.256   2.931   9.232  0.1152  0.4775  0.3114
  121OSM   H14G12878   6.182   3.094   9.260  1.0171  0.0776 -1.5760
  121OSM   C15F12879   6.052   2.959   9.158 -0.3548 -0.1799 -0.2985
  121OSM   H15F12880   5.972   3.035   9.168  1.2640  1.4311  0.9121
  121OSM   H15G12881   6.008   2.857   9.162 -0.2594 -0.2949 -1.9208
  121OSM   C16F12882   6.089   2.983   9.012 -0.2977  0.4063  0.0787
  121OSM   H16F12883   6.171   2.914   8.983 -0.0295  1.0625 -0.7660
  121OSM   H16G12884   6.139   3.082   9.014 -0.3645  0.4478 -0.2951
  121OSM   C17F12885   5.967   2.977   8.915 -0.5899  0.5653  0.7863
  121OSM   H17F12886   5.873   2.943   8.963 -0.1559 -1.4089  0.2854
  121OSM   H17G12887   6.012   2.906   8.842  0.7716  1.4463  0.7550
  121OSM   C18F12888   5.942   3.107   8.850 -0.0093 -0.5049  0.4485
  121OSM   H18F12889   6.030   3.134   8.788 -1.3663 -1.5698 -2.0355
  121OSM   H18G12890   5.918   3.191   8.917 -0.2832  0.0105 -0.2918
  121OSM   H18H12891   5.857   3.110   8.779 -1.5321 -2.0119  2.1497
  122OSM      N12892   0.204   0.916  11.251  0.2101  0.3111  0.2550
  122OSM    C1512893   0.273   0.923  11.378 -0.3301  0.2930 -0.1740
  122OSM   H15A12894   0.335   1.012  11.382  2.4637 -1.5882 -0.1480
  122OSM   H15B12895   0.342   0.841  11.386 -0.1423  0.5631  1.0772
  122OSM   H15C12896   0.204   0.934  11.460  1.3103 -0.1048  1.3078
  122OSM    C1412897   0.161   0.772  11.233 -0.0216  0.3470  0.5795
  122OSM   H14A12898   0.072   0.773  11.172  1.1097 -1.6196 -1.1522
  122OSM   H14B12899   0.137   0.726  11.327  0.4176  0.1833  0.6125
  122OSM   H14C12900   0.237   0.712  11.186  1.0931 -0.5829  3.4608
  122OSM    C1312901   0.086   1.007  11.255  0.5937 -0.3228  0.3309
  122OSM   H13A12902   0.047   1.009  11.154 -0.2880 -0.4548  0.6644
  122OSM   H13B12903   0.111   1.107  11.287  2.9526  0.1594 -2.7801
  122OSM   H13C12904   0.005   0.963  11.311  0.2922  0.6996  0.7079
  122OSM    C1212905   0.300   0.963  11.139  0.5251 -0.1005  0.1674
  122OSM   H12A12906   0.392   0.907  11.149  0.1163 -0.8398 -0.1774
  122OSM   H12B12907   0.320   1.068  11.154 -1.8506  0.3120  0.6032
  122OSM    C1112908   0.259   0.947  10.991 -0.1755 -0.4996  0.3248
  122OSM   H11A12909   0.237   0.841  10.965 -0.3192 -0.1368 -1.0669
  122OSM   H11B12910   0.343   0.976  10.924 -1.4691 -2.2704 -2.0963
  122OSM      P12911   0.135   1.169  10.916  0.3384  0.2908 -0.3330
  122OSM    O1312912   0.040   1.237  11.008 -0.0727  0.3328 -0.0139
  122OSM    O1412913   0.270   1.229  10.907  0.5491 -0.2025  0.1813
  122OSM    O1112914   0.069   1.176  10.774  0.1445  0.1398  0.4402
  122OSM    O1212915   0.138   1.017  10.958 -0.2844  0.8950 -0.0192
  122OSM    C1S12916   0.127   1.090  10.670 -0.7361 -0.7295 -0.1702
  122OSM    H1S12917   0.102   0.983  10.686 -2.2857 -0.1497  1.4685
  122OSM    H1T12918   0.238   1.099  10.670 -0.6468 -1.6163 -1.5167
  122OSM     NF12919   0.126   1.012  10.435  0.0063  0.2462 -0.0810
  122OSM    HNF12920   0.198   1.026  10.368  0.0282  1.8290  0.2650
  122OSM    C2S12921   0.087   1.124  10.521  0.0407 -0.4716 -1.1551
  122OSM    H2S12922  -0.023   1.135  10.520  0.0441 -0.2207  0.3346
  122OSM    C3S12923   0.137   1.262  10.477  0.5017  0.9384 -0.4069
  122OSM    H3S12924   0.245   1.273  10.502 -0.3091 -0.0610  3.8716
  122OSM     O312925   0.087   1.373  10.545  0.2162  0.2965  0.7723
  122OSM    HO312926   0.034   1.331  10.613 -2.3946  1.0818 -0.7247
  122OSM    C4S12927   0.134   1.287  10.330 -0.1850  0.1447  0.2622
  122OSM    H4S12928   0.224   1.253  10.277  0.1952  0.9333  0.3788
  122OSM    C5S12929   0.032   1.351  10.266  0.3901 -0.6228 -0.1618
  122OSM    H5S12930  -0.036   1.412  10.328  0.2622  0.1684 -1.0675
  122OSM    C6S12931   0.037   1.386  10.122 -0.9237 -0.2524  0.5421
  122OSM    H6S12932  -0.042   1.331  10.066  0.4565  0.2579 -1.9591
  122OSM    H6T12933   0.131   1.357  10.071 -2.4253 -0.1242 -2.3707
  122OSM    C7S12934   0.012   1.535  10.094  0.8019 -0.2855 -1.1818
  122OSM    H7S12935   0.102   1.598  10.111 -0.3145  1.3154 -1.0060
  122OSM    H7T12936  -0.082   1.569  10.144  0.5409 -3.3793  0.5567
  122OSM    C8S12937  -0.020   1.565   9.943 -0.7207  0.6350  0.2723
  122OSM    H8S12938  -0.074   1.662   9.938  0.9336  1.5664  0.1393
  122OSM    H8T12939  -0.096   1.491   9.910 -0.2865  0.2995  0.0076
  122OSM    C9S12940   0.102   1.572   9.853  0.4390  0.5606 -0.5118
  122OSM    H9S12941   0.148   1.471   9.860  1.3597  0.8339 -2.3112
  122OSM    H9T12942   0.177   1.652   9.876  0.9284  0.5191 -1.9533
  122OSM   C10S12943   0.069   1.597   9.705 -0.0124  1.7863 -0.1055
  122OSM   H10S12944  -0.000   1.684   9.703 -0.1636  1.6460 -1.8875
  122OSM   H10T12945   0.007   1.509   9.673  3.6229 -1.0084  0.2136
  122OSM   C11S12946   0.190   1.612   9.616 -0.2213 -0.1293  0.2835
  122OSM   H11S12947   0.261   1.527   9.613  0.1847  0.2636 -1.4212
  122OSM   H11T12948   0.258   1.690   9.657 -0.5496 -0.5684  1.6888
  122OSM   C12S12949   0.148   1.652   9.473  0.5128 -0.2435 -0.0582
  122OSM   H12S12950   0.084   1.569   9.437 -1.2943  1.0814  0.0698
  122OSM   H12T12951   0.245   1.653   9.417  1.0478 -0.1609  0.8565
  122OSM   C13S12952   0.089   1.792   9.454  0.1446 -1.4021  0.1505
  122OSM   H13S12953   0.139   1.875   9.509 -0.0779 -1.5051  0.5073
  122OSM   H13T12954  -0.009   1.798   9.506 -0.1804  0.7587 -0.6669
  122OSM   C14S12955   0.089   1.828   9.302 -0.1329  0.1669  0.1817
  122OSM   H14S12956   0.003   1.897   9.285  0.9876  0.7650 -3.4018
  122OSM   H14T12957   0.071   1.737   9.242 -0.1086  1.0072 -1.1388
  122OSM   C15S12958   0.208   1.920   9.250  0.7739  0.0520 -0.3361
  122OSM   H15S12959   0.307   1.871   9.258  0.7298  0.0097 -0.0174
  122OSM   H15T12960   0.209   2.011   9.313 -1.3357  1.0526 -1.6840
  122OSM   C16S12961   0.213   1.968   9.106  0.8187  1.0266  0.0343
  122OSM   H16S12962   0.290   2.047   9.092  1.4087  0.3664 -0.5144
  122OSM   H16T12963   0.112   2.011   9.087 -1.5365 -2.7297  3.1179
  122OSM   C17S12964   0.229   1.857   9.005 -0.6573  0.7182 -0.1301
  122OSM   H17S12965   0.164   1.768   9.024  0.9421 -0.6258 -0.8506
  122OSM   H17T12966   0.325   1.807   9.026 -0.6291  0.8928  0.1482
  122OSM   C18S12967   0.217   1.886   8.854  0.3800  0.2480  0.0681
  122OSM   H18S12968   0.235   1.797   8.790 -2.9312 -0.8686  0.5929
  122OSM   H18T12969   0.284   1.973   8.837  2.3189 -1.2291 -0.0389
  122OSM   H18U12970   0.115   1.928   8.841  1.4752  2.5429 -1.4360
  122OSM    C1F12971   0.074   0.890  10.440  0.1626 -0.1520  0.2004
  122OSM     OF12972  -0.033   0.863  10.503  0.0511 -0.0705  0.0500
  122OSM    C2F12973   0.144   0.791  10.357 -0.4934 -0.3979  0.4957
  122OSM    H2F12974   0.182   0.716  10.430 -1.3692 -1.1887  0.1468
  122OSM    H2G12975   0.234   0.844  10.321 -1.3170  0.9260  0.3695
  122OSM    C3F12976   0.061   0.726  10.244  0.3083  0.2222  0.2628
  122OSM    H3F12977  -0.037   0.700  10.288 -0.2401  0.1251 -1.0014
  122OSM    H3G12978   0.116   0.644  10.193 -0.7435  0.2444 -0.9158
  122OSM    C4F12979   0.031   0.822  10.130  0.5308  0.2387  0.0125
  122OSM    H4F12980  -0.003   0.919  10.172  1.6352  1.0037 -0.8023
  122OSM    H4G12981  -0.051   0.767  10.080  1.9069 -1.3128 -0.5961
  122OSM    C5F12982   0.158   0.844  10.045 -0.3110  0.1041 -0.4781
  122OSM    H5F12983   0.206   0.744  10.033 -0.3272 -0.0158  0.4210
  122OSM    H5G12984   0.227   0.918  10.090 -0.1096  1.3172 -2.7100
  122OSM    C6F12985   0.133   0.889   9.901  0.8355  1.0874 -0.0859
  122OSM    H6F12986   0.072   0.981   9.911 -3.3632 -1.7522  2.1504
  122OSM    H6G12987   0.066   0.822   9.843  0.6552 -0.3298  1.7016
  122OSM    C7F12988   0.257   0.925   9.817  0.7865 -0.3676 -0.2495
  122OSM    H7F12989   0.233   0.897   9.712  1.9917  2.9154 -1.4703
  122OSM    H7G12990   0.339   0.853   9.840  0.2440 -1.0277 -0.3781
  122OSM    C8F12991   0.293   1.069   9.830 -0.4837 -0.0549  0.8504
  122OSM    H8F12992   0.403   1.077   9.812 -0.7237  0.5228 -0.4395
  122OSM    H8G12993   0.277   1.101   9.935  1.9168 -0.7595  1.4661
  122OSM    C9F12994   0.209   1.153   9.743 -0.5824 -0.7138  0.5514
  122OSM    H9F12995   0.100   1.142   9.755 -0.9489 -1.3126 -2.8104
  122OSM   C10F12996   0.251   1.230   9.644 -0.6473 -0.2482 -0.7398
  122OSM   H10F12997   0.178   1.291   9.589 -2.9559 -1.1440  1.1845
  122OSM   C11F12998   0.398   1.264   9.616  0.8524  0.2167 -0.0918
  122OSM   H11F12999   0.459   1.180   9.654 -1.5529 -1.4168  0.2701
  122OSM   H11G13000   0.419   1.358   9.672  0.3049 -0.2349  0.8861
  122OSM   C12F13001   0.426   1.270   9.462  0.3048  0.5145  0.0309
  122OSM   H12F13002   0.384   1.184   9.405  0.2674  0.9119 -0.5498
  122OSM   H12G13003   0.534   1.282   9.442  0.3902 -0.4734 -0.0982
  122OSM   C13F13004   0.368   1.390   9.387 -0.9415  0.5207 -0.1705
  122OSM   H13F13005   0.419   1.480   9.427 -1.2812  0.4624  0.3950
  122OSM   H13G13006   0.258   1.404   9.403 -1.1293 -1.3963  0.3573
  122OSM   C14F13007   0.397   1.397   9.241 -0.2651 -0.1571  0.3208
  122OSM   H14F13008   0.502   1.383   9.208 -1.2113 -2.8338 -1.7110
  122OSM   H14G13009   0.382   1.502   9.208  2.0331 -0.1050 -0.6353
  122OSM   C15F13010   0.302   1.312   9.159  0.1810  0.0131  0.4618
  122OSM   H15F13011   0.201   1.351   9.185 -0.5516 -0.9426 -0.8366
  122OSM   H15G13012   0.309   1.208   9.198  0.1913  0.1494  0.8265
  122OSM   C16F13013   0.317   1.331   9.010  0.3700  0.5214  0.0978
  122OSM   H16F13014   0.412   1.287   8.971 -1.1069 -2.1264 -0.6060
  122OSM   H16G13015   0.319   1.438   8.981 -0.8643  0.3209 -0.7593
  122OSM   C17F13016   0.200   1.251   8.945 -0.0806  0.4035  0.7978
  122OSM   H17F13017   0.113   1.317   8.966 -0.1430  0.1995  1.1821
  122OSM   H17G13018   0.185   1.155   8.998 -1.2685  0.8710  1.3128
  122OSM   C18F13019   0.222   1.230   8.793  0.1045  0.4742 -0.3028
  122OSM   H18F13020   0.332   1.231   8.777  0.4284  1.7239  1.7433
  122OSM   H18G13021   0.158   1.298   8.732 -2.1917 -2.0238 -0.7560
  122OSM   H18H13022   0.200   1.124   8.773 -1.5596  0.5045  1.2224
  123OSM      N13023   4.013   5.272   6.263  0.1578  0.1809  0.3086
  123OSM    C1513024   3.938   5.150   6.205 -0.3408  0.5379 -0.1079
  123OSM   H15A13025   3.883   5.093   6.278 -0.6282  1.2640  0.2428
  123OSM   H15B13026   4.013   5.083   6.165  0.1280 -0.6035  2.6058
  123OSM   H15C13027   3.863   5.181   6.133  0.5035 -0.4965 -1.4574
  123OSM    C1413028   3.911   5.355   6.337  0.0365  0.8051  0.4566
  123OSM   H14A13029   3.944   5.439   6.396  0.7514  0.8344  0.0256
  123OSM   H14B13030   3.844   5.294   6.396  0.4252 -1.7753 -1.6642
  123OSM   H14C13031   3.855   5.397   6.256  3.8896 -0.3361 -2.9688
  123OSM    C1313032   4.106   5.217   6.362  0.8993 -0.0835  0.1916
  123OSM   H13A13033   4.155   5.292   6.423  0.1875  0.8801 -0.3972
  123OSM   H13B13034   4.172   5.149   6.312 -1.3555 -1.1916 -1.3653
  123OSM   H13C13035   4.057   5.153   6.434  2.3625 -0.9697  0.4063
  123OSM    C1213036   4.087   5.365   6.168 -0.3632 -0.1378  0.2338
  123OSM   H12A13037   4.179   5.314   6.145 -0.0811  1.0544 -1.4040
  123OSM   H12B13038   4.132   5.443   6.228 -0.1739 -1.7768  2.2896
  123OSM    C1113039   4.006   5.411   6.037  0.2729  0.0029 -0.4621
  123OSM   H11A13040   3.927   5.339   6.010  0.1649 -0.5127  1.1344
  123OSM   H11B13041   4.073   5.424   5.950 -1.2814  1.0394 -1.5092
  123OSM      P13042   3.997   5.668   6.077 -0.2853  0.2738  0.2559
  123OSM    O1313043   4.131   5.651   6.024 -0.1277 -0.1339  0.2171
  123OSM    O1413044   3.914   5.776   6.021 -0.7100 -0.0328  0.0936
  123OSM    O1113045   4.014   5.697   6.230 -0.6551 -0.4482  0.0365
  123OSM    O1213046   3.924   5.529   6.067 -0.4097  0.7522  0.3804
  123OSM    C1S13047   3.905   5.774   6.292  0.0555  0.1535 -0.3147
  123OSM    H1S13048   3.806   5.736   6.257  0.8052 -1.5413 -0.6226
  123OSM    H1T13049   3.925   5.880   6.266 -1.2150  0.4058 -0.2954
  123OSM     NF13050   3.777   5.802   6.497 -0.2990 -0.0032 -0.1215
  123OSM    HNF13051   3.778   5.895   6.533 -0.0238 -0.5082  1.2320
  123OSM    C2S13052   3.908   5.759   6.445 -0.1487  0.8724  0.7872
  123OSM    H2S13053   3.911   5.653   6.477 -2.2791  0.1241 -1.3504
  123OSM    C3S13054   4.035   5.828   6.502  0.5629 -0.5274 -0.2189
  123OSM    H3S13055   4.032   5.933   6.463  0.4550 -0.8845 -1.1857
  123OSM     O313056   4.167   5.783   6.473  0.4194  0.1077  0.1003
  123OSM    HO313057   4.161   5.699   6.425  1.4217  0.3288 -0.4463
  123OSM    C4S13058   4.020   5.831   6.652 -0.7927  0.3736 -0.1065
  123OSM    H4S13059   4.027   5.727   6.688  1.4929  0.3414 -0.5598
  123OSM    C5S13060   4.000   5.939   6.731  0.6130  0.3031  0.2831
  123OSM    H5S13061   3.993   6.036   6.678 -3.1150 -0.8888 -1.6002
  123OSM    C6S13062   3.989   5.937   6.883 -0.0142 -0.6819 -0.4828
  123OSM    H6S13063   3.979   5.831   6.916  1.0009 -0.7514 -0.3805
  123OSM    H6T13064   3.899   5.992   6.918  2.2816  1.5761  2.0957
  123OSM    C7S13065   4.122   5.990   6.945 -0.0180 -0.1336  0.4782
  123OSM    H7S13066   4.132   6.096   6.912  2.3046 -0.2428  0.7550
  123OSM    H7T13067   4.209   5.931   6.909  0.3682  0.1167  0.9870
  123OSM    C8S13068   4.116   5.992   7.096  0.2688 -0.5809 -0.8750
  123OSM    H8S13069   4.104   5.888   7.131  1.4030  0.1552  1.8376
  123OSM    H8T13070   4.025   6.037   7.141 -0.6557 -3.6441  0.4360
  123OSM    C9S13071   4.238   6.052   7.165 -0.2455  0.0473 -0.2476
  123OSM    H9S13072   4.249   6.159   7.138  1.8036  0.0718  0.5776
  123OSM    H9T13073   4.335   6.010   7.132  0.0070  2.5349 -2.8472
  123OSM   C10S13074   4.250   6.036   7.318  0.1843 -0.0475  0.2382
  123OSM   H10S13075   4.236   5.932   7.356 -0.0897  0.0771  0.4886
  123OSM   H10T13076   4.169   6.089   7.373  0.7512  0.1498  0.8957
  123OSM   C11S13077   4.389   6.075   7.368  0.3912  0.3265 -0.2039
  123OSM   H11S13078   4.402   6.182   7.340 -0.7718  0.3047 -0.8522
  123OSM   H11T13079   4.457   6.013   7.307 -0.2207 -2.2475  1.6538
  123OSM   C12S13080   4.406   6.039   7.518 -0.5416 -0.6077  0.3978
  123OSM   H12S13081   4.513   6.015   7.536 -0.3031 -1.2982 -1.8769
  123OSM   H12T13082   4.346   5.947   7.533 -2.7508  0.7835  0.3225
  123OSM   C13S13083   4.345   6.137   7.615  0.2534 -0.5178  0.1679
  123OSM   H13S13084   4.239   6.111   7.637 -0.2264  0.7781 -0.6036
  123OSM   H13T13085   4.342   6.233   7.559  2.8842 -1.4565 -1.6965
  123OSM   C14S13086   4.428   6.152   7.744 -0.0837  0.0830 -0.3495
  123OSM   H14S13087   4.531   6.189   7.726 -0.6239  1.2062 -1.1875
  123OSM   H14T13088   4.432   6.051   7.789  1.3505  0.3633  0.1592
  123OSM   C15S13089   4.369   6.254   7.837  0.9576  0.5162 -0.0779
  123OSM   H15S13090   4.268   6.212   7.861 -0.4936  1.8272 -3.5334
  123OSM   H15T13091   4.359   6.350   7.782 -0.4697 -0.2181 -1.1420
  123OSM   C16S13092   4.455   6.284   7.960  0.7324 -0.0737  0.7488
  123OSM   H16S13093   4.555   6.324   7.931 -0.3318  4.3655  2.7770
  123OSM   H16T13094   4.460   6.190   8.019 -0.9350 -0.2650  0.6032
  123OSM   C17S13095   4.387   6.380   8.055 -0.1968  0.7073 -0.1467
  123OSM   H17S13096   4.288   6.338   8.083 -0.9899  3.5471  1.4382
  123OSM   H17T13097   4.363   6.469   7.993 -0.2228  1.8138  1.4367
  123OSM   C18S13098   4.466   6.414   8.182 -0.4155  0.1545  1.0235
  123OSM   H18S13099   4.547   6.484   8.153 -0.2808  0.1005  1.2643
  123OSM   H18T13100   4.519   6.330   8.232 -2.1332 -1.8014 -0.3863
  123OSM   H18U13101   4.393   6.459   8.252  1.3011  0.1524  2.8626
  123OSM    C1F13102   3.670   5.726   6.482  0.0996  0.0757 -0.5006
  123OSM     OF13103   3.672   5.606   6.465 -0.8017 -0.1522 -0.1561
  123OSM    C2F13104   3.550   5.802   6.484 -0.3760  0.2161  0.0083
  123OSM    H2F13105   3.468   5.759   6.422 -1.8542  1.3251  1.1514
  123OSM    H2G13106   3.565   5.902   6.439  0.7869 -1.6889 -4.1146
  123OSM    C3F13107   3.488   5.822   6.626 -0.3269 -0.4450 -0.0233
  123OSM    H3F13108   3.453   5.723   6.661 -2.3360  0.0347 -0.6040
  123OSM    H3G13109   3.393   5.878   6.620 -0.1725 -0.1258  0.4649
  123OSM    C4F13110   3.577   5.889   6.739  0.4766 -0.7107 -0.0100
  123OSM    H4F13111   3.574   5.995   6.705 -4.0539 -1.2471 -1.5619
  123OSM    H4G13112   3.682   5.853   6.748  0.5992 -0.3213  0.1473
  123OSM    C5F13113   3.508   5.880   6.874 -0.7050  0.6253  0.3076
  123OSM    H5F13114   3.399   5.898   6.861 -0.4721  1.0224 -1.0963
  123OSM    H5G13115   3.557   5.966   6.925  2.2784  0.3864 -2.0561
  123OSM    C6F13116   3.527   5.763   6.960 -0.0103 -0.1427 -0.0718
  123OSM    H6F13117   3.504   5.684   6.886  1.0755 -1.6483  1.1765
  123OSM    H6G13118   3.450   5.762   7.041 -1.0369 -3.6198 -1.0181
  123OSM    C7F13119   3.677   5.749   7.009  0.0308 -0.0681  0.0834
  123OSM    H7F13120   3.749   5.749   6.924 -1.5825 -1.5132 -1.3049
  123OSM    H7G13121   3.693   5.655   7.067  2.0933  0.2511  0.0916
  123OSM    C8F13122   3.729   5.845   7.121  0.6809 -0.1258 -0.5399
  123OSM    H8F13123   3.732   5.946   7.074 -0.2054  0.0128 -0.3116
  123OSM    H8G13124   3.836   5.823   7.142 -0.2261 -2.4082  2.1176
  123OSM    C9F13125   3.647   5.852   7.251  0.2671  0.4208  0.0964
  123OSM    H9F13126   3.550   5.904   7.258  1.3150  2.5955 -0.8331
  123OSM   C10F13127   3.697   5.818   7.368 -0.1699 -0.3868 -0.7241
  123OSM   H10F13128   3.633   5.837   7.456  0.8626  2.0373 -0.4561
  123OSM   C11F13129   3.832   5.757   7.399 -0.1268 -0.1166  1.0271
  123OSM   H11F13130   3.894   5.747   7.308 -1.2241  0.5798  0.1802
  123OSM   H11G13131   3.819   5.654   7.439 -2.5229  0.0278  0.7335
  123OSM   C12F13132   3.912   5.852   7.491 -0.8199 -0.0873  0.1388
  123OSM   H12F13133   3.947   5.942   7.435 -1.6635  0.1491 -0.0188
  123OSM   H12G13134   4.013   5.809   7.509 -1.2010 -1.1072 -0.1673
  123OSM   C13F13135   3.849   5.870   7.633 -0.1026  0.2993  0.1843
  123OSM   H13F13136   3.836   5.771   7.681  2.8859  0.6806  1.8833
  123OSM   H13G13137   3.755   5.929   7.637 -0.8448 -0.7892 -0.9200
  123OSM   C14F13138   3.960   5.938   7.724  0.6272 -0.0993  0.0512
  123OSM   H14F13139   3.973   6.040   7.683  0.8468 -0.1324  0.0417
  123OSM   H14G13140   4.052   5.876   7.724  1.1754  0.6904  1.0993
  123OSM   C15F13141   3.907   5.946   7.869  0.2049 -0.4644 -0.3671
  123OSM   H15F13142   3.890   5.840   7.897  1.1072 -0.6635 -0.5508
  123OSM   H15G13143   3.814   6.007   7.865 -0.7122 -1.5798  2.6215
  123OSM   C16F13144   3.999   6.013   7.966 -0.1621 -0.9712  0.4954
  123OSM   H16F13145   3.956   6.034   8.066  1.2235  1.3152  0.6475
  123OSM   H16G13146   4.024   6.116   7.932 -1.6185 -0.4993  0.8200
  123OSM   C17F13147   4.132   5.930   7.982  0.0382 -0.9198  0.0827
  123OSM   H17F13148   4.178   5.918   7.881 -3.1925 -0.9723 -1.4191
  123OSM   H17G13149   4.094   5.830   8.010 -0.0810 -1.8599 -3.2141
  123OSM   C18F13150   4.232   5.992   8.080  0.2554 -0.0160 -0.0656
  123OSM   H18F13151   4.183   6.019   8.176  0.8140 -0.8421  0.4515
  123OSM   H18G13152   4.272   6.088   8.040  0.4451 -1.3537 -3.2975
  123OSM   H18H13153   4.324   5.933   8.097  0.9533  0.9433 -0.4101
  124OSM      N13154   6.529   4.087   5.921 -0.6749 -0.0292  0.7392
  124OSM    C1513155   6.674   4.072   5.958 -0.4458  0.2612 -0.6047
  124OSM   H15A13156   6.726   4.012   5.885  0.0068 -0.6821  0.4742
  124OSM   H15B13157   6.694   4.025   6.054 -0.3803  2.0128  0.2682
  124OSM   H15C13158   6.717   4.169   5.980 -2.9962  1.3111 -0.1219
  124OSM    C1413159   6.462   4.197   5.996  0.1003 -0.2590  0.4192
  124OSM   H14A13160   6.461   4.190   6.103  4.0679  2.2259  0.7108
  124OSM   H14B13161   6.358   4.205   5.969  0.4067  0.0978 -0.7118
  124OSM   H14C13162   6.508   4.294   5.980 -0.0667 -0.4718 -1.5010
  124OSM    C1313163   6.531   4.117   5.770 -0.0199  0.4479  0.0712
  124OSM   H13A13164   6.430   4.140   5.740 -0.3063  0.4220  0.9885
  124OSM   H13B13165   6.566   4.026   5.723 -0.7923 -0.3028  0.9125
  124OSM   H13C13166   6.589   4.207   5.758 -2.1002  1.8172 -0.0741
  124OSM    C1213167   6.459   3.956   5.948  0.3600  0.3361 -0.2220
  124OSM   H12A13168   6.511   3.884   5.887 -0.1757 -0.5201  0.3246
  124OSM   H12B13169   6.360   3.960   5.907  1.0488 -0.0021 -1.9575
  124OSM    C1113170   6.460   3.907   6.091  1.0435 -0.4410 -0.0736
  124OSM   H11A13171   6.376   3.834   6.098 -0.2058  0.8705 -1.0290
  124OSM   H11B13172   6.437   3.990   6.162 -1.3447 -1.9482  0.9584
  124OSM      P13173   6.621   3.820   6.284  0.2712  0.0958 -0.1849
  124OSM    O1313174   6.531   3.718   6.334 -0.1581  0.5228 -0.5583
  124OSM    O1413175   6.765   3.799   6.274  0.4079  0.2339  0.3840
  124OSM    O1113176   6.593   3.950   6.368 -0.0670 -0.2897  0.7708
  124OSM    O1213177   6.582   3.849   6.136  0.0611  0.3980 -0.3772
  124OSM    C1S13178   6.598   3.957   6.514 -0.8783 -0.1126 -0.5799
  124OSM    H1S13179   6.698   3.984   6.554 -1.4757 -0.7213  1.4045
  124OSM    H1T13180   6.561   3.863   6.560  0.7265 -0.6555 -0.3518
  124OSM     NF13181   6.535   4.107   6.702 -0.5619  0.3112 -0.4988
  124OSM    HNF13182   6.475   4.073   6.774  1.1853 -2.5172 -0.3246
  124OSM    C2S13183   6.493   4.064   6.573  0.4740 -0.0626  0.0433
  124OSM    H2S13184   6.497   4.156   6.511  0.6511 -0.6986 -0.8918
  124OSM    C3S13185   6.349   4.000   6.561  0.2792  0.5736  1.0416
  124OSM    H3S13186   6.346   3.908   6.624 -1.4642 -0.8124 -0.9803
  124OSM     O313187   6.337   3.947   6.428  0.0512 -0.1452  0.4101
  124OSM    HO313188   6.428   3.944   6.398 -0.4303 -1.4269 -1.0371
  124OSM    C4S13189   6.239   4.097   6.590  0.5889  0.0248 -0.7057
  124OSM    H4S13190   6.225   4.177   6.515 -0.7540  1.0178  0.5822
  124OSM    C5S13191   6.169   4.102   6.705 -0.2328  0.3723  0.6624
  124OSM    H5S13192   6.186   4.026   6.782  3.2632  1.3121  0.8978
  124OSM    C6S13193   6.063   4.196   6.721 -0.5289 -0.1523  1.0318
  124OSM    H6S13194   5.964   4.146   6.717 -1.8857  2.5816 -3.4218
  124OSM    H6T13195   6.068   4.273   6.641  1.7948 -0.0520  1.2626
  124OSM    C7S13196   6.064   4.263   6.865  0.0709  0.2996  0.8101
  124OSM    H7S13197   6.153   4.330   6.873  1.5044 -1.0950 -2.4176
  124OSM    H7T13198   6.072   4.181   6.940  2.7799  0.8082  1.1444
  124OSM    C8S13199   5.943   4.353   6.884 -0.4886  0.1643  1.2753
  124OSM    H8S13200   5.850   4.295   6.862  0.3564 -0.6869 -0.2033
  124OSM    H8T13201   5.948   4.436   6.810 -1.1661  0.6978  1.8296
  124OSM    C9S13202   5.922   4.416   7.017  0.4585  0.1205  0.1507
  124OSM    H9S13203   5.904   4.335   7.090 -1.3205  0.9683  0.6558
  124OSM    H9T13204   5.823   4.466   7.019  1.4137  2.0488  0.8690
  124OSM   C10S13205   6.026   4.511   7.069  0.3839 -0.1868 -0.1754
  124OSM   H10S13206   6.041   4.593   6.995 -0.3215  1.4657  1.4873
  124OSM   H10T13207   6.113   4.443   7.082  0.1433 -0.5992 -0.7013
  124OSM   C11S13208   5.990   4.577   7.211  0.2653 -0.7360 -0.6739
  124OSM   H11S13209   5.890   4.624   7.212  0.6813  0.1611  1.2537
  124OSM   H11T13210   6.069   4.653   7.232 -0.4615 -0.4184  0.9486
  124OSM   C12S13211   6.015   4.476   7.326 -0.2517 -0.3673  0.0572
  124OSM   H12S13212   6.114   4.426   7.318 -0.1949 -0.2846  0.2557
  124OSM   H12T13213   5.941   4.396   7.306  0.1823 -0.9527  0.8240
  124OSM   C13S13214   6.001   4.538   7.465  0.0348 -0.8875  0.4325
  124OSM   H13S13215   5.908   4.599   7.465  0.3035 -0.4800  0.5383
  124OSM   H13T13216   6.086   4.608   7.478  0.3906 -1.4340  1.0665
  124OSM   C14S13217   5.993   4.437   7.582 -0.4299 -0.1078 -1.3588
  124OSM   H14S13218   6.094   4.390   7.591 -0.2649  0.8188  2.6514
  124OSM   H14T13219   5.917   4.364   7.548 -1.6273  0.7874 -0.6379
  124OSM   C15S13220   5.956   4.502   7.714  0.3362  0.4051  0.1843
  124OSM   H15S13221   5.849   4.529   7.704  0.4442  2.0221  2.9103
  124OSM   H15T13222   6.032   4.582   7.729  1.9665 -0.1612 -4.3175
  124OSM   C16S13223   5.955   4.400   7.832  0.0315  0.1350 -0.3573
  124OSM   H16S13224   6.044   4.337   7.810  0.0915 -0.0211  0.3236
  124OSM   H16T13225   5.867   4.332   7.828 -1.7079  2.2871  0.5481
  124OSM   C17S13226   5.967   4.444   7.979  0.4574 -0.0667 -0.0338
  124OSM   H17S13227   6.066   4.493   7.972  1.5015 -2.3960 -2.6291
  124OSM   H17T13228   5.980   4.362   8.054  1.4131  1.4243  1.4679
  124OSM   C18S13229   5.862   4.542   8.026 -0.3414  0.7315 -0.5680
  124OSM   H18S13230   5.766   4.490   8.048 -0.2323  0.0088 -1.7613
  124OSM   H18T13231   5.839   4.615   7.947 -0.9351 -0.7212 -1.7649
  124OSM   H18U13232   5.903   4.599   8.112 -0.9484  1.3705 -0.7030
  124OSM    C1F13233   6.643   4.180   6.720 -0.6083 -0.3983  0.4670
  124OSM     OF13234   6.693   4.242   6.625  0.2939 -0.0039  0.7540
  124OSM    C2F13235   6.715   4.169   6.857  1.2419 -0.1672 -0.5926
  124OSM    H2F13236   6.734   4.060   6.865  0.0165 -0.4210 -1.0439
  124OSM    H2G13237   6.647   4.197   6.941  1.3455 -1.1754 -0.1715
  124OSM    C3F13238   6.846   4.240   6.881 -0.3207  0.1774  0.1096
  124OSM    H3F13239   6.820   4.347   6.863  1.3856  0.9880  2.3253
  124OSM    H3G13240   6.929   4.215   6.811 -0.7659  1.1505 -0.7976
  124OSM    C4F13241   6.917   4.238   7.019  0.2553  0.2243  0.6569
  124OSM    H4F13242   7.001   4.310   7.026  0.0084  0.4155  1.8223
  124OSM    H4G13243   6.951   4.133   7.034  1.5048  0.4467 -0.5620
  124OSM    C5F13244   6.819   4.274   7.125  0.0847 -0.3186  0.1643
  124OSM    H5F13245   6.726   4.214   7.130  0.3741 -0.6968  1.2488
  124OSM    H5G13246   6.795   4.383   7.125 -1.0838 -0.5711 -0.0300
  124OSM    C6F13247   6.886   4.260   7.260  0.1586  0.7366  0.2014
  124OSM    H6F13248   6.985   4.311   7.268  0.0863  0.8172  0.6286
  124OSM    H6G13249   6.910   4.154   7.285  0.2505  0.6947 -0.0676
  124OSM    C7F13250   6.807   4.323   7.376  0.7219  0.3559 -0.9824
  124OSM    H7F13251   6.704   4.280   7.377 -0.6740  3.5275  1.7201
  124OSM    H7G13252   6.793   4.432   7.359  1.6669  0.7651  0.7119
  124OSM    C8F13253   6.865   4.295   7.515  0.2706  0.0100 -0.1360
  124OSM    H8F13254   6.967   4.339   7.525 -0.3510  1.5603 -0.5771
  124OSM    H8G13255   6.873   4.186   7.533 -0.7739 -0.5735 -2.9897
  124OSM    C9F13256   6.767   4.345   7.618 -0.7671 -0.2373  0.1858
  124OSM    H9F13257   6.672   4.380   7.577  1.0975  1.9602 -2.4467
  124OSM   C10F13258   6.797   4.349   7.750 -0.0127  0.4013  0.4218
  124OSM   H10F13259   6.737   4.403   7.826  2.6740  1.5193  1.8424
  124OSM   C11F13260   6.933   4.314   7.799  0.0586  0.4844 -0.4718
  124OSM   H11F13261   6.975   4.404   7.849 -1.2825  0.8934 -0.0767
  124OSM   H11G13262   7.010   4.276   7.728 -2.6085 -2.2655 -2.0312
  124OSM   C12F13263   6.920   4.205   7.913  0.0354 -0.0160  0.2228
  124OSM   H12F13264   7.024   4.166   7.923 -0.1544 -1.3880 -2.5862
  124OSM   H12G13265   6.852   4.120   7.891  0.7454 -0.6515  0.4527
  124OSM   C13F13266   6.870   4.261   8.051 -0.5763 -0.4730 -0.5019
  124OSM   H13F13267   6.768   4.305   8.041 -1.1267 -1.9663 -1.7595
  124OSM   H13G13268   6.937   4.345   8.077 -0.9940 -0.8396  1.7932
  124OSM   C14F13269   6.853   4.147   8.143 -0.7380 -0.5552  1.3322
  124OSM   H14F13270   6.950   4.096   8.161 -0.2030 -1.3763 -3.3259
  124OSM   H14G13271   6.791   4.065   8.101  0.2523  0.2748 -1.8493
  124OSM   C15F13272   6.793   4.192   8.279  0.3330 -0.5062  0.0847
  124OSM   H15F13273   6.708   4.259   8.252  1.0856  0.4768  0.0897
  124OSM   H15G13274   6.859   4.267   8.327  0.5589 -0.6384 -0.0206
  124OSM   C16F13275   6.747   4.080   8.372 -0.8024  0.0503  0.4430
  124OSM   H16F13276   6.838   4.031   8.411 -0.7607  0.6993  1.1825
  124OSM   H16G13277   6.686   4.013   8.308  1.1652 -0.5438 -0.8452
  124OSM   C17F13278   6.677   4.126   8.497  0.5763  0.4149 -0.5319
  124OSM   H17F13279   6.751   4.193   8.546  0.8569 -0.1529 -0.1716
  124OSM   H17G13280   6.671   4.053   8.580  0.1760 -0.2042 -1.1039
  124OSM   C18F13281   6.549   4.209   8.478  0.4467  0.2244 -1.1975
  124OSM   H18F13282   6.584   4.295   8.418 -0.4374  1.3091 -0.1710
  124OSM   H18G13283   6.514   4.243   8.578  1.1338 -3.3053  0.3553
  124OSM   H18H13284   6.464   4.154   8.432 -1.0729  1.1552  0.4142
  125OSM      N13285   6.227   4.830   6.187  0.2985  0.1710 -0.0936
  125OSM    C1513286   6.307   4.807   6.313 -0.0071 -0.2781  0.5783
  125OSM   H15A13287   6.257   4.846   6.399 -0.0325  4.4769 -1.4337
  125OSM   H15B13288   6.394   4.871   6.317 -0.0937 -0.1995  1.1204
  125OSM   H15C13289   6.335   4.703   6.321  0.8149 -0.1368 -0.2959
  125OSM    C1413290   6.306   4.769   6.073  0.1749 -0.1005 -0.0181
  125OSM   H14A13291   6.233   4.773   5.994  0.1914 -1.2016 -0.1007
  125OSM   H14B13292   6.330   4.665   6.086 -2.2993 -0.9016 -1.5196
  125OSM   H14C13293   6.393   4.825   6.042  0.5584 -0.1242  0.9923
  125OSM    C1313294   6.097   4.759   6.189 -0.4150 -0.4705 -0.1535
  125OSM   H13A13295   6.039   4.810   6.114 -0.9770 -0.1980  0.4573
  125OSM   H13B13296   6.037   4.778   6.277  0.2689 -0.7684  0.3898
  125OSM   H13C13297   6.107   4.652   6.182 -0.2072 -0.5486  1.2240
  125OSM    C1213298   6.199   4.975   6.157  0.1230  0.2832 -0.3080
  125OSM   H12A13299   6.113   4.998   6.218 -0.7872  1.0537 -1.8733
  125OSM   H12B13300   6.155   4.979   6.058  0.7824  0.4946 -0.5968
  125OSM    C1113301   6.312   5.087   6.157  0.6060  0.6218  0.1851
  125OSM   H11A13302   6.317   5.105   6.267 -2.4422  0.2478  0.4150
  125OSM   H11B13303   6.271   5.176   6.106  1.7939  0.8421 -0.4116
  125OSM      P13304   6.567   5.112   6.140 -0.1164  0.1135 -0.1895
  125OSM    O1313305   6.678   5.019   6.138  0.0957  0.5459 -0.3217
  125OSM    O1413306   6.580   5.233   6.058 -0.4065 -0.6993 -0.2311
  125OSM    O1113307   6.529   5.154   6.290 -0.4121 -0.3620 -0.0317
  125OSM    O1213308   6.432   5.042   6.095  0.3144 -0.6652 -0.4901
  125OSM    C1S13309   6.607   5.243   6.364  0.2476  0.7803 -0.6551
  125OSM    H1S13310   6.582   5.346   6.333  0.7918  1.1509  0.1117
  125OSM    H1T13311   6.717   5.235   6.348  0.6829 -0.8652  2.7008
  125OSM     NF13312   6.644   5.340   6.590 -0.1841 -0.0064 -0.2484
  125OSM    HNF13313   6.731   5.339   6.640 -0.2469 -1.2773 -0.1484
  125OSM    C2S13314   6.597   5.226   6.519 -0.1497  0.4424  0.0727
  125OSM    H2S13315   6.491   5.208   6.547 -0.7930  1.4190 -1.6502
  125OSM    C3S13316   6.659   5.089   6.553  0.5037  0.0268  0.3707
  125OSM    H3S13317   6.767   5.115   6.543  0.1341  1.8849  1.0127
  125OSM     O313318   6.632   4.981   6.457  0.5675 -0.3507  0.1572
  125OSM    HO313319   6.576   5.023   6.391  1.3853 -0.0265 -0.3355
  125OSM    C4S13320   6.623   5.058   6.701  0.0208 -1.2396  0.3179
  125OSM    H4S13321   6.707   5.063   6.773  0.3298  1.6730 -0.1679
  125OSM    C5S13322   6.510   5.003   6.729  0.6243 -0.3278 -0.5593
  125OSM    H5S13323   6.432   4.983   6.654  0.7335  0.4391 -0.8896
  125OSM    C6S13324   6.478   4.957   6.866  0.3072 -0.1925  0.7226
  125OSM    H6S13325   6.428   4.858   6.875 -0.9625  0.5578  2.0430
  125OSM    H6T13326   6.390   5.020   6.890 -1.7554 -2.8331  0.2275
  125OSM    C7S13327   6.585   4.947   6.974  0.0287 -0.3443  0.6578
  125OSM    H7S13328   6.637   5.044   6.982 -1.3872  0.4760  0.1920
  125OSM    H7T13329   6.656   4.871   6.936  0.6607  0.1960  0.7616
  125OSM    C8S13330   6.526   4.897   7.105  0.2388 -1.2930 -0.6858
  125OSM    H8S13331   6.574   4.800   7.127  0.4830 -1.1039 -0.3869
  125OSM    H8T13332   6.416   4.883   7.101  0.1511 -0.8014 -0.0606
  125OSM    C9S13333   6.549   5.000   7.224  0.5720 -0.4995 -0.1810
  125OSM    H9S13334   6.513   5.101   7.196  1.1357 -0.8993 -2.4351
  125OSM    H9T13335   6.659   4.996   7.236  0.5559 -0.1329  0.0990
  125OSM   C10S13336   6.482   4.965   7.362 -0.3105 -0.2378 -0.6392
  125OSM   H10S13337   6.503   4.860   7.389  0.8006 -0.1003 -0.9441
  125OSM   H10T13338   6.372   4.980   7.355 -0.6094 -2.1278 -0.2193
  125OSM   C11S13339   6.543   5.050   7.467 -0.2628  0.5267  0.4444
  125OSM   H11S13340   6.527   5.157   7.440 -1.8043 -0.1074 -1.2181
  125OSM   H11T13341   6.653   5.037   7.473 -0.3669 -0.7447 -0.2439
  125OSM   C12S13342   6.465   5.017   7.593 -0.5523 -0.1478 -1.3430
  125OSM   H12S13343   6.464   4.906   7.597  0.5837 -0.1827 -1.9304
  125OSM   H12T13344   6.358   5.046   7.582 -0.5392  0.1123 -0.7768
  125OSM   C13S13345   6.523   5.068   7.719  0.5588 -0.6630 -0.3667
  125OSM   H13S13346   6.475   5.166   7.741  0.3152 -1.2236  1.7400
  125OSM   H13T13347   6.632   5.081   7.705  1.0545 -0.7299  3.0697
  125OSM   C14S13348   6.496   4.977   7.842 -0.5659  0.5791 -0.0596
  125OSM   H14S13349   6.547   4.878   7.837  0.8339  1.0923  3.0262
  125OSM   H14T13350   6.388   4.952   7.848 -0.0746 -1.1159  2.3214
  125OSM   C15S13351   6.545   5.040   7.977  0.0134 -0.3901  0.6627
  125OSM   H15S13352   6.648   5.075   7.956  0.1976 -1.0182  0.4982
  125OSM   H15T13353   6.548   4.966   8.060 -3.0700  0.7211  1.8122
  125OSM   C16S13354   6.460   5.159   8.016  0.1686  0.4318  0.2730
  125OSM   H16S13355   6.351   5.143   8.001  0.1926  0.8576 -0.4061
  125OSM   H16T13356   6.499   5.240   7.951  1.8830 -0.1904  0.5016
  125OSM   C17S13357   6.475   5.198   8.165 -0.0921  0.0764 -0.7405
  125OSM   H17S13358   6.584   5.207   8.178 -0.0603 -2.3393  1.1475
  125OSM   H17T13359   6.441   5.113   8.228  2.0614 -1.9508 -2.1897
  125OSM   C18S13360   6.399   5.327   8.208  0.0613  0.4549  0.2206
  125OSM   H18S13361   6.428   5.418   8.152 -2.8731  1.9106  1.0061
  125OSM   H18T13362   6.415   5.346   8.316 -0.3983  4.7442 -0.4004
  125OSM   H18U13363   6.291   5.305   8.193  0.4205 -1.2538  0.0135
  125OSM    C1F13364   6.580   5.464   6.579 -0.2595  0.1472 -0.1282
  125OSM     OF13365   6.474   5.465   6.514 -0.4980 -0.6480 -0.7854
  125OSM    C2F13366   6.632   5.582   6.646 -0.1931  0.3339 -0.2033
  125OSM    H2F13367   6.731   5.607   6.602  0.6896 -0.8793  1.0251
  125OSM    H2G13368   6.659   5.554   6.750  0.5853 -1.0909 -0.7663
  125OSM    C3F13369   6.532   5.704   6.653 -0.4105  0.0103  0.2956
  125OSM    H3F13370   6.428   5.667   6.658 -1.2751  2.5031  0.9829
  125OSM    H3G13371   6.533   5.749   6.552 -0.5684 -0.9567 -0.1471
  125OSM    C4F13372   6.560   5.813   6.757 -0.3127 -0.2558 -0.1121
  125OSM    H4F13373   6.558   5.768   6.859 -1.3322 -0.9467 -0.4157
  125OSM    H4G13374   6.471   5.879   6.752 -0.0990  0.1465  1.2418
  125OSM    C5F13375   6.683   5.894   6.714  0.3296  0.5667 -0.6722
  125OSM    H5F13376   6.661   5.927   6.610 -0.2358 -1.2903 -1.1637
  125OSM    H5G13377   6.775   5.832   6.724 -1.0271 -1.5833 -1.1848
  125OSM    C6F13378   6.707   6.016   6.801 -0.2238  0.2274  0.4655
  125OSM    H6F13379   6.761   5.976   6.889  0.3641  1.5378  0.7260
  125OSM    H6G13380   6.612   6.066   6.830 -1.3381 -0.4649 -1.8267
  125OSM    C7F13381   6.804   6.120   6.737  0.3658 -0.1406  0.2400
  125OSM    H7F13382   6.765   6.157   6.639  0.1358 -1.3487 -0.1318
  125OSM    H7G13383   6.903   6.074   6.720 -0.2043 -2.5933  3.0815
  125OSM    C8F13384   6.805   6.247   6.829 -0.0483  0.2299  0.1657
  125OSM    H8F13385   6.877   6.324   6.794 -0.3380 -0.5142 -2.1254
  125OSM    H8G13386   6.833   6.205   6.929  0.9605  3.0676  1.1220
  125OSM    C9F13387   6.668   6.316   6.835  0.1571  0.1188  0.1782
  125OSM    H9F13388   6.634   6.344   6.734 -0.5301 -1.2932  0.0181
  125OSM   C10F13389   6.593   6.345   6.940 -0.5186  0.0377 -0.0371
  125OSM   H10F13390   6.504   6.408   6.923 -1.0757 -0.7269  0.0339
  125OSM   C11F13391   6.624   6.319   7.084  0.8252  0.4926  0.1796
  125OSM   H11F13392   6.618   6.416   7.138  3.3783  1.0037 -0.3842
  125OSM   H11G13393   6.725   6.275   7.096  0.2300 -0.5805  1.3673
  125OSM   C12F13394   6.527   6.215   7.142  0.9725  0.7199 -0.2446
  125OSM   H12F13395   6.530   6.127   7.075  0.0446  1.2489 -0.9806
  125OSM   H12G13396   6.421   6.247   7.138  0.7385 -0.0184 -0.0958
  125OSM   C13F13397   6.564   6.185   7.286  0.4665  0.3131 -0.1347
  125OSM   H13F13398   6.541   6.266   7.359 -2.5929 -2.5641  2.2166
  125OSM   H13G13399   6.671   6.155   7.282  0.6719  0.2924  3.7410
  125OSM   C14F13400   6.484   6.055   7.331 -0.5201 -0.2040 -0.3813
  125OSM   H14F13401   6.496   5.976   7.254 -0.4823 -1.2135  0.6575
  125OSM   H14G13402   6.379   6.088   7.350 -0.3879  0.6151 -1.0065
  125OSM   C15F13403   6.539   5.993   7.454 -0.0430  0.7418 -0.5703
  125OSM   H15F13404   6.642   5.960   7.429 -0.1531 -0.7568  0.8989
  125OSM   H15G13405   6.490   5.898   7.483 -1.8483  1.1199 -2.3441
  125OSM   C16F13406   6.557   6.097   7.571  1.1552  0.2976 -0.1687
  125OSM   H16F13407   6.472   6.168   7.579  0.1222 -1.1224  1.8039
  125OSM   H16G13408   6.644   6.157   7.538  2.0004 -1.4645 -1.2514
  125OSM   C17F13409   6.583   6.041   7.710 -0.3887 -0.3374  0.4997
  125OSM   H17F13410   6.686   6.000   7.707 -1.1047 -2.1055 -0.5160
  125OSM   H17G13411   6.518   5.956   7.743  0.1396 -1.1281 -0.4964
  125OSM   C18F13412   6.574   6.135   7.826 -0.4607 -0.1906  0.0057
  125OSM   H18F13413   6.549   6.083   7.921  1.1375 -0.1422  0.4672
  125OSM   H18G13414   6.494   6.211   7.808 -0.1471  0.1445  0.0154
  125OSM   H18H13415   6.665   6.198   7.835  0.6984 -1.8390  0.0197
  126OSM      N13416   4.339   4.466   6.465 -0.1100  0.0549 -0.2526
  126OSM    C1513417   4.387   4.392   6.589  0.0539  0.4544  0.1187
  126OSM   H15A13418   4.478   4.341   6.560  0.4355  0.9390  0.4498
  126OSM   H15B13419   4.314   4.315   6.612 -0.4959  1.3053  1.2902
  126OSM   H15C13420   4.410   4.457   6.672  1.8190  0.9047 -0.7114
  126OSM    C1413421   4.439   4.570   6.409 -0.3916 -0.0324  0.2015
  126OSM   H14A13422   4.543   4.540   6.409 -0.1075  0.9511 -0.1549
  126OSM   H14B13423   4.430   4.658   6.471  1.1749  0.7213 -0.6252
  126OSM   H14C13424   4.430   4.610   6.309  2.9464  0.8909  0.2308
  126OSM    C1313425   4.333   4.358   6.356  0.6391  0.5723 -0.0195
  126OSM   H13A13426   4.240   4.303   6.367  2.2663 -1.8216  2.3404
  126OSM   H13B13427   4.419   4.294   6.353  0.5440  0.4801 -1.2339
  126OSM   H13C13428   4.328   4.400   6.257  1.9608  1.1323  0.1458
  126OSM    C1213429   4.202   4.518   6.480 -0.0403 -0.0484  0.0797
  126OSM   H12A13430   4.131   4.442   6.508  0.3824  0.2086  1.8689
  126OSM   H12B13431   4.172   4.554   6.383 -3.0944 -0.9316  0.6671
  126OSM    C1113432   4.176   4.638   6.578  0.2509  0.4241  0.7210
  126OSM   H11A13433   4.256   4.712   6.554 -0.0103  0.4724 -0.0249
  126OSM   H11B13434   4.195   4.618   6.685 -1.2477  0.7313  1.0487
  126OSM      P13435   3.915   4.598   6.597  0.0081  0.1991 -0.2928
  126OSM    O1313436   3.793   4.678   6.575  0.2379 -0.4904  0.3259
  126OSM    O1413437   3.921   4.460   6.543  0.2468  0.2751  0.2075
  126OSM    O1113438   3.947   4.594   6.752 -0.4936 -0.1972  0.5714
  126OSM    O1213439   4.047   4.686   6.547  0.1550 -0.1991 -0.0368
  126OSM    C1S13440   3.973   4.712   6.825 -0.7549 -1.2208  0.6392
  126OSM    H1S13441   3.909   4.797   6.793  0.0814  0.3811  3.1215
  126OSM    H1T13442   4.071   4.761   6.805 -1.4915  0.6622  1.5429
  126OSM     NF13443   3.946   4.804   7.061 -0.0131 -0.0106 -0.2087
  126OSM    HNF13444   4.023   4.837   7.115  1.4602 -0.0833 -2.1743
  126OSM    C2S13445   3.952   4.687   6.979  0.4937  0.2609  0.0693
  126OSM    H2S13446   3.855   4.634   6.985  1.0783 -1.1406 -2.0952
  126OSM    C3S13447   4.066   4.596   7.029  0.6117  0.1249 -0.5171
  126OSM    H3S13448   4.158   4.656   7.045 -0.5200  1.4164  1.2548
  126OSM     O313449   4.101   4.490   6.936  0.0666 -0.3921  0.0376
  126OSM    HO313450   4.055   4.513   6.854  2.0063  1.5571 -0.5376
  126OSM    C4S13451   4.046   4.547   7.172  0.2633 -0.7822  0.7288
  126OSM    H4S13452   4.096   4.613   7.244  1.2076 -0.9615  0.2360
  126OSM    C5S13453   3.988   4.428   7.201  0.0870  0.0081 -0.1758
  126OSM    H5S13454   3.954   4.360   7.121 -1.7992  2.3888 -1.4820
  126OSM    C6S13455   3.964   4.367   7.340  0.4252 -1.3967  0.3597
  126OSM    H6S13456   4.048   4.304   7.375  0.2528 -0.6579  2.1428
  126OSM    H6T13457   3.877   4.298   7.345 -0.3094 -0.3800  2.1769
  126OSM    C7S13458   3.964   4.480   7.448 -0.1772 -0.9271  0.0770
  126OSM    H7S13459   3.874   4.543   7.432  0.6561 -0.1948 -1.8370
  126OSM    H7T13460   4.054   4.544   7.438 -0.6159 -0.4532 -0.8816
  126OSM    C8S13461   3.936   4.432   7.590 -0.1273  0.0418 -0.4946
  126OSM    H8S13462   4.029   4.380   7.621 -0.3552  1.1070  2.0573
  126OSM    H8T13463   3.856   4.357   7.605  0.7735 -0.6057  1.2355
  126OSM    C9S13464   3.933   4.551   7.687  0.0919  0.2032  0.7146
  126OSM    H9S13465   3.858   4.623   7.648 -0.0752 -1.0555 -1.3653
  126OSM    H9T13466   4.031   4.600   7.703  1.1822 -1.8510  0.5216
  126OSM   C10S13467   3.877   4.526   7.827  0.7959 -0.2525 -0.1148
  126OSM   H10S13468   3.932   4.449   7.885  0.3297 -1.9947 -1.9181
  126OSM   H10T13469   3.771   4.491   7.830  0.1745  1.6476  0.8194
  126OSM   C11S13470   3.865   4.656   7.913 -0.6831 -0.3702 -0.1550
  126OSM   H11S13471   3.800   4.718   7.848 -0.8615 -2.8363 -2.4291
  126OSM   H11T13472   3.959   4.707   7.946 -0.6477 -0.6526  0.1777
  126OSM   C12S13473   3.785   4.621   8.033 -0.1436  0.6021 -0.2946
  126OSM   H12S13474   3.831   4.533   8.084 -1.5559  0.9487  1.6309
  126OSM   H12T13475   3.680   4.601   8.003  0.2965 -0.7820 -0.9729
  126OSM   C13S13476   3.795   4.738   8.135  0.3036  0.1621  0.1967
  126OSM   H13S13477   3.801   4.841   8.095  0.9907 -0.7061 -2.0028
  126OSM   H13T13478   3.894   4.730   8.184  0.4399  2.6852  0.3845
  126OSM   C14S13479   3.683   4.722   8.242  0.3093  0.3927  0.8505
  126OSM   H14S13480   3.591   4.714   8.180  0.5712  2.1499  0.2131
  126OSM   H14T13481   3.688   4.815   8.303  0.3653  2.2272 -1.8554
  126OSM   C15S13482   3.699   4.601   8.339  0.1081  0.1715 -0.4742
  126OSM   H15S13483   3.808   4.607   8.362 -0.1925 -1.3922  1.5282
  126OSM   H15T13484   3.674   4.511   8.280  0.2090  0.7080 -1.3391
  126OSM   C16S13485   3.612   4.607   8.467 -0.6522  0.7811  0.4016
  126OSM   H16S13486   3.504   4.588   8.446 -0.4842  2.4735 -2.3028
  126OSM   H16T13487   3.616   4.715   8.495 -0.7713  0.3011  2.3167
  126OSM   C17S13488   3.664   4.530   8.586  0.2745 -0.2962 -1.0797
  126OSM   H17S13489   3.774   4.549   8.587  0.2210 -0.0015  0.5352
  126OSM   H17T13490   3.637   4.423   8.583  0.4779 -0.4940  2.3281
  126OSM   C18S13491   3.621   4.590   8.723 -0.8101  0.6604 -0.2708
  126OSM   H18S13492   3.524   4.552   8.762  0.0215 -1.2328 -0.0070
  126OSM   H18T13493   3.612   4.701   8.722  0.8232  0.8163  1.2114
  126OSM   H18U13494   3.697   4.567   8.801 -0.2485  0.3293 -0.9161
  126OSM    C1F13495   3.847   4.893   7.056  0.3904  0.5077 -0.1530
  126OSM     OF13496   3.750   4.857   6.994 -0.5786  0.7238  0.5086
  126OSM    C2F13497   3.872   5.031   7.106 -0.3027 -0.4176  0.1091
  126OSM    H2F13498   3.931   5.085   7.029 -3.2990  2.5896 -0.1902
  126OSM    H2G13499   3.937   5.037   7.196 -3.0722 -0.8827  2.1953
  126OSM    C3F13500   3.734   5.099   7.140 -0.0789  0.5958  0.3042
  126OSM    H3F13501   3.681   5.023   7.201  0.3222 -0.3939 -0.5700
  126OSM    H3G13502   3.684   5.118   7.043  0.1442  0.9310  0.2563
  126OSM    C4F13503   3.743   5.237   7.210  0.0284 -0.3813  0.2921
  126OSM    H4F13504   3.643   5.266   7.247 -0.0989 -0.1314 -0.2467
  126OSM    H4G13505   3.766   5.325   7.145 -1.8040 -0.3352 -0.3111
  126OSM    C5F13506   3.835   5.237   7.331 -0.1234 -0.2411  0.1342
  126OSM    H5F13507   3.936   5.214   7.291  0.6217 -0.6677  2.2040
  126OSM    H5G13508   3.810   5.143   7.384  2.0906 -1.9679 -1.7541
  126OSM    C6F13509   3.823   5.367   7.415  0.3414 -0.3791  0.4355
  126OSM    H6F13510   3.714   5.371   7.437  0.1631 -2.0304 -0.0438
  126OSM    H6G13511   3.850   5.450   7.346 -0.2822 -0.1124  0.5069
  126OSM    C7F13512   3.923   5.349   7.533 -0.5049 -0.8630  0.1630
  126OSM    H7F13513   4.027   5.365   7.498 -0.7300  1.1131  0.3365
  126OSM    H7G13514   3.917   5.254   7.589 -0.7374  0.1342  1.8480
  126OSM    C8F13515   3.912   5.460   7.641  0.4923 -0.2754  0.2822
  126OSM    H8F13516   3.805   5.454   7.670  0.2632  0.6562 -0.3533
  126OSM    H8G13517   3.915   5.560   7.593  0.0794 -0.7116 -0.6538
  126OSM    C9F13518   4.005   5.455   7.756  0.4824  0.4572 -0.3304
  126OSM    H9F13519   4.112   5.468   7.733  0.3290  2.1704 -0.1648
  126OSM   C10F13520   3.978   5.452   7.885  0.4219 -0.4261 -0.6664
  126OSM   H10F13521   4.062   5.441   7.955 -0.3283 -0.9133  0.1852
  126OSM   C11F13522   3.844   5.458   7.950 -0.2490 -0.0734 -0.4653
  126OSM   H11F13523   3.812   5.360   7.991  0.1885 -0.0784 -0.1357
  126OSM   H11G13524   3.771   5.474   7.868 -0.5571  0.1873 -0.1410
  126OSM   C12F13525   3.831   5.567   8.055  0.1723  0.5417 -0.1758
  126OSM   H12F13526   3.751   5.535   8.124  2.7758 -0.8016  2.3069
  126OSM   H12G13527   3.809   5.662   8.001 -0.1520 -0.9710 -2.8358
  126OSM   C13F13528   3.941   5.583   8.155  0.5090 -1.1348  0.0607
  126OSM   H13F13529   4.039   5.618   8.116  1.5401 -1.7173  2.0752
  126OSM   H13G13530   3.959   5.486   8.205  2.7434 -0.7424  0.0513
  126OSM   C14F13531   3.894   5.683   8.264  0.3881  0.2661 -1.2542
  126OSM   H14F13532   3.801   5.640   8.306  0.8857 -1.8166 -2.2029
  126OSM   H14G13533   3.864   5.787   8.244  0.4711  0.4738 -0.3186
  126OSM   C15F13534   4.012   5.708   8.364  0.0048 -0.3018 -0.5142
  126OSM   H15F13535   4.098   5.743   8.303  0.4269  0.9946  0.7922
  126OSM   H15G13536   4.044   5.615   8.416  0.0236  0.0235  0.0661
  126OSM   C16F13537   3.979   5.798   8.476  1.0302 -0.5172  0.4459
  126OSM   H16F13538   3.893   5.759   8.534  1.1032  0.3639  1.1671
  126OSM   H16G13539   3.959   5.902   8.440  0.5071 -0.6074  0.4745
  126OSM   C17F13540   4.091   5.824   8.581 -0.4208  0.0206 -0.2138
  126OSM   H17F13541   4.184   5.846   8.524 -0.4928  3.3305  0.8725
  126OSM   H17G13542   4.096   5.726   8.635 -1.1639 -0.8749 -1.7453
  126OSM   C18F13543   4.071   5.923   8.700 -0.0307 -0.0785  0.0142
  126OSM   H18F13544   4.061   6.025   8.659 -0.0638  0.4799  1.3880
  126OSM   H18G13545   4.150   5.923   8.778 -0.6879  2.7595  0.7269
  126OSM   H18H13546   3.977   5.888   8.746  1.5976 -1.0541  2.7200
  127OSM      N13547   4.946   3.902   6.272  0.0090 -0.4336  0.0310
  127OSM    C1513548   4.847   3.883   6.161  0.1524 -0.2549  0.6269
  127OSM   H15A13549   4.829   3.969   6.098  0.7576 -1.1250 -0.7649
  127OSM   H15B13550   4.762   3.851   6.219  0.8853 -0.5500  1.5389
  127OSM   H15C13551   4.876   3.806   6.090  1.2493  0.1711  0.5942
  127OSM    C1413552   5.079   3.935   6.219 -0.7923  0.4361  0.0070
  127OSM   H14A13553   5.085   4.034   6.176 -0.3645  2.2065  4.0070
  127OSM   H14B13554   5.086   3.861   6.140 -1.1046  1.3097 -0.8530
  127OSM   H14C13555   5.163   3.930   6.286 -0.3836 -1.2800 -0.5966
  127OSM    C1313556   4.905   4.021   6.361  0.5372 -0.2196  0.2403
  127OSM   H13A13557   4.974   4.039   6.442  1.7516  1.8487 -1.2092
  127OSM   H13B13558   4.804   4.009   6.395  0.3448  1.3575  0.2868
  127OSM   H13C13559   4.903   4.110   6.300 -1.2033 -0.0658  0.4991
  127OSM    C1213560   4.950   3.783   6.365  0.6228 -0.1867 -0.0015
  127OSM   H12A13561   4.858   3.789   6.421  0.6161  0.1231 -0.0426
  127OSM   H12B13562   5.021   3.790   6.445 -0.3949 -0.2469  0.9173
  127OSM    C1113563   4.956   3.643   6.300 -0.7116 -0.3889  0.2203
  127OSM   H11A13564   4.860   3.616   6.250 -1.5992  2.3930  0.3314
  127OSM   H11B13565   4.970   3.569   6.382 -0.4032 -1.8624 -1.1177
  127OSM      P13566   5.202   3.554   6.242  0.1782 -0.2539  0.3531
  127OSM    O1313567   5.262   3.520   6.112  0.5236  0.2266  0.5620
  127OSM    O1413568   5.278   3.636   6.334  0.0108 -0.0602  0.3023
  127OSM    O1113569   5.154   3.426   6.316 -0.0702 -0.3595 -0.4150
  127OSM    O1213570   5.066   3.633   6.206 -0.8498  0.0641 -0.4775
  127OSM    C1S13571   5.179   3.410   6.458  0.4074  0.2911 -0.2055
  127OSM    H1S13572   5.117   3.483   6.513  1.3590  1.4890 -0.6904
  127OSM    H1T13573   5.286   3.431   6.482  0.2745 -0.8497  1.3855
  127OSM     NF13574   5.185   3.255   6.656 -0.5987  0.3319 -0.6827
  127OSM    HNF13575   5.256   3.188   6.677 -2.6833 -1.2437  1.6379
  127OSM    C2S13576   5.143   3.274   6.518 -0.1321  0.2875  0.2561
  127OSM    H2S13577   5.033   3.259   6.509 -0.2825  1.7153 -0.4813
  127OSM    C3S13578   5.210   3.171   6.432  0.2928  0.0715  0.1030
  127OSM    H3S13579   5.315   3.205   6.431 -0.0344  1.2141  1.9332
  127OSM     O313580   5.171   3.168   6.291  0.2514  0.1049 -0.0155
  127OSM    HO313581   5.138   3.257   6.279 -2.9407 -0.8715  1.0705
  127OSM    C4S13582   5.200   3.031   6.482 -0.1761  0.2942  0.0077
  127OSM    H4S13583   5.100   2.986   6.477 -1.0032  1.9239  1.5953
  127OSM    C5S13584   5.302   2.952   6.513 -0.4416  0.5936 -0.9009
  127OSM    H5S13585   5.404   2.980   6.484 -0.5048  0.9941 -0.7494
  127OSM    C6S13586   5.289   2.806   6.562  0.6446 -0.2574  0.4069
  127OSM    H6S13587   5.351   2.800   6.655 -1.1015 -1.7822  1.5051
  127OSM    H6T13588   5.348   2.746   6.490 -0.8611 -1.6496  0.3145
  127OSM    C7S13589   5.157   2.732   6.577 -0.0318 -0.2666 -0.5298
  127OSM    H7S13590   5.086   2.736   6.492  0.3868 -3.1890 -1.0677
  127OSM    H7T13591   5.096   2.766   6.663  0.3926 -1.9984  0.4841
  127OSM    C8S13592   5.174   2.583   6.597  0.2564 -0.8352  0.6090
  127OSM    H8S13593   5.237   2.544   6.514 -1.0829 -0.2514 -0.6918
  127OSM    H8T13594   5.078   2.532   6.576 -0.3994  1.2684 -1.7378
  127OSM    C9S13595   5.235   2.533   6.723 -0.1928 -1.0686 -0.3181
  127OSM    H9S13596   5.335   2.581   6.733 -0.5938 -0.2402 -0.3060
  127OSM    H9T13597   5.250   2.423   6.721 -1.1063 -1.2563  1.7445
  127OSM   C10S13598   5.153   2.556   6.849 -0.3065  0.2350 -0.3050
  127OSM   H10S13599   5.062   2.494   6.835 -0.6948  0.8280 -0.4517
  127OSM   H10T13600   5.128   2.665   6.848 -0.4100  0.2157  0.0404
  127OSM   C11S13601   5.236   2.529   6.980  0.4252  0.4495 -0.1988
  127OSM   H11S13602   5.326   2.593   6.980  0.2212  0.8056 -3.5823
  127OSM   H11T13603   5.278   2.426   6.989  0.5148  0.6018  1.2355
  127OSM   C12S13604   5.151   2.553   7.103 -0.1597 -0.0814 -0.2218
  127OSM   H12S13605   5.078   2.472   7.126 -1.7950  1.5513  0.4367
  127OSM   H12T13606   5.095   2.649   7.100  2.7539  1.6646 -0.3288
  127OSM   C13S13607   5.243   2.569   7.229  0.2731  0.4072  0.2969
  127OSM   H13S13608   5.321   2.641   7.196  0.9789 -0.7363 -0.6003
  127OSM   H13T13609   5.304   2.477   7.248  2.4538  1.7853  0.1843
  127OSM   C14S13610   5.164   2.609   7.351 -0.2222  0.0580 -0.2183
  127OSM   H14S13611   5.060   2.570   7.353 -0.8968  1.8321  1.6312
  127OSM   H14T13612   5.149   2.719   7.347 -0.4177 -0.0292 -2.3465
  127OSM   C15S13613   5.231   2.569   7.486 -0.3948 -0.0284 -0.3220
  127OSM   H15S13614   5.253   2.460   7.491  0.7807  0.2120 -0.2392
  127OSM   H15T13615   5.150   2.590   7.559 -1.6846 -0.5239 -1.5782
  127OSM   C16S13616   5.359   2.657   7.518  0.6105  1.0779 -0.0852
  127OSM   H16S13617   5.338   2.765   7.501  1.4296  0.7613 -3.4370
  127OSM   H16T13618   5.432   2.644   7.436  0.1189 -1.3392 -0.1560
  127OSM   C17S13619   5.409   2.645   7.660 -0.7814 -0.2373 -0.5977
  127OSM   H17S13620   5.498   2.711   7.657  0.9464 -2.2745  2.5896
  127OSM   H17T13621   5.434   2.541   7.691 -1.0198  0.1038  0.7726
  127OSM   C18S13622   5.314   2.701   7.764  0.5736  0.3400 -0.6695
  127OSM   H18S13623   5.309   2.812   7.764 -0.4120  0.3292  1.3748
  127OSM   H18T13624   5.356   2.674   7.864  1.3511 -0.9846 -1.3294
  127OSM   H18U13625   5.213   2.657   7.752  0.4774  0.7859 -1.4877
  127OSM    C1F13626   5.137   3.333   6.749 -0.5624 -0.4038 -0.0507
  127OSM     OF13627   5.040   3.405   6.714 -0.1799 -0.0057 -0.3290
  127OSM    C2F13628   5.192   3.332   6.891  0.1228 -1.2040  0.3132
  127OSM    H2F13629   5.298   3.365   6.885 -0.4066  0.2146 -1.6836
  127OSM    H2G13630   5.187   3.223   6.915  0.3726 -1.1447  0.6431
  127OSM    C3F13631   5.102   3.414   6.996  0.1367  0.2781 -0.3918
  127OSM    H3F13632   5.000   3.371   6.985 -0.4700  1.0636  1.8181
  127OSM    H3G13633   5.112   3.523   6.977 -0.1294  0.5069  0.7563
  127OSM    C4F13634   5.149   3.385   7.134  0.3401 -0.2812 -0.2191
  127OSM    H4F13635   5.246   3.430   7.164 -0.7086  0.8584  1.5316
  127OSM    H4G13636   5.172   3.277   7.147 -0.7471 -0.6951 -1.5915
  127OSM    C5F13637   5.053   3.429   7.246 -0.5822  0.5784  0.1567
  127OSM    H5F13638   4.951   3.386   7.243  0.1575 -1.1695 -3.4573
  127OSM    H5G13639   5.043   3.537   7.223  2.5189  0.7600 -0.6166
  127OSM    C6F13640   5.119   3.409   7.385  0.0263  0.5461  0.3453
  127OSM    H6F13641   5.225   3.442   7.387 -0.2720  1.4732  1.1435
  127OSM    H6G13642   5.107   3.299   7.403 -0.1250  0.4279 -0.4839
  127OSM    C7F13643   5.060   3.480   7.500 -0.2401  0.0639 -0.0357
  127OSM    H7F13644   5.052   3.583   7.457  3.6441  0.7148  0.6459
  127OSM    H7G13645   5.132   3.480   7.585 -3.4199  1.6870  2.8116
  127OSM    C8F13646   4.914   3.433   7.542  0.4681 -0.2499  0.0409
  127OSM    H8F13647   4.930   3.368   7.631 -0.4987 -0.8126 -0.1899
  127OSM    H8G13648   4.875   3.360   7.468 -0.2216  2.2180 -2.0888
  127OSM    C9F13649   4.820   3.543   7.571  0.2954  0.5365  0.8724
  127OSM    H9F13650   4.790   3.612   7.490 -0.3010  1.4039  1.8166
  127OSM   C10F13651   4.788   3.586   7.694  0.8721 -0.2099  0.6318
  127OSM   H10F13652   4.710   3.663   7.707  0.8275 -0.5746  2.5962
  127OSM   C11F13653   4.839   3.525   7.823 -0.2675 -0.0693 -0.7136
  127OSM   H11F13654   4.925   3.456   7.807 -0.0342 -0.1009  0.6808
  127OSM   H11G13655   4.759   3.467   7.873 -0.4984 -0.8987 -2.0231
  127OSM   C12F13656   4.873   3.632   7.931 -0.3360  0.0778  0.5414
  127OSM   H12F13657   4.785   3.699   7.942 -0.5590  0.0156 -0.7895
  127OSM   H12G13658   4.958   3.694   7.895  0.8930 -0.7713  1.9371
  127OSM   C13F13659   4.914   3.580   8.075  0.9195 -0.0755  0.9015
  127OSM   H13F13660   4.967   3.667   8.121 -0.4499  0.3299  1.7256
  127OSM   H13G13661   4.975   3.487   8.070  1.1949  0.1837 -1.0245
  127OSM   C14F13662   4.788   3.550   8.162 -0.2508 -0.1227  0.4557
  127OSM   H14F13663   4.741   3.455   8.131  0.1830 -0.4605  0.8280
  127OSM   H14G13664   4.718   3.636   8.150 -1.3376 -1.1748 -0.8909
  127OSM   C15F13665   4.807   3.531   8.320 -0.3621 -0.7819 -0.4411
  127OSM   H15F13666   4.903   3.475   8.328 -0.6137 -1.1530 -0.0376
  127OSM   H15G13667   4.729   3.464   8.361  1.5925 -3.1245 -0.4262
  127OSM   C16F13668   4.816   3.668   8.378 -0.0321 -0.7146 -0.8694
  127OSM   H16F13669   4.722   3.725   8.365  0.8364  1.3065  1.2390
  127OSM   H16G13670   4.879   3.738   8.319  1.1638 -0.5141  0.6137
  127OSM   C17F13671   4.856   3.672   8.525 -0.2031 -0.0664 -0.1486
  127OSM   H17F13672   4.860   3.777   8.561  2.2175 -0.1404 -0.1168
  127OSM   H17G13673   4.957   3.628   8.545  0.3474  0.3857 -1.8059
  127OSM   C18F13674   4.755   3.593   8.609 -0.7663 -0.1678 -0.3075
  127OSM   H18F13675   4.784   3.596   8.716 -0.9469  0.4114 -0.2747
  127OSM   H18G13676   4.738   3.492   8.566 -0.6474 -0.0962 -0.5220
  127OSM   H18H13677   4.657   3.643   8.592  0.5457  1.9567 -1.7507
  128OSM      N13678   0.812   6.768   5.628  0.1333 -0.0314 -0.4359
  128OSM    C1513679   0.812   6.913   5.630 -0.0336  0.4432 -0.0565
  128OSM   H15A13680   0.860   6.950   5.540  0.1461 -1.6145 -0.8424
  128OSM   H15B13681   0.883   6.947   5.704  0.1805 -1.6543  0.7335
  128OSM   H15C13682   0.716   6.961   5.642  0.2674  0.8788  0.6271
  128OSM    C1413683   0.777   6.724   5.492  0.5652 -0.3979 -0.1665
  128OSM   H14A13684   0.751   6.619   5.488  0.5152 -0.4557  1.3044
  128OSM   H14B13685   0.861   6.737   5.425  0.8487 -0.2149  0.2157
  128OSM   H14C13686   0.685   6.771   5.464  1.6319  0.7179 -1.8774
  128OSM    C1313687   0.955   6.725   5.654  0.6039 -0.7006 -0.3395
  128OSM   H13A13688   0.983   6.721   5.758 -0.0876 -2.5854 -0.2116
  128OSM   H13B13689   1.033   6.782   5.606 -1.0578 -1.1445 -3.7571
  128OSM   H13C13690   0.971   6.627   5.611 -2.3077 -0.3946 -2.2662
  128OSM    C1213691   0.710   6.722   5.737  0.4221  0.4240 -0.3787
  128OSM   H12A13692   0.709   6.614   5.745  0.4820  0.4984  0.8820
  128OSM   H12B13693   0.608   6.733   5.703  0.0571  0.3184  0.6391
  128OSM    C1113694   0.716   6.785   5.875  0.8404  0.4351 -0.1456
  128OSM   H11A13695   0.643   6.742   5.946  0.9856 -0.0681 -0.2966
  128OSM   H11B13696   0.689   6.892   5.873 -0.4060  0.1158 -0.8119
  128OSM      P13697   0.900   6.671   6.030 -0.0636  0.0720  0.1389
  128OSM    O1313698   0.936   6.548   5.949 -0.1625 -0.1742 -0.7094
  128OSM    O1413699   1.010   6.727   6.113 -0.1039  1.0265  0.0228
  128OSM    O1113700   0.763   6.631   6.107 -0.1892  0.3930  0.4479
  128OSM    O1213701   0.845   6.790   5.938  0.3118  0.5263  0.1372
  128OSM    C1S13702   0.772   6.564   6.233 -0.0455 -0.4487  0.3059
  128OSM    H1S13703   0.845   6.481   6.225 -0.1098 -0.5501  0.7386
  128OSM    H1T13704   0.681   6.506   6.258 -0.4389  0.2875  0.5791
  128OSM     NF13705   0.843   6.589   6.475 -0.1469  0.1046  0.4979
  128OSM    HNF13706   0.788   6.601   6.557 -0.7481 -1.1024  0.2838
  128OSM    C2S13707   0.808   6.660   6.350 -0.2149  0.5001 -0.4267
  128OSM    H2S13708   0.895   6.723   6.323  1.5595 -0.9936  1.6948
  128OSM    C3S13709   0.688   6.762   6.369 -0.2545 -0.1578  0.2970
  128OSM    H3S13710   0.596   6.705   6.395 -0.8101  0.7006  0.2356
  128OSM     O313711   0.647   6.817   6.247 -0.5933  0.1589  0.2810
  128OSM    HO313712   0.702   6.771   6.184  0.3404  2.9442 -1.0457
  128OSM    C4S13713   0.711   6.879   6.455  0.8722 -0.4176 -0.4531
  128OSM    H4S13714   0.791   6.946   6.419  2.4648 -1.8201  0.3774
  128OSM    C5S13715   0.638   6.905   6.566  0.5515 -0.0464 -0.3688
  128OSM    H5S13716   0.550   6.844   6.589  0.8331 -0.4722 -0.4027
  128OSM    C6S13717   0.667   7.021   6.655  0.1315 -0.6988 -0.3712
  128OSM    H6S13718   0.570   7.072   6.674  0.1889 -0.5763 -0.4012
  128OSM    H6T13719   0.724   7.095   6.595  1.4884 -1.2927  0.1534
  128OSM    C7S13720   0.757   6.998   6.779  0.0384 -0.3041 -0.8400
  128OSM    H7S13721   0.848   6.936   6.760  1.2818  0.9373  0.9854
  128OSM    H7T13722   0.694   6.948   6.855 -0.1398  2.2140  0.7369
  128OSM    C8S13723   0.801   7.127   6.853 -0.5529  0.0357  0.5050
  128OSM    H8S13724   0.705   7.178   6.875 -0.3414  0.2748  0.8751
  128OSM    H8T13725   0.858   7.197   6.787 -0.8252  0.0792  0.3163
  128OSM    C9S13726   0.880   7.114   6.988  0.1813 -1.0576  0.0323
  128OSM    H9S13727   0.913   7.218   7.011 -0.0982 -0.6932 -1.1726
  128OSM    H9T13728   0.974   7.057   6.973 -0.1029 -1.5126 -0.0267
  128OSM   C10S13729   0.790   7.052   7.091  0.2479 -0.1921 -0.2280
  128OSM   H10S13730   0.757   6.958   7.041  0.7868  0.5377 -2.0032
  128OSM   H10T13731   0.701   7.115   7.114  0.3731 -1.1007  2.9920
  128OSM   C11S13732   0.861   7.034   7.222 -1.0107  0.3717  0.1397
  128OSM   H11S13733   0.866   7.121   7.291 -0.2680 -0.9971  1.8552
  128OSM   H11T13734   0.965   7.001   7.201 -1.2436 -0.6398  0.5459
  128OSM   C12S13735   0.805   6.915   7.308  0.0979 -0.3282 -0.4040
  128OSM   H12S13736   0.838   6.819   7.262  0.4190 -0.6758  0.5432
  128OSM   H12T13737   0.694   6.914   7.302  0.0310 -0.4428  0.7355
  128OSM   C13S13738   0.830   6.935   7.458  0.1282  0.3304  0.3592
  128OSM   H13S13739   0.852   7.042   7.477  1.9433 -0.0215  0.4076
  128OSM   H13T13740   0.918   6.876   7.493  0.5385  2.2934  2.7884
  128OSM   C14S13741   0.716   6.881   7.543  0.2332 -0.6144 -1.0517
  128OSM   H14S13742   0.706   6.774   7.517 -0.0943 -0.6538 -0.7680
  128OSM   H14T13743   0.621   6.927   7.510 -1.0828 -2.4230  0.1081
  128OSM   C15S13744   0.748   6.916   7.695  0.0364  0.1957  0.3388
  128OSM   H15S13745   0.754   7.026   7.709 -0.4814 -0.0947  3.0144
  128OSM   H15T13746   0.850   6.884   7.727  0.4924  1.5819  0.2857
  128OSM   C16S13747   0.642   6.865   7.796  0.1980 -0.7466  0.1575
  128OSM   H16S13748   0.649   6.755   7.811  2.3352 -0.6422  0.0486
  128OSM   H16T13749   0.541   6.886   7.752  1.2517  0.5643 -1.7316
  128OSM   C17S13750   0.659   6.933   7.934  0.4755  0.0406  0.4472
  128OSM   H17S13751   0.629   7.038   7.915 -0.7090 -0.7483 -2.3195
  128OSM   H17T13752   0.766   6.941   7.962  0.1241 -0.7347  2.0601
  128OSM   C18S13753   0.577   6.859   8.046 -0.4834 -0.7657  0.2552
  128OSM   H18S13754   0.594   6.904   8.147 -4.8971  0.4202  0.5596
  128OSM   H18T13755   0.617   6.756   8.052  1.4035  0.0168  1.7763
  128OSM   H18U13756   0.467   6.867   8.033 -0.5367 -0.2147  0.9755
  128OSM    C1F13757   0.942   6.507   6.480 -0.0488  0.5069 -0.1532
  128OSM     OF13758   1.028   6.498   6.389 -0.2569 -0.0572  0.2221
  128OSM    C2F13759   0.957   6.433   6.610 -0.8869 -0.5700  0.1295
  128OSM    H2F13760   0.862   6.385   6.642  0.6820 -2.9789  1.3173
  128OSM    H2G13761   0.973   6.509   6.689 -1.2268 -2.2758  1.8765
  128OSM    C3F13762   1.074   6.338   6.610  0.6968  0.5281  0.1871
  128OSM    H3F13763   1.165   6.390   6.573  1.1381 -2.3680 -3.0519
  128OSM    H3G13764   1.050   6.249   6.547  1.8974  0.2072  0.1716
  128OSM    C4F13765   1.106   6.290   6.756 -0.6349  0.0151 -0.5980
  128OSM    H4F13766   1.147   6.381   6.805 -2.0585  0.5193 -0.3282
  128OSM    H4G13767   1.193   6.221   6.751 -2.3215 -2.2701  0.9150
  128OSM    C5F13768   0.992   6.212   6.830  0.5405  0.6557  0.7141
  128OSM    H5F13769   0.945   6.140   6.759  1.0411  0.4653  0.5713
  128OSM    H5G13770   0.912   6.285   6.855 -0.0394  0.1183  0.4396
  128OSM    C6F13771   1.037   6.139   6.955  0.2824 -0.4979 -0.1965
  128OSM    H6F13772   1.093   6.210   7.019 -1.1882  1.8974 -1.4630
  128OSM    H6G13773   1.092   6.053   6.912 -4.2210 -1.8325 -3.6300
  128OSM    C7F13774   0.920   6.091   7.043  0.3318  0.3876  0.7636
  128OSM    H7F13775   0.838   6.049   6.981 -1.6278  3.0195  1.4739
  128OSM    H7G13776   0.874   6.171   7.105  0.4225 -0.5614  2.0746
  128OSM    C8F13777   0.953   5.978   7.136 -0.1881 -0.0655 -0.2730
  128OSM    H8F13778   1.001   5.901   7.070  0.3100 -1.8755  2.1236
  128OSM    H8G13779   0.860   5.931   7.176 -0.0153 -0.0267  0.1639
  128OSM    C9F13780   1.033   6.014   7.256 -0.3085  0.2658 -0.0510
  128OSM    H9F13781   1.134   6.044   7.226 -0.9205  1.3788 -1.0287
  128OSM   C10F13782   0.992   6.025   7.382  0.3316  0.1628  0.8796
  128OSM   H10F13783   1.063   6.058   7.460  1.3142 -1.6626  0.7681
  128OSM   C11F13784   0.860   5.987   7.444  0.5221 -0.4276  0.1161
  128OSM   H11F13785   0.882   5.929   7.536 -0.3219 -0.8965  0.0212
  128OSM   H11G13786   0.790   5.919   7.390 -0.1455  0.9268 -0.7504
  128OSM   C12F13787   0.794   6.121   7.487 -0.3295  0.2515 -0.2152
  128OSM   H12F13788   0.773   6.189   7.402  0.2279 -0.4140 -0.8789
  128OSM   H12G13789   0.870   6.182   7.541  1.4250 -1.5614 -0.5759
  128OSM   C13F13790   0.662   6.101   7.569  0.5824  0.1814  0.2174
  128OSM   H13F13791   0.601   6.014   7.538 -0.2435  0.7623  0.2029
  128OSM   H13G13792   0.603   6.196   7.566  0.2378  0.0185  1.7366
  128OSM   C14F13793   0.693   6.073   7.717  0.1891  0.6821 -0.1379
  128OSM   H14F13794   0.748   6.163   7.752 -0.4583  1.0650 -0.1089
  128OSM   H14G13795   0.747   5.975   7.722 -1.4571 -0.2876 -0.8563
  128OSM   C15F13796   0.576   6.059   7.820  0.2563 -0.3699 -0.6621
  128OSM   H15F13797   0.526   5.963   7.793  0.2818  0.0778 -2.3478
  128OSM   H15G13798   0.494   6.134   7.811  0.1167 -0.3421  0.8066
  128OSM   C16F13799   0.610   6.051   7.969 -0.1858 -0.4292 -0.5592
  128OSM   H16F13800   0.632   6.152   8.007  0.7565 -1.1737  0.8854
  128OSM   H16G13801   0.684   5.971   7.990 -1.2168 -1.3985 -0.5528
  128OSM   C17F13802   0.492   6.016   8.066  0.0729  0.4069  0.4351
  128OSM   H17F13803   0.448   5.921   8.029  0.5820  0.7540 -1.0721
  128OSM   H17G13804   0.410   6.089   8.053  0.2354  0.7184  1.1314
  128OSM   C18F13805   0.537   6.001   8.207 -0.2143  0.9220 -1.6278
  128OSM   H18F13806   0.479   5.922   8.259  2.1214  2.2486  3.2660
  128OSM   H18G13807   0.512   6.097   8.257 -0.9225  0.0889 -0.3626
  128OSM   H18H13808   0.644   5.978   8.221 -0.4800 -0.4797 -1.8587
  129OSM      N13809   4.256   3.354   6.374 -0.0971  0.2375  0.6152
  129OSM    C1513810   4.143   3.318   6.274  0.1018 -0.3156 -0.4458
  129OSM   H15A13811   4.175   3.248   6.198  0.7561  0.8660 -1.2765
  129OSM   H15B13812   4.101   3.405   6.226 -1.2146 -2.4196 -3.2448
  129OSM   H15C13813   4.062   3.266   6.324  1.4534 -2.3163 -0.2770
  129OSM    C1413814   4.332   3.467   6.318 -0.1898 -0.0252  0.2564
  129OSM   H14A13815   4.268   3.553   6.311  0.7436  0.6864  0.3492
  129OSM   H14B13816   4.371   3.448   6.219 -0.1857 -1.1805  0.4688
  129OSM   H14C13817   4.410   3.503   6.383  1.6059 -0.8123 -1.4175
  129OSM    C1313818   4.198   3.403   6.503  0.2663 -0.8564  0.4077
  129OSM   H13A13819   4.280   3.437   6.565  0.1240 -2.2571  1.4018
  129OSM   H13B13820   4.142   3.332   6.563 -0.7037 -1.0896 -0.7491
  129OSM   H13C13821   4.130   3.486   6.486 -0.4584 -1.3256  0.9292
  129OSM    C1213822   4.335   3.235   6.408 -0.4429  0.2899  0.0029
  129OSM   H12A13823   4.274   3.154   6.446  0.0123  0.2578  0.6803
  129OSM   H12B13824   4.422   3.259   6.468  0.2236  2.3296 -1.7211
  129OSM    C1113825   4.401   3.175   6.281  0.3803  0.4792  0.3566
  129OSM   H11A13826   4.318   3.154   6.210 -0.4874 -0.3000  1.5826
  129OSM   H11B13827   4.452   3.081   6.314  0.0026 -0.2387 -1.0714
  129OSM      P13828   4.643   3.252   6.256 -0.2585 -0.1952 -0.0313
  129OSM    O1313829   4.713   3.142   6.186 -0.0893 -0.0199 -0.3650
  129OSM    O1413830   4.700   3.387   6.237  0.3338 -0.0486 -0.3193
  129OSM    O1113831   4.642   3.222   6.410 -0.3001  0.1446  0.0116
  129OSM    O1213832   4.493   3.256   6.216 -0.2325  0.0656 -0.1329
  129OSM    C1S13833   4.719   3.313   6.493  0.2062 -0.1268  0.6005
  129OSM    H1S13834   4.678   3.416   6.498 -1.7091 -0.9281  2.0345
  129OSM    H1T13835   4.822   3.319   6.451  0.1778 -2.3233  0.1497
  129OSM     NF13836   4.766   3.374   6.730 -0.6988  0.8769  0.3310
  129OSM    HNF13837   4.865   3.378   6.741 -0.8629  0.6849  2.1156
  129OSM    C2S13838   4.714   3.264   6.642  0.3967  0.2476  0.2602
  129OSM    H2S13839   4.606   3.250   6.665  1.4328 -0.3832  5.3604
  129OSM    C3S13840   4.780   3.124   6.643 -0.3142 -0.5383  0.2923
  129OSM    H3S13841   4.872   3.118   6.581  0.7075 -1.4023  1.8810
  129OSM     O313842   4.695   3.017   6.591  0.0133  0.5918 -0.3844
  129OSM    HO313843   4.643   3.052   6.518  0.8024  1.6314 -0.4719
  129OSM    C4S13844   4.818   3.096   6.785 -0.3267 -0.1431 -0.3153
  129OSM    H4S13845   4.735   3.122   6.851 -1.0989 -2.6353 -0.2546
  129OSM    C5S13846   4.929   3.049   6.840 -0.1115 -0.3169 -0.9827
  129OSM    H5S13847   5.016   3.055   6.773  0.6215  0.1226  0.0106
  129OSM    C6S13848   4.952   3.032   6.989 -0.2751  0.4676 -1.3233
  129OSM    H6S13849   5.056   3.061   7.013 -0.6921 -0.7278  2.1726
  129OSM    H6T13850   4.950   2.923   7.009  0.4697  0.3508 -1.8738
  129OSM    C7S13851   4.868   3.116   7.089 -0.5490 -0.2914  0.0491
  129OSM    H7S13852   4.763   3.113   7.054 -0.4935 -3.2142  0.0152
  129OSM    H7T13853   4.923   3.213   7.093  1.4482 -1.3453 -1.0598
  129OSM    C8S13854   4.863   3.045   7.224 -0.2841  0.3951 -0.4897
  129OSM    H8S13855   4.810   2.949   7.208  2.1648 -1.3725  1.4985
  129OSM    H8T13856   4.799   3.096   7.299 -0.3258 -0.4890  0.0797
  129OSM    C9S13857   4.998   3.019   7.290  0.0919  0.1687 -0.4495
  129OSM    H9S13858   5.065   3.108   7.283  0.5310  0.0801  2.0010
  129OSM    H9T13859   5.052   2.950   7.222  0.6612  0.3822 -0.2185
  129OSM   C10S13860   4.989   2.958   7.429  0.2953 -0.3322 -0.6250
  129OSM   H10S13861   5.084   2.901   7.441  1.1050  0.5463 -2.5583
  129OSM   H10T13862   4.920   2.871   7.432 -0.5564  0.2824 -2.2034
  129OSM   C11S13863   4.962   3.058   7.545 -0.2970 -0.0790  0.1702
  129OSM   H11S13864   4.864   3.107   7.526 -0.9612 -0.6804  1.9276
  129OSM   H11T13865   5.049   3.126   7.556 -0.3546 -0.1578  1.2147
  129OSM   C12S13866   4.966   2.995   7.685  0.2860 -0.1509  0.1937
  129OSM   H12S13867   5.066   2.957   7.715 -1.1280 -1.9098  2.8962
  129OSM   H12T13868   4.886   2.921   7.705  0.5986 -1.1602 -2.1820
  129OSM   C13S13869   4.950   3.107   7.788 -0.2056  0.6470 -0.2334
  129OSM   H13S13870   4.860   3.168   7.764 -1.0271 -0.6976 -0.6007
  129OSM   H13T13871   5.032   3.182   7.787  1.0276 -0.6398  2.1872
  129OSM   C14S13872   4.934   3.050   7.924  0.1622  0.8895  0.7852
  129OSM   H14S13873   5.016   2.984   7.959  1.0667  1.2798 -0.5582
  129OSM   H14T13874   4.846   2.984   7.909  1.1570 -0.3258  0.1338
  129OSM   C15S13875   4.914   3.149   8.033 -0.3841 -0.4077  0.8338
  129OSM   H15S13876   4.838   3.223   8.000 -0.3613 -0.1174  1.4125
  129OSM   H15T13877   5.007   3.204   8.062  0.0718  0.5860 -2.2645
  129OSM   C16S13878   4.863   3.091   8.170 -0.1613  0.3403  0.6429
  129OSM   H16S13879   4.938   3.017   8.205 -0.3982  0.4997  1.4853
  129OSM   H16T13880   4.764   3.043   8.155  1.2930 -1.6548 -3.5813
  129OSM   C17S13881   4.854   3.188   8.283  0.4579  0.0764 -0.1761
  129OSM   H17S13882   4.761   3.247   8.265 -0.8023 -2.2213 -1.4857
  129OSM   H17T13883   4.937   3.261   8.266  0.4716  0.3029  0.8678
  129OSM   C18S13884   4.866   3.138   8.421 -0.4105  0.0965  0.6451
  129OSM   H18S13885   4.771   3.159   8.474 -0.0696 -0.2768  1.4059
  129OSM   H18T13886   4.946   3.178   8.487 -0.6526  0.1248  0.9236
  129OSM   H18U13887   4.876   3.027   8.412 -1.1531  0.1399 -1.0366
  129OSM    C1F13888   4.690   3.475   6.771 -0.6385 -0.0727  0.4391
  129OSM     OF13889   4.571   3.459   6.776  0.1928 -0.3096 -0.2955
  129OSM    C2F13890   4.755   3.603   6.798  0.2428  0.7651  0.7607
  129OSM    H2F13891   4.746   3.654   6.699  2.6681  0.6176  0.4343
  129OSM    H2G13892   4.862   3.581   6.816  1.4653  5.2415 -0.6024
  129OSM    C3F13893   4.696   3.666   6.927 -0.0472 -0.2721 -0.1205
  129OSM    H3F13894   4.586   3.680   6.921 -0.4909 -2.6084  1.6356
  129OSM    H3G13895   4.745   3.763   6.951 -0.1924 -0.5159  1.2320
  129OSM    C4F13896   4.709   3.572   7.059  0.9716  0.3133  1.1903
  129OSM    H4F13897   4.801   3.511   7.045  0.9730  0.6256 -0.3011
  129OSM    H4G13898   4.621   3.505   7.045  0.2198  1.1083  2.0080
  129OSM    C5F13899   4.696   3.648   7.197  0.2758  0.3369  0.2383
  129OSM    H5F13900   4.801   3.675   7.218  1.0359 -2.2156 -0.2250
  129OSM    H5G13901   4.670   3.566   7.267  0.9240 -0.5938 -0.6133
  129OSM    C6F13902   4.598   3.769   7.201 -0.0913  0.4740  0.2246
  129OSM    H6F13903   4.492   3.737   7.192 -0.3561  1.8732 -1.8551
  129OSM    H6G13904   4.619   3.842   7.121 -1.5602  1.6665  0.9022
  129OSM    C7F13905   4.615   3.843   7.332  0.2363  0.1889 -0.4622
  129OSM    H7F13906   4.723   3.869   7.338 -0.0083  2.2021 -3.5554
  129OSM    H7G13907   4.611   3.772   7.417  2.0852  1.4609  0.7313
  129OSM    C8F13908   4.520   3.959   7.363 -0.5132  0.1785 -0.2149
  129OSM    H8F13909   4.547   3.982   7.468  1.2712 -0.4492 -0.5180
  129OSM    H8G13910   4.414   3.927   7.363 -1.1103  2.1002  0.2239
  129OSM    C9F13911   4.537   4.087   7.293 -0.3566 -0.0718 -0.3364
  129OSM    H9F13912   4.584   4.073   7.194 -0.1724 -0.9249 -0.1273
  129OSM   C10F13913   4.504   4.213   7.321  0.4450  0.0588 -0.1542
  129OSM   H10F13914   4.543   4.285   7.247  0.7318  0.1609  0.0952
  129OSM   C11F13915   4.429   4.257   7.447  0.0151 -0.2040 -0.6741
  129OSM   H11F13916   4.386   4.164   7.490 -4.0257  1.7660 -0.2002
  129OSM   H11G13917   4.342   4.316   7.407  1.1810  0.2227 -2.6792
  129OSM   C12F13918   4.507   4.344   7.540  0.1133 -0.3576  0.2512
  129OSM   H12F13919   4.550   4.428   7.482  0.6858 -3.6210 -4.3728
  129OSM   H12G13920   4.597   4.286   7.569 -0.7663 -2.0304 -0.2867
  129OSM   C13F13921   4.433   4.386   7.671 -0.1677 -0.2482  0.1157
  129OSM   H13F13922   4.325   4.408   7.651  0.3016  0.2916 -1.9531
  129OSM   H13G13923   4.473   4.485   7.702  1.2359 -0.5225 -0.7597
  129OSM   C14F13924   4.455   4.291   7.787 -0.1532 -0.1093 -0.1324
  129OSM   H14F13925   4.559   4.255   7.777  0.0373 -0.3338  2.2113
  129OSM   H14G13926   4.383   4.206   7.776 -1.8865  1.3258 -0.0476
  129OSM   C15F13927   4.442   4.355   7.926  0.0921  0.0643 -0.2199
  129OSM   H15F13928   4.510   4.443   7.932 -0.7969  0.8957 -1.7118
  129OSM   H15G13929   4.485   4.283   7.998  1.7351  1.8924  0.6657
  129OSM   C16F13930   4.296   4.412   7.952 -0.4482  0.2582  0.5169
  129OSM   H16F13931   4.222   4.334   7.923  0.8169 -1.1057  0.8714
  129OSM   H16G13932   4.294   4.502   7.888 -0.6970  2.0034  2.9201
  129OSM   C17F13933   4.276   4.449   8.101 -0.3398  0.3043  0.1999
  129OSM   H17F13934   4.372   4.499   8.124  0.4124  0.3880 -2.8980
  129OSM   H17G13935   4.275   4.368   8.177  1.4280 -0.1930 -0.2884
  129OSM   C18F13936   4.162   4.552   8.131 -0.1370 -0.5027 -0.3141
  129OSM   H18F13937   4.157   4.617   8.041  1.9919 -0.7957 -0.6602
  129OSM   H18G13938   4.192   4.609   8.222 -2.2265  0.3025 -0.1011
  129OSM   H18H13939   4.063   4.502   8.147 -1.1853  1.6356  0.0634
  130OSM      N13940   1.216   5.480   5.884 -0.8399 -0.2573 -0.0392
  130OSM    C1513941   1.166   5.385   5.787  0.4669  0.3004  0.0359
  130OSM   H15A13942   1.244   5.323   5.746 -0.2911 -1.2513  0.8816
  130OSM   H15B13943   1.120   5.433   5.702  1.8525 -1.0289 -1.4947
  130OSM   H15C13944   1.096   5.317   5.834  1.7286 -1.0737 -0.0279
  130OSM    C1413945   1.319   5.563   5.811  0.1268  0.4537 -0.2076
  130OSM   H14A13946   1.276   5.641   5.750 -1.1514  0.6516  0.9079
  130OSM   H14B13947   1.377   5.501   5.745 -0.6515  1.5396 -1.9456
  130OSM   H14C13948   1.386   5.615   5.878 -0.5043  1.0156 -0.0048
  130OSM    C1313949   1.106   5.571   5.921 -0.2848  1.2078  0.3251
  130OSM   H13A13950   1.050   5.520   5.998 -0.4311 -0.1068 -0.6426
  130OSM   H13B13951   1.041   5.596   5.838  0.2426 -1.1445 -0.8301
  130OSM   H13C13952   1.145   5.659   5.970 -0.1069  1.2528  0.1006
  130OSM    C1213953   1.275   5.419   6.009  0.1845  0.6587 -0.2931
  130OSM   H12A13954   1.347   5.353   5.964  1.6680  1.3608  1.0060
  130OSM   H12B13955   1.202   5.358   6.061  4.0997 -2.9005  1.3356
  130OSM    C1113956   1.334   5.506   6.130 -0.4917  0.5292 -0.4045
  130OSM   H11A13957   1.385   5.442   6.204 -0.5842 -1.1397 -1.7668
  130OSM   H11B13958   1.250   5.558   6.181  0.2850  3.0725 -1.6404
  130OSM      P13959   1.562   5.644   6.120  0.0017 -0.0540  0.7944
  130OSM    O1313960   1.647   5.535   6.072 -0.3204 -0.1863 -0.0399
  130OSM    O1413961   1.590   5.780   6.067  0.8732 -0.0044 -0.3254
  130OSM    O1113962   1.560   5.642   6.280  0.0320 -0.0412 -0.5607
  130OSM    O1213963   1.413   5.612   6.080  0.0434  0.0916 -0.6190
  130OSM    C1S13964   1.472   5.731   6.348  1.0142 -0.0218  0.1639
  130OSM    H1S13965   1.371   5.740   6.303  1.2670  0.2563 -0.3604
  130OSM    H1T13966   1.504   5.837   6.340 -2.0555  0.9446  0.1924
  130OSM     NF13967   1.334   5.747   6.557  0.0778 -0.5105  0.1343
  130OSM    HNF13968   1.351   5.779   6.650  0.3418 -1.7955  0.5374
  130OSM    C2S13969   1.444   5.682   6.491 -0.5628  0.3668  0.1109
  130OSM    H2S13970   1.419   5.574   6.487 -1.7009  0.5521  1.9792
  130OSM    C3S13971   1.569   5.685   6.580 -0.4923  0.4207  0.5921
  130OSM    H3S13972   1.599   5.790   6.598  0.7228  0.9748 -4.0537
  130OSM     O313973   1.688   5.622   6.529  0.3368  0.0231  0.1283
  130OSM    HO313974   1.666   5.612   6.437 -0.5024  0.3957  0.2842
  130OSM    C4S13975   1.548   5.626   6.718 -0.3383 -0.5369 -0.6861
  130OSM    H4S13976   1.523   5.520   6.731 -2.2442  0.0833  1.1278
  130OSM    C5S13977   1.569   5.690   6.833  0.4513 -0.1677  0.2080
  130OSM    H5S13978   1.592   5.797   6.825  3.5329 -0.7449  0.5017
  130OSM    C6S13979   1.562   5.627   6.974  0.4982  0.0397  0.7059
  130OSM    H6S13980   1.571   5.516   6.969  0.6643  0.1171 -1.1185
  130OSM    H6T13981   1.463   5.645   7.021  0.9689  0.5880  1.4976
  130OSM    C7S13982   1.675   5.683   7.063 -0.1899 -0.0137 -0.0423
  130OSM    H7S13983   1.671   5.793   7.079  0.1171 -0.2427  1.7238
  130OSM    H7T13984   1.776   5.652   7.026 -0.1752  0.5971 -0.5140
  130OSM    C8S13985   1.665   5.630   7.212 -0.5534  0.1038  0.1205
  130OSM    H8S13986   1.681   5.520   7.206 -1.5130  0.0190 -1.2338
  130OSM    H8T13987   1.561   5.647   7.248 -1.2277 -0.3738 -1.5120
  130OSM    C9S13988   1.760   5.710   7.308 -0.1319  0.0646  0.9185
  130OSM    H9S13989   1.722   5.815   7.302  0.5471  0.2073 -1.2027
  130OSM    H9T13990   1.864   5.701   7.270 -0.3004 -2.8543  1.0668
  130OSM   C10S13991   1.756   5.664   7.450  0.3618  0.2163 -0.1454
  130OSM   H10S13992   1.830   5.720   7.511  0.6173  0.9654 -1.1186
  130OSM   H10T13993   1.782   5.556   7.450  0.5794  0.2605  1.5899
  130OSM   C11S13994   1.621   5.693   7.515 -0.1431  0.0932 -0.0623
  130OSM   H11S13995   1.541   5.637   7.463 -2.1647  2.5923  0.2843
  130OSM   H11T13996   1.600   5.801   7.535 -3.0601 -0.1433 -1.5665
  130OSM   C12S13997   1.614   5.630   7.655  0.1248 -0.0608  0.2316
  130OSM   H12S13998   1.618   5.520   7.644 -0.9723 -0.1108  0.2886
  130OSM   H12T13999   1.508   5.651   7.683  0.8055  2.8533  0.8294
  130OSM   C13S14000   1.713   5.687   7.755  0.3588 -0.3822 -0.8827
  130OSM   H13S14001   1.726   5.796   7.744  0.2381 -0.4312 -1.5252
  130OSM   H13T14002   1.813   5.647   7.728  0.5939 -0.4889  0.0981
  130OSM   C14S14003   1.687   5.668   7.906  0.5497  0.2002 -0.8488
  130OSM   H14S14004   1.764   5.717   7.970 -1.6487 -1.7703  3.5375
  130OSM   H14T14005   1.696   5.560   7.931  1.9722  0.8236  1.5057
  130OSM   C15S14006   1.542   5.705   7.944  0.3879 -0.2249 -0.3877
  130OSM   H15S14007   1.470   5.635   7.898  0.6907 -1.8732  1.5801
  130OSM   H15T14008   1.534   5.805   7.897 -1.3980  0.5256  1.4638
  130OSM   C16S14009   1.536   5.714   8.098  0.5835 -0.6889 -0.9107
  130OSM   H16S14010   1.624   5.771   8.135  0.3418 -0.9883  0.1401
  130OSM   H16T14011   1.552   5.616   8.148 -1.2116 -0.1024  0.8903
  130OSM   C17S14012   1.413   5.797   8.157 -0.0340 -0.4912  0.3426
  130OSM   H17S14013   1.322   5.768   8.100 -0.6572 -1.9216  2.0227
  130OSM   H17T14014   1.413   5.906   8.140  0.6831 -0.5863 -0.2839
  130OSM   C18S14015   1.384   5.785   8.307  0.0984  0.0705  0.3550
  130OSM   H18S14016   1.301   5.855   8.327 -1.0736 -1.3808  0.6110
  130OSM   H18T14017   1.465   5.826   8.372 -1.8672  1.2432  2.1114
  130OSM   H18U14018   1.364   5.679   8.335 -1.5697  0.2594 -0.0861
  130OSM    C1F14019   1.213   5.741   6.509  0.8097 -0.2717  0.4218
  130OSM     OF14020   1.185   5.678   6.408 -0.1893  0.4011  0.2226
  130OSM    C2F14021   1.102   5.808   6.589  0.6464 -0.3322 -0.5101
  130OSM    H2F14022   1.070   5.893   6.524 -2.6803 -1.2148 -0.1039
  130OSM    H2G14023   1.155   5.845   6.680 -0.4318  1.3089 -0.5298
  130OSM    C3F14024   0.982   5.715   6.617 -0.5056  0.3416 -0.2708
  130OSM    H3F14025   1.012   5.609   6.606 -0.8611  0.2803 -0.6703
  130OSM    H3G14026   0.903   5.724   6.539  0.2927 -2.7191 -1.5150
  130OSM    C4F14027   0.919   5.725   6.756 -0.8046  0.3160 -0.8866
  130OSM    H4F14028   0.897   5.834   6.759 -1.6662  0.1227  0.3375
  130OSM    H4G14029   0.992   5.701   6.835 -3.0453 -1.8925  0.6007
  130OSM    C5F14030   0.787   5.645   6.767  0.2712 -0.3375  0.2298
  130OSM    H5F14031   0.815   5.538   6.757 -2.2846 -1.0724  0.3522
  130OSM    H5G14032   0.710   5.658   6.688 -0.0632  0.1996  0.6366
  130OSM    C6F14033   0.713   5.638   6.902  0.0495 -0.0924 -0.2998
  130OSM    H6F14034   0.625   5.570   6.891  1.4147 -1.8503 -0.5844
  130OSM    H6G14035   0.681   5.741   6.929  2.4661  0.2224  1.5457
  130OSM    C7F14036   0.787   5.576   7.017  0.3825 -0.0211  0.8390
  130OSM    H7F14037   0.865   5.647   7.051 -0.9777  2.0928 -0.3331
  130OSM    H7G14038   0.848   5.495   6.970 -0.8458 -0.8424  0.6099
  130OSM    C8F14039   0.690   5.521   7.128 -0.4287 -0.3780 -0.1011
  130OSM    H8F14040   0.737   5.452   7.201  1.3961  0.2193 -0.6819
  130OSM    H8G14041   0.614   5.457   7.079  0.3198 -1.1093 -0.3286
  130OSM    C9F14042   0.620   5.636   7.206 -0.2462  0.1832  0.3628
  130OSM    H9F14043   0.553   5.685   7.133 -0.7967  0.1741  0.8599
  130OSM   C10F14044   0.624   5.677   7.340  0.2398 -0.3911 -0.4838
  130OSM   H10F14045   0.576   5.765   7.386 -0.4863 -1.0042 -0.0748
  130OSM   C11F14046   0.717   5.613   7.443 -0.0175  0.0026  0.0550
  130OSM   H11F14047   0.790   5.690   7.475  1.0875 -0.6617 -0.8367
  130OSM   H11G14048   0.771   5.527   7.399  0.7943  1.6566 -2.2491
  130OSM   C12F14049   0.641   5.554   7.562  0.1929 -0.1850  0.7978
  130OSM   H12F14050   0.718   5.508   7.627  0.3102  0.8096  1.3754
  130OSM   H12G14051   0.575   5.476   7.520  1.5088 -1.4201  0.9801
  130OSM   C13F14052   0.563   5.664   7.645 -0.7242  0.7664  0.0224
  130OSM   H13F14053   0.497   5.709   7.568 -2.7865  0.0745  1.3632
  130OSM   H13G14054   0.644   5.729   7.687 -1.6436  1.2913  1.0005
  130OSM   C14F14055   0.485   5.597   7.758 -0.7656 -0.7065  0.4124
  130OSM   H14F14056   0.393   5.552   7.713 -0.1387 -3.2107  1.5308
  130OSM   H14G14057   0.456   5.681   7.825  0.1001  0.8996 -1.2143
  130OSM   C15F14058   0.561   5.499   7.852 -0.9017 -0.8013 -0.5082
  130OSM   H15F14059   0.639   5.560   7.903 -1.1065  0.2060 -1.3914
  130OSM   H15G14060   0.601   5.418   7.788 -1.7299 -3.0572  1.7264
  130OSM   C16F14061   0.470   5.448   7.968 -0.2081  0.3420  0.0414
  130OSM   H16F14062   0.532   5.382   8.032 -0.3441  0.8519  0.7035
  130OSM   H16G14063   0.389   5.383   7.928 -0.7422  1.0032  0.0377
  130OSM   C17F14064   0.417   5.554   8.069 -0.2645  0.0825 -0.5290
  130OSM   H17F14065   0.364   5.640   8.023  0.0917  0.9686  0.6567
  130OSM   H17G14066   0.507   5.600   8.116  1.5459 -0.4206 -3.3861
  130OSM   C18F14067   0.340   5.491   8.183 -0.0172 -0.4046  1.1389
  130OSM   H18F14068   0.294   5.567   8.250 -0.8903 -0.3596  0.4975
  130OSM   H18G14069   0.403   5.423   8.245  1.5408 -1.5251 -1.6050
  130OSM   H18H14070   0.253   5.436   8.142  0.4753 -1.6999  1.7866
  131OSM      N14071   5.254   1.425   6.046 -0.8749 -0.0457 -0.1751
  131OSM    C1514072   5.140   1.449   5.951  0.5347  0.3234 -0.5423
  131OSM   H15A14073   5.093   1.542   5.981 -1.5885 -1.7699  2.9803
  131OSM   H15B14074   5.075   1.365   5.966  0.6247 -0.0126 -1.9312
  131OSM   H15C14075   5.181   1.455   5.851 -0.0326 -2.4684 -0.9613
  131OSM    C1414076   5.361   1.528   6.030  0.3937  0.4318 -0.1470
  131OSM   H14A14077   5.441   1.501   6.097  1.1503  1.5836 -0.5714
  131OSM   H14B14078   5.318   1.621   6.063  1.4317  0.4152  1.2990
  131OSM   H14C14079   5.403   1.538   5.931 -1.9959  2.4465 -0.9919
  131OSM    C1314080   5.211   1.414   6.192 -0.4143 -0.7389  0.2294
  131OSM   H13A14081   5.168   1.509   6.221 -1.3301 -0.1414 -2.8260
  131OSM   H13B14082   5.294   1.389   6.256 -0.3440 -2.3949 -0.4807
  131OSM   H13C14083   5.129   1.344   6.199 -0.6744 -0.3831  0.7891
  131OSM    C1214084   5.321   1.286   6.016  0.6663  0.1223 -0.4718
  131OSM   H12A14085   5.351   1.296   5.913 -0.7834  1.8617 -0.7705
  131OSM   H12B14086   5.249   1.206   6.025  1.0353 -0.1465  0.1164
  131OSM    C1114087   5.440   1.240   6.104 -0.1795  0.5153 -0.4055
  131OSM   H11A14088   5.475   1.140   6.072 -0.8229  0.4826 -1.0010
  131OSM   H11B14089   5.411   1.221   6.210  1.3527 -1.0123 -0.2406
  131OSM      P14090   5.683   1.305   6.177  0.3002  0.3123  0.3094
  131OSM    O1314091   5.707   1.158   6.181  0.2704  0.2852 -0.3994
  131OSM    O1414092   5.795   1.391   6.125  0.1561  0.4772 -0.3448
  131OSM    O1114093   5.650   1.369   6.323  0.6989 -0.2651 -0.2788
  131OSM    O1214094   5.547   1.336   6.099 -0.5235 -0.5028 -0.1609
  131OSM    C1S14095   5.586   1.495   6.327 -0.0981  0.0011 -0.5480
  131OSM    H1S14096   5.481   1.495   6.290 -0.5090 -1.2894  0.5644
  131OSM    H1T14097   5.652   1.567   6.275 -1.2234  1.4953  0.0423
  131OSM     NF14098   5.502   1.671   6.483  0.1875  0.3459 -0.6636
  131OSM    HNF14099   5.536   1.765   6.475  3.5843 -0.5079  2.2163
  131OSM    C2S14100   5.595   1.560   6.471  0.0575  0.0548 -0.1680
  131OSM    H2S14101   5.552   1.481   6.536  1.1004  1.0317  1.7376
  131OSM    C3S14102   5.741   1.586   6.511  0.1230 -0.0868  0.2757
  131OSM    H3S14103   5.770   1.677   6.454  0.6320 -0.5249 -0.1733
  131OSM     O314104   5.842   1.493   6.465  0.6542  0.3520  0.5259
  131OSM    HO314105   5.811   1.438   6.392 -0.2356  0.2101  1.0138
  131OSM    C4S14106   5.735   1.607   6.661 -0.0918  0.1691 -0.3967
  131OSM    H4S14107   5.759   1.708   6.698 -0.7181  0.2932 -0.3264
  131OSM    C5S14108   5.729   1.503   6.746 -0.4738 -1.1893  0.0675
  131OSM    H5S14109   5.718   1.401   6.707 -0.8659 -1.1976  0.2027
  131OSM    C6S14110   5.736   1.515   6.901  0.1930 -0.2552  0.7359
  131OSM    H6S14111   5.834   1.477   6.936  0.5222 -0.5933 -0.5204
  131OSM    H6T14112   5.663   1.443   6.944 -0.3574 -0.9504 -1.2636
  131OSM    C7S14113   5.707   1.662   6.954  0.1764 -0.9209  0.0086
  131OSM    H7S14114   5.608   1.689   6.910  0.5696  0.6244  0.0540
  131OSM    H7T14115   5.788   1.734   6.930 -0.0898 -0.7663 -0.4424
  131OSM    C8S14116   5.679   1.653   7.102  0.3120  0.1855 -0.1429
  131OSM    H8S14117   5.763   1.597   7.149  1.7486  0.2909 -2.4959
  131OSM    H8T14118   5.586   1.606   7.141  0.4440  2.3118  2.8728
  131OSM    C9S14119   5.660   1.796   7.159 -0.4280 -0.6099  0.0588
  131OSM    H9S14120   5.586   1.850   7.096 -0.3296  2.3855  2.3716
  131OSM    H9T14121   5.757   1.849   7.149 -1.2903  0.7559 -1.2631
  131OSM   C10S14122   5.593   1.803   7.297 -0.6143 -0.1162  0.2991
  131OSM   H10S14123   5.592   1.912   7.321  0.9334 -0.0470  0.1244
  131OSM   H10T14124   5.655   1.746   7.369 -0.7529 -2.4841 -1.4087
  131OSM   C11S14125   5.458   1.746   7.308  0.5135 -0.1093  0.5988
  131OSM   H11S14126   5.470   1.635   7.309  0.5555 -0.1010  1.7167
  131OSM   H11T14127   5.392   1.779   7.225 -0.1237 -2.4845  0.1161
  131OSM   C12S14128   5.390   1.785   7.446 -0.0248  0.1497  0.0941
  131OSM   H12S14129   5.379   1.896   7.453 -2.4475 -0.1081  0.6330
  131OSM   H12T14130   5.463   1.754   7.524 -0.6634 -1.4661  0.0501
  131OSM   C13S14131   5.251   1.727   7.467  1.2887 -0.1744 -1.0210
  131OSM   H13S14132   5.245   1.617   7.457 -0.6860 -0.4306  2.0910
  131OSM   H13T14133   5.179   1.767   7.393  0.8596 -0.5877 -0.8256
  131OSM   C14S14134   5.192   1.769   7.603  0.0476  0.2275  0.1354
  131OSM   H14S14135   5.188   1.880   7.600 -0.1166  0.1879 -1.6565
  131OSM   H14T14136   5.263   1.745   7.686 -1.4563 -3.0015  0.5664
  131OSM   C15S14137   5.057   1.713   7.635  0.3741  0.9039  0.3924
  131OSM   H15S14138   5.065   1.602   7.641  1.4270  0.6773 -3.3927
  131OSM   H15T14139   4.992   1.734   7.547  0.5666  0.6486  0.1848
  131OSM   C16S14140   5.004   1.769   7.762  0.1546 -0.2544  0.1748
  131OSM   H16S14141   5.046   1.870   7.777 -0.7503  0.2003 -0.2994
  131OSM   H16T14142   5.026   1.701   7.847 -0.2337 -2.9563 -1.8011
  131OSM   C17S14143   4.849   1.778   7.768  0.3361  0.0281  0.3215
  131OSM   H17S14144   4.807   1.819   7.673  0.7277 -0.8895 -0.2622
  131OSM   H17T14145   4.829   1.861   7.839 -2.7487  0.7622 -1.3139
  131OSM   C18S14146   4.797   1.663   7.836 -0.4973 -0.1498 -1.0761
  131OSM   H18S14147   4.798   1.574   7.769  0.2006  1.0164 -2.6390
  131OSM   H18T14148   4.689   1.681   7.856 -0.0617  1.6504 -0.2127
  131OSM   H18U14149   4.848   1.642   7.933 -1.2229 -0.4516 -0.7566
  131OSM    C1F14150   5.370   1.647   6.475 -0.5206  0.5152 -0.2222
  131OSM     OF14151   5.323   1.537   6.451 -0.1795 -0.0699  0.5934
  131OSM    C2F14152   5.283   1.766   6.484  0.3024 -0.4437  0.1641
  131OSM    H2F14153   5.230   1.779   6.387  1.1269 -5.0284 -1.0030
  131OSM    H2G14154   5.342   1.855   6.514 -0.3166 -0.2137  0.7221
  131OSM    C3F14155   5.177   1.762   6.593  0.5285 -0.0075 -0.0977
  131OSM    H3F14156   5.092   1.704   6.552  0.2374  0.4958 -0.2070
  131OSM    H3G14157   5.126   1.858   6.617  0.9146 -0.3458  2.1662
  131OSM    C4F14158   5.220   1.710   6.735 -0.3639  0.1487 -0.0937
  131OSM    H4F14159   5.243   1.602   6.720 -1.6503 -0.2996  0.9816
  131OSM    H4G14160   5.133   1.741   6.798 -1.3642 -0.5571 -1.0998
  131OSM    C5F14161   5.350   1.784   6.799 -0.2554  0.5383 -0.4326
  131OSM    H5F14162   5.431   1.766   6.725 -1.5497  0.6519 -1.9130
  131OSM    H5G14163   5.382   1.743   6.897  1.2621 -1.4215 -1.6952
  131OSM    C6F14164   5.317   1.926   6.832 -0.4820 -0.0205 -0.0066
  131OSM    H6F14165   5.247   1.930   6.919  0.1326 -1.6915  0.5852
  131OSM    H6G14166   5.266   1.980   6.750  1.5024 -0.6872 -1.7265
  131OSM    C7F14167   5.444   2.016   6.856 -0.0231 -0.2355 -0.4494
  131OSM    H7F14168   5.507   2.022   6.765  1.5963  0.0660  0.6502
  131OSM    H7G14169   5.502   1.961   6.934 -0.1462  0.9354  0.4857
  131OSM    C8F14170   5.399   2.154   6.920 -0.2858  0.3548  0.0110
  131OSM    H8F14171   5.341   2.122   7.009 -0.1978  2.2847  0.7771
  131OSM    H8G14172   5.333   2.197   6.842  0.3991 -0.1797 -0.8868
  131OSM    C9F14173   5.516   2.243   6.961  0.2191 -0.6986  0.1427
  131OSM    H9F14174   5.551   2.299   6.873 -0.0410  0.2988  0.6714
  131OSM   C10F14175   5.579   2.257   7.083  0.2876 -0.3905 -0.7981
  131OSM   H10F14176   5.653   2.337   7.095  0.0638  0.1862 -2.9738
  131OSM   C11F14177   5.564   2.182   7.212  0.2242  1.2686 -0.1001
  131OSM   H11F14178   5.655   2.123   7.235 -0.0003  0.5020 -1.1552
  131OSM   H11G14179   5.481   2.108   7.210  0.8958  0.4859  0.4457
  131OSM   C12F14180   5.536   2.286   7.333 -0.6244 -0.0842 -0.0604
  131OSM   H12F14181   5.436   2.332   7.318 -0.4824  0.0061 -0.7449
  131OSM   H12G14182   5.610   2.367   7.320  1.5254 -1.8519  0.9140
  131OSM   C13F14183   5.555   2.213   7.466 -0.4869  0.7143  0.8142
  131OSM   H13F14184   5.662   2.191   7.486 -0.3414 -0.3716 -1.0209
  131OSM   H13G14185   5.485   2.127   7.459  0.2722  0.2226 -1.0345
  131OSM   C14F14186   5.506   2.289   7.593 -0.0417  0.6005  0.3439
  131OSM   H14F14187   5.398   2.314   7.593 -0.3904 -0.4500  4.6321
  131OSM   H14G14188   5.575   2.375   7.609 -0.3548  0.8984  0.0822
  131OSM   C15F14189   5.529   2.214   7.721  0.0377  0.0582  0.2860
  131OSM   H15F14190   5.636   2.184   7.720 -0.0101 -0.1267 -2.1492
  131OSM   H15G14191   5.461   2.126   7.719  0.8334 -0.5443 -1.0355
  131OSM   C16F14192   5.492   2.306   7.838 -0.1432 -0.7904 -0.1896
  131OSM   H16F14193   5.391   2.349   7.821 -1.7004 -3.6170  1.6136
  131OSM   H16G14194   5.570   2.386   7.835 -0.4787 -0.5341 -2.3325
  131OSM   C17F14195   5.508   2.247   7.981 -0.1511  0.0764  0.3069
  131OSM   H17F14196   5.416   2.185   7.985 -0.1378  0.1019  0.9530
  131OSM   H17G14197   5.493   2.333   8.050 -1.5342 -1.6691  2.2300
  131OSM   C18F14198   5.634   2.159   8.018 -0.3066 -0.5627  0.0526
  131OSM   H18F14199   5.722   2.226   8.028 -0.8021  0.2428 -0.8826
  131OSM   H18G14200   5.646   2.080   7.941 -2.2048  0.5413 -1.4375
  131OSM   H18H14201   5.623   2.117   8.120  0.2617 -2.0223 -0.4777
  132OSM      N14202   6.720   3.361   6.287  0.3532 -0.3306 -0.1985
  132OSM    C1514203   6.576   3.374   6.297  0.2323 -0.4172  0.1316
  132OSM   H15A14204   6.540   3.458   6.355  0.7580  1.0551 -1.5991
  132OSM   H15B14205   6.540   3.281   6.337 -1.9284  0.8696  1.2808
  132OSM   H15C14206   6.537   3.392   6.197  1.0386 -0.5898 -0.2169
  132OSM    C1414207   6.778   3.475   6.205  0.0766 -0.4166 -0.5664
  132OSM   H14A14208   6.760   3.574   6.245  0.1978 -0.5167 -0.2564
  132OSM   H14B14209   6.732   3.476   6.108  1.0381 -1.5920 -1.0446
  132OSM   H14C14210   6.882   3.466   6.178  0.7690  1.2626  1.3191
  132OSM    C1314211   6.780   3.357   6.427  0.2814 -0.3671  0.0428
  132OSM   H13A14212   6.731   3.285   6.491 -1.3442  1.2663  0.6639
  132OSM   H13B14213   6.771   3.455   6.470 -1.0203 -0.1949 -0.5980
  132OSM   H13C14214   6.886   3.335   6.428 -0.1030 -2.3021  1.0860
  132OSM    C1214215   6.744   3.224   6.214  0.4703 -0.0325 -0.3632
  132OSM   H12A14216   6.686   3.216   6.123 -1.1299  0.2830  0.5995
  132OSM   H12B14217   6.702   3.148   6.279  2.5296 -0.1598  0.8468
  132OSM    C1114218   6.890   3.200   6.180  0.2809  0.6160 -0.1166
  132OSM   H11A14219   6.955   3.238   6.262  1.0794 -1.0070  0.0047
  132OSM   H11B14220   6.904   3.268   6.093  1.1421  1.1315  0.4146
  132OSM      P14221   6.927   2.955   6.272  0.5079  0.5309 -0.2692
  132OSM    O1314222   6.791   2.902   6.295  0.3706 -0.3335 -0.0340
  132OSM    O1414223   7.033   2.861   6.245  0.3367  0.2634 -0.0383
  132OSM    O1114224   6.972   3.042   6.399 -0.3018 -0.1813  0.1581
  132OSM    O1214225   6.918   3.060   6.162 -0.5750  0.5449 -0.4267
  132OSM    C1S14226   6.932   3.015   6.532 -0.1344 -0.0284 -0.1677
  132OSM    H1S14227   6.916   2.906   6.547 -2.0004  0.1537 -0.7646
  132OSM    H1T14228   6.837   3.066   6.557 -0.4556 -0.4299 -0.5766
  132OSM     NF14229   6.988   3.016   6.773 -0.1434  0.2188 -0.8061
  132OSM    HNF14230   6.951   3.089   6.829 -1.3711  0.1933 -1.5568
  132OSM    C2S14231   7.033   3.062   6.643 -0.2086  0.0924  0.9655
  132OSM    H2S14232   7.125   3.002   6.629 -1.4928 -1.9295  0.9640
  132OSM    C3S14233   7.050   3.211   6.627  0.9067  0.1217  1.3191
  132OSM    H3S14234   6.949   3.253   6.613  1.0066  0.1023  0.4931
  132OSM     O314235   7.118   3.250   6.513 -0.2464  0.1397 -0.1009
  132OSM    HO314236   7.121   3.175   6.454  1.8924  0.1223 -0.0449
  132OSM    C4S14237   7.107   3.283   6.737  0.2038  0.4669 -0.1169
  132OSM    H4S14238   7.205   3.244   6.768 -0.5831 -0.8537  0.7362
  132OSM    C5S14239   7.064   3.397   6.793 -0.1088 -0.0593 -0.2447
  132OSM    H5S14240   6.973   3.449   6.762  1.8807  2.3100 -2.2549
  132OSM    C6S14241   7.136   3.461   6.915 -0.4623  0.1363 -0.0942
  132OSM    H6S14242   7.062   3.485   6.994 -0.1501 -2.7743  1.1147
  132OSM    H6T14243   7.169   3.564   6.889  1.2271 -0.8853 -2.1823
  132OSM    C7S14244   7.250   3.378   6.972  0.3421 -0.5287  0.0771
  132OSM    H7S14245   7.329   3.362   6.896  1.2726 -1.3648  1.1922
  132OSM    H7T14246   7.210   3.280   7.008 -4.6410  1.0358 -0.7844
  132OSM    C8S14247   7.322   3.440   7.087 -0.8768 -0.1278 -0.1548
  132OSM    H8S14248   7.351   3.547   7.075  0.3483 -0.5670 -1.2165
  132OSM    H8T14249   7.423   3.395   7.092 -0.1203  1.4644 -0.6320
  132OSM    C9S14250   7.255   3.427   7.225  0.2179 -0.9935 -0.0945
  132OSM    H9S14251   7.245   3.320   7.254  0.1692 -1.0132 -0.1840
  132OSM    H9T14252   7.156   3.474   7.207  0.1795 -1.6109 -1.6031
  132OSM   C10S14253   7.329   3.513   7.327 -0.3775 -0.4214  0.4371
  132OSM   H10S14254   7.347   3.618   7.298 -0.3941 -0.8946 -1.3344
  132OSM   H10T14255   7.434   3.479   7.344 -0.0330  0.9131  1.0055
  132OSM   C11S14256   7.251   3.509   7.462  0.3921  0.0713 -0.0470
  132OSM   H11S14257   7.221   3.404   7.480  5.1433 -1.5257 -0.7060
  132OSM   H11T14258   7.156   3.566   7.450  0.0600 -0.6497 -0.8639
  132OSM   C12S14259   7.320   3.549   7.590  0.4877  0.1166  1.2093
  132OSM   H12S14260   7.334   3.659   7.598 -2.1877  0.5578  0.3923
  132OSM   H12T14261   7.425   3.513   7.591  0.2542 -0.5883  0.5475
  132OSM   C13S14262   7.233   3.505   7.713 -0.3250  0.1730  0.9653
  132OSM   H13S14263   7.216   3.395   7.704  0.8299 -0.0301  1.1671
  132OSM   H13T14264   7.141   3.567   7.724 -1.7926 -1.8624  0.5399
  132OSM   C14S14265   7.306   3.516   7.847 -0.2968  0.0854 -0.5484
  132OSM   H14S14266   7.333   3.624   7.851 -1.6588  0.6662 -4.5363
  132OSM   H14T14267   7.403   3.461   7.846 -1.2262 -1.5964 -0.0169
  132OSM   C15S14268   7.223   3.456   7.966  0.0480 -0.7277  0.4984
  132OSM   H15S14269   7.190   3.352   7.944 -0.9458 -1.0424  3.2301
  132OSM   H15T14270   7.139   3.526   7.986  1.0984  0.5566  0.4790
  132OSM   C16S14271   7.307   3.438   8.087 -0.1453 -0.5361  0.2620
  132OSM   H16S14272   7.366   3.530   8.106 -0.9133 -0.5421  2.9338
  132OSM   H16T14273   7.376   3.352   8.070 -0.8478 -1.0499 -0.0011
  132OSM   C17S14274   7.230   3.410   8.220  0.3161  0.0802 -0.4130
  132OSM   H17S14275   7.176   3.316   8.198 -1.2692  0.7706  0.4715
  132OSM   H17T14276   7.152   3.489   8.225 -0.3261 -0.4761 -1.6484
  132OSM   C18S14277   7.329   3.395   8.330 -0.4318 -0.3406 -0.3051
  132OSM   H18S14278   7.274   3.383   8.426 -0.1551 -0.0466 -0.1098
  132OSM   H18T14279   7.386   3.491   8.332  2.1000 -1.7682 -1.5049
  132OSM   H18U14280   7.401   3.312   8.317 -1.2393 -1.3305  1.4345
  132OSM    C1F14281   6.981   2.892   6.828  0.6783 -0.1933  0.1785
  132OSM     OF14282   7.019   2.796   6.768 -0.1710  0.1530 -0.4540
  132OSM    C2F14283   6.919   2.880   6.965  0.0174  0.2098  0.4377
  132OSM    H2F14284   6.831   2.814   6.949 -1.2153  2.2749 -1.5571
  132OSM    H2G14285   6.885   2.979   7.001  1.6995  0.9293  0.0643
  132OSM    C3F14286   7.013   2.823   7.076 -0.2032  0.0397 -0.0291
  132OSM    H3F14287   7.098   2.892   7.095 -1.7824  2.3146 -0.9819
  132OSM    H3G14288   7.073   2.733   7.051  1.0913  0.9659 -0.3127
  132OSM    C4F14289   6.947   2.819   7.219  0.3074  0.1450 -0.6966
  132OSM    H4F14290   6.882   2.909   7.214  0.1358  0.0714  0.1227
  132OSM    H4G14291   7.033   2.830   7.289 -1.5494  1.1512  1.5133
  132OSM    C5F14292   6.879   2.693   7.262 -1.1294  0.4396  0.5004
  132OSM    H5F14293   6.962   2.619   7.253 -0.4823  1.5869 -4.1663
  132OSM    H5G14294   6.792   2.667   7.198  0.6453 -0.1003 -1.7753
  132OSM    C6F14295   6.835   2.686   7.409  0.1840  0.4450  0.7743
  132OSM    H6F14296   6.736   2.733   7.429  0.5171  1.5154 -0.0497
  132OSM    H6G14297   6.913   2.736   7.471 -0.5687 -0.1603  2.2343
  132OSM    C7F14298   6.821   2.542   7.463  0.6493  0.8007 -0.0284
  132OSM    H7F14299   6.912   2.482   7.440 -0.3866 -0.7083 -0.3363
  132OSM    H7G14300   6.746   2.487   7.401 -0.9331  0.7591  1.8753
  132OSM    C8F14301   6.776   2.536   7.615  0.4871 -0.4884  0.3127
  132OSM    H8F14302   6.767   2.430   7.647  0.8120 -0.9798 -1.1836
  132OSM    H8G14303   6.676   2.582   7.625 -0.3610 -2.4234  0.9892
  132OSM    C9F14304   6.880   2.600   7.704 -0.0305 -0.0039  0.3109
  132OSM    H9F14305   6.969   2.535   7.712 -1.2915 -1.6618  1.3794
  132OSM   C10F14306   6.877   2.703   7.783  0.7020 -0.1512 -0.2415
  132OSM   H10F14307   6.967   2.725   7.843 -0.3898 -0.5036  1.5519
  132OSM   C11F14308   6.764   2.801   7.805 -0.4621  0.0127 -0.3154
  132OSM   H11F14309   6.664   2.766   7.771 -0.8078  1.9532 -1.3813
  132OSM   H11G14310   6.788   2.892   7.746  0.7697 -0.2243 -0.1839
  132OSM   C12F14311   6.747   2.837   7.951 -0.0770 -0.0289 -0.2790
  132OSM   H12F14312   6.703   2.938   7.960  2.5011  1.3472 -2.5868
  132OSM   H12G14313   6.850   2.848   7.992  0.3706 -0.0226 -1.3870
  132OSM   C13F14314   6.671   2.733   8.039 -1.1516  0.3131 -0.3630
  132OSM   H13F14315   6.734   2.642   8.046 -1.5282  0.1187  0.4504
  132OSM   H13G14316   6.569   2.709   8.003 -1.1781 -0.5200  0.2759
  132OSM   C14F14317   6.667   2.778   8.188  0.0222 -0.8242 -0.4463
  132OSM   H14F14318   6.564   2.768   8.228 -0.0090 -3.1007 -0.9936
  132OSM   H14G14319   6.704   2.882   8.201 -0.0295 -0.4403 -3.0589
  132OSM   C15F14320   6.756   2.695   8.275 -0.1527  0.0941  0.1813
  132OSM   H15F14321   6.860   2.691   8.238 -0.8416 -1.0915 -1.7372
  132OSM   H15G14322   6.708   2.595   8.266  2.9295 -1.3053 -1.4873
  132OSM   C16F14323   6.759   2.747   8.419  0.2244 -0.3766 -0.2322
  132OSM   H16F14324   6.653   2.763   8.449  0.4500 -2.3559  1.7681
  132OSM   H16G14325   6.803   2.848   8.432 -1.0631  0.0899  0.6109
  132OSM   C17F14326   6.827   2.650   8.517  0.6714 -0.1762 -0.0910
  132OSM   H17F14327   6.924   2.619   8.474 -0.3889 -2.1149 -1.1576
  132OSM   H17G14328   6.760   2.562   8.528  0.2701  0.2088  0.5912
  132OSM   C18F14329   6.851   2.708   8.660 -0.0269  0.3652  0.1978
  132OSM   H18F14330   6.761   2.738   8.719  0.0610  0.7871  0.1233
  132OSM   H18G14331   6.923   2.793   8.651 -0.4997  0.4573 -3.1358
  132OSM   H18H14332   6.904   2.635   8.724  0.8512 -0.0112 -0.9416
  133OSM      N14333   0.489   3.039   6.003  0.4564  0.6785 -0.3757
  133OSM    C1514334   0.401   2.963   5.912  0.0425  0.3911  0.0394
  133OSM   H15A14335   0.414   2.991   5.808 -0.4048  1.7402  0.3348
  133OSM   H15B14336   0.298   2.974   5.941 -0.6948  1.0146 -2.6434
  133OSM   H15C14337   0.425   2.859   5.930  0.1565 -0.5101 -4.6461
  133OSM    C1414338   0.633   3.040   5.959  1.0545  0.1901 -0.0722
  133OSM   H14A14339   0.679   2.943   5.950  0.4017 -0.3422  2.1768
  133OSM   H14B14340   0.695   3.093   6.030  1.3589 -1.5072  0.9595
  133OSM   H14C14341   0.641   3.109   5.876 -0.2960  1.8533  1.1412
  133OSM    C1314342   0.442   3.185   6.004  0.3139 -0.2733 -0.1186
  133OSM   H13A14343   0.350   3.198   6.057 -0.6614 -0.8111 -1.6487
  133OSM   H13B14344   0.427   3.226   5.905  1.3332  3.0256  1.0223
  133OSM   H13C14345   0.517   3.242   6.058 -1.8388  0.5774  2.0360
  133OSM    C1214346   0.486   2.982   6.146  0.0402  0.9511  0.8746
  133OSM   H12A14347   0.546   2.894   6.127  0.5604  1.6983 -1.1184
  133OSM   H12B14348   0.384   2.972   6.178  0.0057  1.0685  0.8008
  133OSM    C1114349   0.564   3.068   6.258 -0.0070  0.0599  0.1010
  133OSM   H11A14350   0.545   3.011   6.351  1.3345 -1.2034 -0.3779
  133OSM   H11B14351   0.524   3.171   6.270  1.4357  0.7330 -0.6537
  133OSM      P14352   0.809   2.976   6.282  0.0797 -0.2454  0.1221
  133OSM    O1314353   0.797   2.868   6.182  0.0326 -0.4776  0.5052
  133OSM    O1414354   0.939   3.043   6.306 -0.0348  0.1319  0.8702
  133OSM    O1114355   0.737   2.932   6.413 -0.3469  0.2074  0.3151
  133OSM    O1214356   0.699   3.089   6.237 -0.7401  0.1252  0.5358
  133OSM    C1S14357   0.710   2.799   6.450 -0.2699  0.8865 -0.2450
  133OSM    H1S14358   0.772   2.719   6.405  0.3367  0.7018  0.8926
  133OSM    H1T14359   0.601   2.790   6.429 -0.5115  1.1821  0.8256
  133OSM     NF14360   0.691   2.647   6.632 -0.2955  0.3125 -0.5037
  133OSM    HNF14361   0.599   2.630   6.667  0.6676  1.4453  2.6956
  133OSM    C2S14362   0.714   2.779   6.604 -0.0290 -0.2828 -0.2645
  133OSM    H2S14363   0.817   2.790   6.643 -0.5569 -1.1110  1.4369
  133OSM    C3S14364   0.628   2.886   6.677  0.1265 -0.6687 -0.1633
  133OSM    H3S14365   0.523   2.867   6.644 -0.2915  0.6150  0.3782
  133OSM     O314366   0.645   3.020   6.634  0.0529 -0.4713 -0.3496
  133OSM    HO314367   0.676   3.000   6.546  0.2894  0.8925 -0.5799
  133OSM    C4S14368   0.655   2.881   6.814  0.9326 -0.3657  0.3912
  133OSM    H4S14369   0.761   2.902   6.838  0.2802  2.4366  1.0605
  133OSM    C5S14370   0.569   2.861   6.916  0.2290 -0.0773  0.6136
  133OSM    H5S14371   0.462   2.847   6.892  0.8924 -3.5087 -0.6314
  133OSM    C6S14372   0.603   2.864   7.063  0.6863  0.1076  0.5718
  133OSM    H6S14373   0.710   2.841   7.079  1.5789  2.3395 -1.8227
  133OSM    H6T14374   0.530   2.799   7.115  0.5734  1.0279  1.5646
  133OSM    C7S14375   0.584   3.014   7.104  1.0570  0.2728 -0.6004
  133OSM    H7S14376   0.493   3.053   7.053 -0.4239 -1.8518  0.3423
  133OSM    H7T14377   0.672   3.069   7.064 -0.8970  1.7169 -3.0875
  133OSM    C8S14378   0.586   3.031   7.256 -0.4953 -0.5205 -0.0128
  133OSM    H8S14379   0.572   3.135   7.292  0.2955  0.3089 -2.0043
  133OSM    H8T14380   0.689   3.016   7.296 -0.2312 -1.5373 -1.0632
  133OSM    C9S14381   0.495   2.947   7.346 -0.0053 -0.1126 -0.1564
  133OSM    H9S14382   0.514   2.842   7.314  2.3082  0.1674  0.1625
  133OSM    H9T14383   0.390   2.975   7.325  1.2002  3.0238 -2.4326
  133OSM   C10S14384   0.520   2.971   7.492  0.7687 -0.3831 -0.6613
  133OSM   H10S14385   0.503   3.078   7.518  1.4895 -0.4993  0.3202
  133OSM   H10T14386   0.627   2.945   7.509  0.7241  0.3022  0.7751
  133OSM   C11S14387   0.442   2.886   7.591 -0.1874  0.2888 -0.1923
  133OSM   H11S14388   0.452   2.777   7.569 -0.3892  0.4015 -0.8603
  133OSM   H11T14389   0.332   2.900   7.582 -0.2593 -0.1756 -0.0633
  133OSM   C12S14390   0.483   2.901   7.739  0.0851  0.6208 -0.3223
  133OSM   H12S14391   0.593   2.884   7.746 -0.5350 -2.6665  3.3460
  133OSM   H12T14392   0.429   2.829   7.804 -0.1038  0.2123 -0.9243
  133OSM   C13S14393   0.440   3.036   7.804 -0.1564  0.5757 -0.0082
  133OSM   H13S14394   0.336   3.066   7.778 -0.7746 -2.7670 -1.7700
  133OSM   H13T14395   0.507   3.112   7.758 -2.2903  0.9757 -2.5814
  133OSM   C14S14396   0.472   3.040   7.953  1.4988 -0.0645  0.4571
  133OSM   H14S14397   0.462   3.139   8.002  2.7706  1.0837 -1.5180
  133OSM   H14T14398   0.565   2.985   7.981  1.2982 -0.2435  0.7707
  133OSM   C15S14399   0.359   2.965   8.034 -0.2256 -0.1990  0.7564
  133OSM   H15S14400   0.352   2.862   7.993  2.3108 -0.4442  0.8553
  133OSM   H15T14401   0.256   3.006   8.027  0.4236  1.8631  2.8876
  133OSM   C16S14402   0.389   2.958   8.187 -0.1373  0.1832 -0.0432
  133OSM   H16S14403   0.394   3.064   8.219  1.2073 -0.4791  2.0252
  133OSM   H16T14404   0.488   2.911   8.208 -1.9109 -2.9441  1.6730
  133OSM   C17S14405   0.284   2.891   8.275 -0.2636 -0.5152  0.8919
  133OSM   H17S14406   0.267   2.783   8.260  0.4359 -0.2794 -1.9139
  133OSM   H17T14407   0.189   2.921   8.226 -1.2102 -2.2424  1.6214
  133OSM   C18S14408   0.300   2.933   8.419 -0.2690 -0.1343  0.2671
  133OSM   H18S14409   0.201   2.932   8.468  0.7117  0.7114  2.3374
  133OSM   H18T14410   0.327   3.041   8.429  0.6288 -0.3835  0.6170
  133OSM   H18U14411   0.376   2.864   8.460 -0.6079 -1.6362 -1.5543
  133OSM    C1F14412   0.765   2.541   6.596 -0.3000  0.7599 -0.3883
  133OSM     OF14413   0.880   2.541   6.558 -0.7546  0.6740 -0.2677
  133OSM    C2F14414   0.695   2.413   6.606  0.6938 -0.4202  0.4730
  133OSM    H2F14415   0.691   2.356   6.511 -1.4609  2.4391 -1.2370
  133OSM    H2G14416   0.585   2.426   6.622  0.3879  1.4778 -2.7679
  133OSM    C3F14417   0.760   2.325   6.708 -0.2221  0.3620 -0.4258
  133OSM    H3F14418   0.861   2.292   6.675 -0.1333  0.2661 -0.0556
  133OSM    H3G14419   0.702   2.230   6.713  0.3306  0.0840  1.0962
  133OSM    C4F14420   0.767   2.383   6.856  0.0975 -0.6492  0.7182
  133OSM    H4F14421   0.823   2.479   6.863  1.2695 -1.2203 -0.5397
  133OSM    H4G14422   0.813   2.304   6.919 -0.3393 -1.0742  0.5065
  133OSM    C5F14423   0.627   2.404   6.914 -0.5314  1.1986  0.0100
  133OSM    H5F14424   0.574   2.307   6.922  0.2342  0.7506 -0.3407
  133OSM    H5G14425   0.576   2.473   6.844 -0.4348 -0.5088 -1.7912
  133OSM    C6F14426   0.628   2.468   7.051  0.2712  0.1837 -0.5183
  133OSM    H6F14427   0.526   2.510   7.064 -0.3399 -1.3404 -0.3283
  133OSM    H6G14428   0.699   2.553   7.059 -1.0211  1.4368 -1.9298
  133OSM    C7F14429   0.659   2.367   7.163  0.1912  0.2185  0.4800
  133OSM    H7F14430   0.757   2.320   7.139 -1.1694 -1.9331 -0.9793
  133OSM    H7G14431   0.590   2.282   7.177  0.1053  0.2712  0.3759
  133OSM    C8F14432   0.683   2.429   7.304 -0.0186  0.4608  0.4352
  133OSM    H8F14433   0.759   2.510   7.294 -2.2598  2.3778 -1.5191
  133OSM    H8G14434   0.742   2.353   7.360 -0.0566 -1.0772 -1.5562
  133OSM    C9F14435   0.566   2.481   7.378 -0.1163  0.0725 -0.1148
  133OSM    H9F14436   0.490   2.529   7.314 -0.7159 -2.1974 -1.1739
  133OSM   C10F14437   0.564   2.503   7.510  0.0525  0.3400  0.3260
  133OSM   H10F14438   0.472   2.551   7.546  0.4130  1.2461  0.0415
  133OSM   C11F14439   0.671   2.467   7.608 -0.2744  0.2141 -0.4021
  133OSM   H11F14440   0.755   2.539   7.616  0.5203 -0.6393 -1.0087
  133OSM   H11G14441   0.724   2.373   7.581 -0.0696 -0.6307  2.7152
  133OSM   C12F14442   0.622   2.447   7.754  0.3897  0.3712  0.2224
  133OSM   H12F14443   0.695   2.409   7.828 -1.6513  1.0786  2.6670
  133OSM   H12G14444   0.545   2.367   7.759  0.4546  0.3437  0.8205
  133OSM   C13F14445   0.565   2.578   7.799  0.5219 -0.5223  0.2811
  133OSM   H13F14446   0.463   2.583   7.756  0.1193 -1.7179  1.0740
  133OSM   H13G14447   0.622   2.659   7.749 -1.0790 -1.6026 -3.4406
  133OSM   C14F14448   0.541   2.599   7.954  0.2608  0.5444  0.0350
  133OSM   H14F14449   0.491   2.697   7.968 -0.2356  0.3368 -0.2652
  133OSM   H14G14450   0.645   2.611   7.989 -0.4590  0.5371  2.2255
  133OSM   C15F14451   0.468   2.489   8.030  0.3255 -1.0183  0.1430
  133OSM   H15F14452   0.538   2.403   8.031  1.4637 -0.1335 -1.5664
  133OSM   H15G14453   0.378   2.458   7.973 -0.8134  0.3191  1.1849
  133OSM   C16F14454   0.424   2.518   8.180  0.1165  0.4593 -0.2578
  133OSM   H16F14455   0.313   2.506   8.186  0.3007 -1.0456  0.2602
  133OSM   H16G14456   0.445   2.626   8.197  0.4852  0.1527  1.3523
  133OSM   C17F14457   0.495   2.432   8.285 -0.3863 -0.0987  0.1657
  133OSM   H17F14458   0.603   2.448   8.265 -0.3574  0.3465  0.6570
  133OSM   H17G14459   0.478   2.323   8.279 -2.0205  0.1612 -0.1720
  133OSM   C18F14460   0.466   2.485   8.427 -0.3084 -0.5606  0.4070
  133OSM   H18F14461   0.511   2.409   8.494  0.7296  0.8409  1.3263
  133OSM   H18G14462   0.357   2.498   8.443 -0.8511 -1.0867 -2.4659
  133OSM   H18H14463   0.510   2.585   8.449 -2.9936  0.4143  1.5330
  134OSM      N14464   1.855   6.686   6.483  0.3710 -0.3518 -0.2701
  134OSM    C1514465   1.853   6.829   6.485  0.6801 -0.2188 -0.0800
  134OSM   H15A14466   1.946   6.867   6.447  0.8933 -0.0995  0.5428
  134OSM   H15B14467   1.830   6.872   6.582  0.4172 -0.7175  0.0835
  134OSM   H15C14468   1.763   6.868   6.440 -0.5313  0.5716  2.8533
  134OSM    C1414469   1.718   6.635   6.517  0.6881  0.3583  0.8507
  134OSM   H14A14470   1.694   6.680   6.612  0.6142  1.7852  0.1706
  134OSM   H14B14471   1.723   6.527   6.526 -0.6476  0.2299  0.1981
  134OSM   H14C14472   1.638   6.659   6.449  0.1658 -2.3450  0.4463
  134OSM    C1314473   1.885   6.635   6.343  0.0878 -0.4395  0.0902
  134OSM   H13A14474   1.974   6.674   6.296  0.9750 -0.5049  1.6607
  134OSM   H13B14475   1.806   6.674   6.280 -0.2813 -2.6249 -0.8282
  134OSM   H13C14476   1.897   6.528   6.335 -0.9583 -0.6865  1.5076
  134OSM    C1214477   1.954   6.619   6.581  0.0075  0.6333 -0.0826
  134OSM   H12A14478   1.941   6.657   6.681 -0.6326  0.7139 -0.1966
  134OSM   H12B14479   2.058   6.639   6.560  0.5747 -1.2931  0.8672
  134OSM    C1114480   1.951   6.461   6.601  0.8055  0.0637 -0.2353
  134OSM   H11A14481   1.865   6.435   6.667  0.9913 -0.7736 -0.3163
  134OSM   H11B14482   2.041   6.437   6.661 -1.6599 -0.7059  3.3530
  134OSM      P14483   2.020   6.273   6.423 -0.3495  0.6882  0.1251
  134OSM    O1314484   1.988   6.254   6.276  0.9960 -0.4954  0.2640
  134OSM    O1414485   2.166   6.292   6.445  0.2920 -0.4109 -0.0633
  134OSM    O1114486   1.962   6.159   6.503  0.2036  0.6331 -0.1616
  134OSM    O1214487   1.939   6.392   6.475 -0.2778 -0.6598 -0.2381
  134OSM    C1S14488   1.982   6.131   6.642 -0.9980 -0.3039  0.1241
  134OSM    H1S14489   1.920   6.200   6.703  0.7667  0.1639  1.4363
  134OSM    H1T14490   2.087   6.137   6.679 -0.7351  2.3695 -0.9254
  134OSM     NF14491   1.969   5.956   6.828 -0.6720 -0.2821 -0.5525
  134OSM    HNF14492   2.053   5.905   6.841 -0.9069 -0.9542 -1.5763
  134OSM    C2S14493   1.947   5.984   6.686 -0.6437  0.5735  0.0237
  134OSM    H2S14494   1.840   5.968   6.658 -0.7624 -0.8584  1.2742
  134OSM    C3S14495   2.026   5.876   6.593 -0.3369 -0.5724  1.0982
  134OSM    H3S14496   2.135   5.901   6.599  0.5964 -2.5651 -4.3705
  134OSM     O314497   2.000   5.906   6.454 -0.1950 -0.2146  0.3909
  134OSM    HO314498   1.986   6.001   6.446 -2.1581 -0.5540 -0.6743
  134OSM    C4S14499   1.994   5.730   6.614  0.7796 -0.2689  0.3847
  134OSM    H4S14500   1.890   5.704   6.638  0.0400  0.6008 -1.8055
  134OSM    C5S14501   2.077   5.628   6.629 -0.1382  0.1605 -0.1169
  134OSM    H5S14502   2.187   5.640   6.629  0.0207 -1.0504  2.2940
  134OSM    C6S14503   2.033   5.488   6.650  0.8982 -0.1455  0.3264
  134OSM    H6S14504   2.048   5.424   6.560  0.1719  0.9361 -0.5746
  134OSM    H6T14505   1.923   5.483   6.661  0.8312 -1.1863 -0.6527
  134OSM    C7S14506   2.103   5.427   6.776 -0.0674  0.4529  1.2049
  134OSM    H7S14507   2.212   5.418   6.753  0.1944  0.1986  2.4918
  134OSM    H7T14508   2.057   5.326   6.774  1.8188 -0.4190 -1.8591
  134OSM    C8S14509   2.061   5.497   6.906  0.1013 -0.3095  0.7424
  134OSM    H8S14510   1.950   5.502   6.908  0.0176 -1.9727  0.6961
  134OSM    H8T14511   2.083   5.605   6.894  1.1295 -0.6683 -0.9015
  134OSM    C9S14512   2.126   5.436   7.034  0.0105  0.5737  0.1571
  134OSM    H9S14513   2.236   5.439   7.026  0.1403  0.0251  1.5525
  134OSM    H9T14514   2.085   5.334   7.054  0.2856  0.1659 -1.3629
  134OSM   C10S14515   2.082   5.527   7.152 -0.1682  0.5062  0.6014
  134OSM   H10S14516   1.978   5.504   7.184 -0.6452  3.0998  1.0484
  134OSM   H10T14517   2.088   5.636   7.133 -1.3582  0.1570 -1.8472
  134OSM   C11S14518   2.157   5.491   7.279  0.1820  0.1491  0.2214
  134OSM   H11S14519   2.267   5.502   7.269  0.4859 -1.2042  1.8886
  134OSM   H11T14520   2.141   5.385   7.307 -0.4228 -0.6059 -2.8093
  134OSM   C12S14521   2.123   5.578   7.393 -0.3044 -0.5257 -0.1658
  134OSM   H12S14522   2.022   5.571   7.438 -0.6942  0.7377 -0.8229
  134OSM   H12T14523   2.127   5.686   7.368 -0.0867 -0.3364  0.6520
  134OSM   C13S14524   2.214   5.549   7.511  0.1464 -0.3068 -0.2917
  134OSM   H13S14525   2.321   5.570   7.488 -0.1750  1.4762 -0.2451
  134OSM   H13T14526   2.210   5.443   7.541  1.2044 -1.0006 -2.4401
  134OSM   C14S14527   2.178   5.634   7.637  0.0029 -0.2731  0.4737
  134OSM   H14S14528   2.073   5.612   7.663  0.0871 -0.5822  0.5529
  134OSM   H14T14529   2.200   5.740   7.609  2.0847 -1.1701 -1.5112
  134OSM   C15S14530   2.273   5.615   7.762  0.2357  0.4258  0.5182
  134OSM   H15S14531   2.349   5.695   7.754  0.3490  0.1284 -1.5659
  134OSM   H15T14532   2.337   5.525   7.749 -0.4870  0.2435 -2.0936
  134OSM   C16S14533   2.201   5.631   7.897 -0.4999  0.8061 -0.3250
  134OSM   H16S14534   2.275   5.599   7.973 -0.2141 -0.9772 -1.3523
  134OSM   H16T14535   2.130   5.546   7.905 -1.8383  2.0718  1.7238
  134OSM   C17S14536   2.139   5.762   7.934  0.2295 -0.0635  0.4750
  134OSM   H17S14537   2.059   5.804   7.869 -0.1923  0.3127  1.2240
  134OSM   H17T14538   2.217   5.840   7.939  1.3418 -1.1536  0.3122
  134OSM   C18S14539   2.070   5.754   8.075  0.1128 -0.0734  0.3875
  134OSM   H18S14540   1.962   5.758   8.048  0.2149  1.9539  0.2295
  134OSM   H18T14541   2.098   5.843   8.134  0.4485 -0.3951  0.7192
  134OSM   H18U14542   2.105   5.665   8.132 -1.3335 -0.5198  0.6283
  134OSM    C1F14543   1.898   6.003   6.924  0.2556 -0.1867  0.4372
  134OSM     OF14544   1.800   6.071   6.904  0.2399 -0.1426  0.1265
  134OSM    C2F14545   1.949   5.979   7.061 -0.0553 -0.0740  0.2345
  134OSM    H2F14546   2.059   5.964   7.056  0.2478  2.1282  0.1524
  134OSM    H2G14547   1.904   5.882   7.093  0.5097  0.1129  1.6217
  134OSM    C3F14548   1.906   6.095   7.154 -0.6965  0.5545  0.0629
  134OSM    H3F14549   1.797   6.107   7.143 -0.6337 -0.4706 -1.9291
  134OSM    H3G14550   1.959   6.185   7.116  0.7929 -0.2881  0.1032
  134OSM    C4F14551   1.945   6.058   7.297 -0.0615 -0.2324 -0.0559
  134OSM    H4F14552   2.048   6.018   7.304 -1.0761 -2.8438  0.3508
  134OSM    H4G14553   1.875   5.977   7.324 -0.7889 -0.0324 -1.3191
  134OSM    C5F14554   1.939   6.178   7.394  0.2999 -0.1782  0.6334
  134OSM    H5F14555   1.836   6.218   7.385  1.2860  2.2998 -0.3357
  134OSM    H5G14556   2.000   6.261   7.352  0.6747  0.3668  2.2199
  134OSM    C6F14557   1.969   6.140   7.539 -0.3011 -0.2665 -0.2062
  134OSM    H6F14558   2.079   6.130   7.546 -0.3689  0.2677  1.8921
  134OSM    H6G14559   1.918   6.047   7.571  1.1199 -1.1086 -0.3641
  134OSM    C7F14560   1.925   6.263   7.623 -0.4547  0.5747  0.0815
  134OSM    H7F14561   1.814   6.268   7.628 -0.4396  2.9810 -1.1919
  134OSM    H7G14562   1.951   6.361   7.578  1.5791 -0.3936 -0.9113
  134OSM    C8F14563   1.978   6.257   7.768 -0.0466  0.1962  0.5141
  134OSM    H8F14564   1.956   6.355   7.816 -1.1626 -0.0384  0.4898
  134OSM    H8G14565   2.089   6.247   7.769 -0.2516 -2.5401 -0.3227
  134OSM    C9F14566   1.928   6.145   7.846  0.4260 -1.0906 -0.3353
  134OSM    H9F14567   1.975   6.048   7.827  1.9683 -0.1997 -1.1852
  134OSM   C10F14568   1.821   6.146   7.931  0.5601 -0.7517 -0.4049
  134OSM   H10F14569   1.786   6.052   7.975  2.0639 -0.2258  2.0485
  134OSM   C11F14570   1.732   6.259   7.964 -0.0566 -0.5011  0.2228
  134OSM   H11F14571   1.630   6.219   7.949 -0.4818  1.0207 -1.0732
  134OSM   H11G14572   1.744   6.344   7.893 -0.4135  0.9516  1.8686
  134OSM   C12F14573   1.763   6.312   8.107 -0.2627  0.4031 -1.0789
  134OSM   H12F14574   1.715   6.411   8.117  0.6490  0.7142  0.2813
  134OSM   H12G14575   1.869   6.346   8.110 -0.3536  0.6699 -0.8874
  134OSM   C13F14576   1.731   6.212   8.220 -0.5608 -0.0812  0.3709
  134OSM   H13F14577   1.795   6.122   8.204  1.4295  1.1800  1.0384
  134OSM   H13G14578   1.628   6.170   8.214  0.0783 -2.0459  2.4151
  134OSM   C14F14579   1.768   6.270   8.356  0.2244 -0.1253 -0.1960
  134OSM   H14F14580   1.698   6.354   8.372 -2.6662 -2.3360 -0.7126
  134OSM   H14G14581   1.873   6.304   8.357  0.5903 -1.2234  0.2391
  134OSM   C15F14582   1.748   6.160   8.465 -0.4229 -0.1891 -0.2748
  134OSM   H15F14583   1.844   6.106   8.480  1.0516  2.2095 -0.8477
  134OSM   H15G14584   1.686   6.075   8.430 -0.6945  0.2757 -0.9391
  134OSM   C16F14585   1.700   6.224   8.602 -0.7222  0.8439 -0.1920
  134OSM   H16F14586   1.786   6.282   8.642  1.6663 -1.4359 -1.8784
  134OSM   H16G14587   1.668   6.145   8.672  1.3377  0.9296  0.8755
  134OSM   C17F14588   1.587   6.321   8.592  0.0498 -0.0093 -0.4308
  134OSM   H17F14589   1.523   6.294   8.505 -2.0810 -1.4728  1.5349
  134OSM   H17G14590   1.627   6.421   8.567  3.8179 -1.6470 -1.4191
  134OSM   C18F14591   1.503   6.331   8.723  1.0790  0.0315  0.7494
  134OSM   H18F14592   1.455   6.232   8.740  2.0093 -0.2292  1.8844
  134OSM   H18G14593   1.417   6.400   8.711 -0.7270 -2.3329 -0.3695
  134OSM   H18H14594   1.568   6.366   8.806  0.6714 -0.6869  1.3797
  135OSM      N14595   1.502   6.154   6.009 -0.0408  0.2230  0.0104
  135OSM    C1514596   1.415   6.278   6.006  0.1806  0.6162  0.0738
  135OSM   H15A14597   1.352   6.285   5.918  0.6715 -0.0991 -0.3397
  135OSM   H15B14598   1.481   6.364   6.003 -0.2394  0.9004 -1.9120
  135OSM   H15C14599   1.369   6.296   6.101 -0.3888  2.2924 -0.4900
  135OSM    C1414600   1.422   6.035   6.046 -0.4071 -0.2480 -0.0733
  135OSM   H14A14601   1.381   6.052   6.145 -1.1233 -0.3828 -0.3416
  135OSM   H14B14602   1.486   5.950   6.064  0.1244  0.5939  2.2134
  135OSM   H14C14603   1.342   6.018   5.976 -1.9612 -0.3475  1.6750
  135OSM    C1314604   1.553   6.133   5.865  0.1443  0.1806  0.5651
  135OSM   H13A14605   1.469   6.126   5.798 -0.0082  0.7633  0.6905
  135OSM   H13B14606   1.593   6.033   5.862 -1.9684 -0.7701  2.5652
  135OSM   H13C14607   1.623   6.208   5.831  0.3186  0.0810  0.7014
  135OSM    C1214608   1.628   6.172   6.100  0.0814 -0.0851  0.5186
  135OSM   H12A14609   1.681   6.262   6.069 -1.4452  0.1628 -1.4637
  135OSM   H12B14610   1.694   6.087   6.087 -0.6244 -0.4479 -0.7940
  135OSM    C1114611   1.606   6.189   6.253 -0.0297 -0.5090  0.8593
  135OSM   H11A14612   1.707   6.170   6.297  1.5549  1.4135 -1.8332
  135OSM   H11B14613   1.542   6.106   6.291 -1.6396  0.8372  1.1773
  135OSM      P14614   1.448   6.343   6.377 -0.2919  0.1796 -0.0286
  135OSM    O1314615   1.440   6.480   6.439 -0.0865  0.2439 -0.0250
  135OSM    O1414616   1.326   6.298   6.309 -0.0500  0.3626  0.1287
  135OSM    O1114617   1.474   6.237   6.496 -0.3294  0.4070 -0.9907
  135OSM    O1214618   1.575   6.322   6.286  0.1096  0.0958 -0.5270
  135OSM    C1S14619   1.580   6.253   6.590 -0.0013  0.1663  0.0043
  135OSM    H1S14620   1.611   6.359   6.582 -3.2230  1.1828  0.2322
  135OSM    H1T14621   1.663   6.183   6.567  0.7687  1.3008 -0.7514
  135OSM     NF14622   1.636   6.282   6.825  0.0082 -0.1571 -0.9942
  135OSM    HNF14623   1.688   6.204   6.856 -2.6296 -2.4087 -2.0354
  135OSM    C2S14624   1.532   6.241   6.734 -0.3644 -0.3172  0.8508
  135OSM    H2S14625   1.447   6.311   6.751  0.7100  0.9362  1.1467
  135OSM    C3S14626   1.486   6.095   6.774  0.1156  0.6905  0.2705
  135OSM    H3S14627   1.568   6.020   6.763 -1.2014 -1.0936  2.1818
  135OSM     O314628   1.387   6.044   6.680 -0.4753 -0.6525  0.2947
  135OSM    HO314629   1.410   6.105   6.608 -1.5639  0.2426  0.6875
  135OSM    C4S14630   1.433   6.088   6.907 -0.0835  0.2745 -0.6711
  135OSM    H4S14631   1.327   6.118   6.907 -0.1631  0.0057  0.2996
  135OSM    C5S14632   1.485   6.027   7.020 -0.0194  0.4997 -0.2651
  135OSM    H5S14633   1.584   5.981   7.015  0.4708  1.6481 -1.4854
  135OSM    C6S14634   1.418   6.015   7.153 -0.2303  0.5065  0.0574
  135OSM    H6S14635   1.461   5.927   7.204  2.4686  1.5967 -0.2725
  135OSM    H6T14636   1.309   5.997   7.141  0.0016 -0.6730 -0.3012
  135OSM    C7S14637   1.438   6.142   7.235  0.1348 -0.4027  0.2422
  135OSM    H7S14638   1.390   6.228   7.184 -0.6255 -1.0995 -0.2211
  135OSM    H7T14639   1.548   6.158   7.247  0.2284  0.4293 -1.6138
  135OSM    C8S14640   1.385   6.142   7.376 -0.1739 -0.3213 -0.0253
  135OSM    H8S14641   1.277   6.164   7.366  0.4355  2.1737 -1.4431
  135OSM    H8T14642   1.424   6.231   7.429  2.0969 -1.9099  1.0619
  135OSM    C9S14643   1.416   6.015   7.457  0.5375 -0.7004  0.2917
  135OSM    H9S14644   1.511   5.981   7.412  0.4741 -0.8344  0.2578
  135OSM    H9T14645   1.343   5.931   7.449 -0.5099  0.5202 -4.2581
  135OSM   C10S14646   1.454   6.041   7.602 -0.1691  1.2048  0.0717
  135OSM   H10S14647   1.530   6.121   7.601  2.0459 -0.8504  0.1886
  135OSM   H10T14648   1.494   5.947   7.646 -0.2381  0.4802 -1.3548
  135OSM   C11S14649   1.330   6.071   7.689 -1.1301 -0.0302 -0.8620
  135OSM   H11S14650   1.256   5.990   7.674 -1.4599  0.0492  0.2856
  135OSM   H11T14651   1.286   6.168   7.656  0.0534  0.3714 -1.2856
  135OSM   C12S14652   1.354   6.106   7.837  0.3085 -0.3377 -0.5838
  135OSM   H12S14653   1.421   6.191   7.862  0.5154 -0.3874 -0.9571
  135OSM   H12T14654   1.402   6.020   7.889  1.5882  1.5555  1.4488
  135OSM   C13S14655   1.212   6.124   7.899 -1.0200  0.0528 -0.2338
  135OSM   H13S14656   1.168   6.023   7.913 -0.1417 -0.3471 -0.2886
  135OSM   H13T14657   1.152   6.188   7.830  0.1772  1.7747  0.2966
  135OSM   C14S14658   1.221   6.199   8.039  0.3770  0.0055 -0.3751
  135OSM   H14S14659   1.308   6.154   8.091  0.8248 -2.7699 -3.3595
  135OSM   H14T14660   1.126   6.193   8.097  1.0153  1.3920  0.8316
  135OSM   C15S14661   1.258   6.348   8.034  0.1331  0.0907  0.5065
  135OSM   H15S14662   1.163   6.396   8.002  0.7735  2.1467  1.6593
  135OSM   H15T14663   1.331   6.366   7.952  0.9305 -2.1000  0.7057
  135OSM   C16S14664   1.329   6.404   8.154  0.5550  0.3917  0.1503
  135OSM   H16S14665   1.426   6.354   8.176  0.4524  0.4566  0.7729
  135OSM   H16T14666   1.258   6.387   8.238  0.7934  0.1897  0.3122
  135OSM   C17S14667   1.350   6.550   8.147 -0.7564  0.1305 -0.6398
  135OSM   H17S14668   1.256   6.604   8.121  0.5072  1.6634 -2.0905
  135OSM   H17T14669   1.411   6.570   8.057 -1.1033  1.0998 -0.6692
  135OSM   C18S14670   1.395   6.608   8.286  0.0315  0.1612  0.0778
  135OSM   H18S14671   1.488   6.556   8.317  0.3004 -0.5740 -1.9144
  135OSM   H18T14672   1.321   6.573   8.361  0.1648  0.7354  0.4912
  135OSM   H18U14673   1.411   6.718   8.284  0.9244  0.0394  0.0834
  135OSM    C1F14674   1.659   6.409   6.863 -0.3088  0.0728 -0.3948
  135OSM     OF14675   1.583   6.498   6.825 -0.2840  0.3536 -0.6337
  135OSM    C2F14676   1.782   6.440   6.948 -0.0392 -0.1083 -0.0108
  135OSM    H2F14677   1.859   6.494   6.888  0.6303 -0.0676  0.8775
  135OSM    H2G14678   1.827   6.346   6.987  0.3122  0.7834  1.7777
  135OSM    C3F14679   1.737   6.519   7.069 -0.0747  0.8466  0.4007
  135OSM    H3F14680   1.685   6.616   7.054  2.2780  1.9061 -1.0689
  135OSM    H3G14681   1.833   6.550   7.114  1.3073  0.6911 -2.3272
  135OSM    C4F14682   1.666   6.426   7.171  0.3037 -0.2076 -0.0879
  135OSM    H4F14683   1.736   6.351   7.214  0.5733  0.0782 -0.0267
  135OSM    H4G14684   1.584   6.371   7.121 -0.3320  1.4244 -0.8951
  135OSM    C5F14685   1.592   6.488   7.288 -0.3357 -0.0038 -0.0456
  135OSM    H5F14686   1.502   6.425   7.303  0.2021 -0.4904  1.3267
  135OSM    H5G14687   1.556   6.590   7.264  0.9148  0.8220  1.4841
  135OSM    C6F14688   1.681   6.472   7.416 -0.4401 -0.0935  0.0430
  135OSM    H6F14689   1.772   6.531   7.390 -1.3386  1.2305 -0.1606
  135OSM    H6G14690   1.700   6.364   7.433  1.3247 -0.0686 -1.5347
  135OSM    C7F14691   1.610   6.538   7.534  0.2329 -0.5980 -0.2205
  135OSM    H7F14692   1.518   6.478   7.551  0.0439 -0.9951 -2.4168
  135OSM    H7G14693   1.574   6.641   7.513 -1.5106 -1.0464  0.4544
  135OSM    C8F14694   1.693   6.541   7.663  0.4414 -0.7125  0.4786
  135OSM    H8F14695   1.759   6.452   7.668  2.1650  0.3346 -2.5517
  135OSM    H8G14696   1.620   6.539   7.747 -0.0728  0.6347  0.0711
  135OSM    C9F14697   1.782   6.663   7.666  0.1090 -0.5662  0.2285
  135OSM    H9F14698   1.824   6.701   7.572  2.7944  0.2301  1.7056
  135OSM   C10F14699   1.822   6.719   7.786 -0.8507 -0.7303 -0.0335
  135OSM   H10F14700   1.893   6.802   7.778 -0.4867 -1.1166 -0.9111
  135OSM   C11F14701   1.790   6.668   7.921  0.0769  0.2052  0.6285
  135OSM   H11F14702   1.818   6.560   7.928 -1.4960 -0.3152 -0.8294
  135OSM   H11G14703   1.680   6.677   7.935 -0.3022 -1.7666 -0.8303
  135OSM   C12F14704   1.871   6.738   8.032 -0.5430 -0.0268  0.0788
  135OSM   H12F14705   1.852   6.847   8.017 -1.5450 -0.3801 -1.3220
  135OSM   H12G14706   1.979   6.717   8.023 -0.0936  0.5599  3.3688
  135OSM   C13F14707   1.822   6.693   8.170  1.0509 -0.2003  0.1134
  135OSM   H13F14708   1.815   6.582   8.180 -2.6194  0.0821  1.7432
  135OSM   H13G14709   1.715   6.721   8.179  1.1116  0.4690 -1.1391
  135OSM   C14F14710   1.903   6.758   8.287  0.4835  0.9441  0.2833
  135OSM   H14F14711   1.912   6.866   8.262  1.7686  0.5331 -1.0906
  135OSM   H14G14712   2.006   6.718   8.286 -0.2786 -1.1048  0.8064
  135OSM   C15F14713   1.827   6.740   8.427 -0.2870 -0.2485  0.8822
  135OSM   H15F14714   1.821   6.631   8.449  0.3977 -0.8143 -1.6431
  135OSM   H15G14715   1.724   6.781   8.436 -0.5957 -0.8872  0.3120
  135OSM   C16F14716   1.905   6.804   8.545 -0.2805  0.5876 -0.0528
  135OSM   H16F14717   1.898   6.915   8.533 -3.0244  0.5630  0.9123
  135OSM   H16G14718   2.012   6.778   8.539 -0.0203  1.8848 -1.3572
  135OSM   C17F14719   1.847   6.765   8.683  0.2012 -0.0375  0.0513
  135OSM   H17F14720   1.897   6.829   8.759 -0.8265 -0.1894  0.8670
  135OSM   H17G14721   1.869   6.659   8.709  0.5535 -0.2425 -1.0420
  135OSM   C18F14722   1.703   6.792   8.699  0.5088 -0.4118 -0.1111
  135OSM   H18F14723   1.680   6.766   8.805  0.7305  1.6579  0.4525
  135OSM   H18G14724   1.632   6.737   8.633 -0.1854  3.3248 -2.6594
  135OSM   H18H14725   1.665   6.896   8.690 -0.4950 -0.7608 -0.0349
  136OSM      N14726   6.050   1.200   5.906 -0.0544 -0.1194 -0.4714
  136OSM    C1514727   5.905   1.158   5.931  0.5933  1.1189 -0.1581
  136OSM   H15A14728   5.893   1.058   5.970  2.5420  0.7629 -0.4083
  136OSM   H15B14729   5.845   1.174   5.842  0.7276  0.2020 -0.4184
  136OSM   H15C14730   5.856   1.218   6.006 -1.1803 -2.4803  1.6899
  136OSM    C1414731   6.120   1.122   5.797 -0.1907 -0.7294 -0.4534
  136OSM   H14A14732   6.223   1.152   5.797 -0.2870 -0.3402  1.4605
  136OSM   H14B14733   6.082   1.144   5.698 -1.5666 -0.6631  0.0731
  136OSM   H14C14734   6.109   1.017   5.821  1.8115 -0.3123  2.6178
  136OSM    C1314735   6.057   1.346   5.882  0.1619 -0.0543 -0.3399
  136OSM   H13A14736   5.979   1.372   5.812  0.0018 -0.9068 -0.4813
  136OSM   H13B14737   6.157   1.363   5.846  1.0636 -0.0318  2.1106
  136OSM   H13C14738   6.043   1.401   5.974  2.1674  0.5994 -0.4091
  136OSM    C1214739   6.126   1.171   6.041  0.0363  0.7183  0.2121
  136OSM   H12A14740   6.081   1.242   6.108 -0.2688 -1.9158  2.8745
  136OSM   H12B14741   6.233   1.176   6.026 -0.2733 -2.0768 -3.8681
  136OSM    C1114742   6.101   1.030   6.109 -0.1097 -0.5470  0.1505
  136OSM   H11A14743   5.991   1.020   6.124  0.0445 -3.3727 -0.3989
  136OSM   H11B14744   6.142   1.043   6.211 -0.4750  1.5742  0.0528
  136OSM      P14745   6.328   0.907   6.052  0.4950 -0.1944 -0.3532
  136OSM    O1314746   6.369   0.774   5.994  0.1480 -0.0400 -0.2523
  136OSM    O1414747   6.393   1.024   5.996 -0.0394 -0.4125  0.4567
  136OSM    O1114748   6.339   0.904   6.205 -0.3315  0.5894 -0.5555
  136OSM    O1214749   6.166   0.921   6.038 -0.8650  0.0617  0.1913
  136OSM    C1S14750   6.325   0.781   6.274 -0.2836 -0.6694  0.1220
  136OSM    H1S14751   6.379   0.702   6.218 -0.0253  0.0035 -0.5807
  136OSM    H1T14752   6.218   0.758   6.295 -0.6644 -0.9682 -2.0366
  136OSM     NF14753   6.420   0.656   6.469  0.4696 -0.4642 -0.0463
  136OSM    HNF14754   6.359   0.613   6.535  1.1727 -3.5680 -1.3253
  136OSM    C2S14755   6.390   0.791   6.415  0.5185  0.2040  0.2414
  136OSM    H2S14756   6.486   0.847   6.405  0.9685 -0.9105 -1.9620
  136OSM    C3S14757   6.306   0.878   6.507 -0.1865 -0.1426 -0.5306
  136OSM    H3S14758   6.202   0.840   6.516 -0.4081  0.9282  2.0385
  136OSM     O314759   6.292   1.011   6.448 -0.4256  0.0661  0.8800
  136OSM    HO314760   6.294   0.999   6.353 -0.3148  1.9956  0.6248
  136OSM    C4S14761   6.364   0.892   6.641  0.1715 -0.0082 -0.5991
  136OSM    H4S14762   6.327   0.806   6.699  0.5051 -0.0085 -0.3844
  136OSM    C5S14763   6.428   0.991   6.696 -0.1921 -0.0173  0.0470
  136OSM    H5S14764   6.455   1.085   6.646  1.0729  0.5605  1.7460
  136OSM    C6S14765   6.470   0.993   6.836  0.8420 -0.1954  0.6220
  136OSM    H6S14766   6.383   1.016   6.901 -0.2619  0.3203 -1.0133
  136OSM    H6T14767   6.551   1.068   6.835  0.2945  0.3872 -0.4068
  136OSM    C7S14768   6.529   0.859   6.883  0.3169 -0.0865  0.0422
  136OSM    H7S14769   6.618   0.831   6.823  0.8338  2.4250 -0.3844
  136OSM    H7T14770   6.453   0.777   6.877 -1.5203  1.4330  1.8460
  136OSM    C8S14771   6.595   0.864   7.026 -0.3937  0.0994  0.1836
  136OSM    H8S14772   6.679   0.937   7.025 -1.5040  1.4982  2.8875
  136OSM    H8T14773   6.638   0.764   7.047  0.3245  0.7879  2.1468
  136OSM    C9S14774   6.497   0.912   7.139  0.1764  0.1010 -0.7019
  136OSM    H9S14775   6.406   0.847   7.137 -0.4560  0.9924 -1.3054
  136OSM    H9T14776   6.480   1.014   7.100  1.0920  0.3234 -0.5107
  136OSM   C10S14777   6.572   0.940   7.261 -0.0441 -0.4092 -1.0530
  136OSM   H10S14778   6.645   1.023   7.261 -0.7488  0.2324 -2.1069
  136OSM   H10T14779   6.633   0.847   7.265  1.4200  0.4541 -2.6072
  136OSM   C11S14780   6.491   0.946   7.390  0.2163 -0.5959  0.2564
  136OSM   H11S14781   6.546   0.906   7.478  0.5825 -0.8961 -0.1041
  136OSM   H11T14782   6.403   0.878   7.385  1.0046 -1.6180 -0.1682
  136OSM   C12S14783   6.429   1.085   7.411  0.3305 -0.0503  0.1892
  136OSM   H12S14784   6.373   1.117   7.321  2.8998  2.7912 -0.4986
  136OSM   H12T14785   6.508   1.163   7.417 -0.0169  0.5451 -2.3997
  136OSM   C13S14786   6.346   1.082   7.538  0.6148  0.2521  0.6477
  136OSM   H13S14787   6.393   1.021   7.619  1.2085 -0.8905 -0.5419
  136OSM   H13T14788   6.256   1.021   7.515  0.4110  1.3072 -1.3915
  136OSM   C14S14789   6.294   1.219   7.601 -0.1394  0.0801 -0.1389
  136OSM   H14S14790   6.254   1.276   7.515  0.4870 -0.7882 -1.0080
  136OSM   H14T14791   6.382   1.275   7.639  0.8418 -0.9306 -0.8859
  136OSM   C15S14792   6.177   1.209   7.700 -0.3214 -0.9633  0.0492
  136OSM   H15S14793   6.208   1.128   7.770 -0.3159 -0.6940  0.3588
  136OSM   H15T14794   6.098   1.170   7.633 -0.6479  1.0717 -0.7834
  136OSM   C16S14795   6.151   1.341   7.762 -0.0700 -0.0330  0.7961
  136OSM   H16S14796   6.146   1.425   7.690  0.6972 -0.3644  0.3446
  136OSM   H16T14797   6.241   1.354   7.827 -0.4579  1.3450  1.0789
  136OSM   C17S14798   6.030   1.342   7.855 -0.2885 -0.2257  0.3996
  136OSM   H17S14799   6.059   1.269   7.934 -1.8357  0.6923  1.8458
  136OSM   H17T14800   5.944   1.300   7.798 -0.6189  0.4156  0.4331
  136OSM   C18S14801   5.989   1.478   7.914 -0.2431  0.3067  0.0305
  136OSM   H18S14802   5.971   1.548   7.830  1.4697  1.3843  0.5146
  136OSM   H18T14803   6.084   1.515   7.960  0.6113 -1.7602 -0.0017
  136OSM   H18U14804   5.909   1.466   7.990 -0.2864 -0.1142 -0.0821
  136OSM    C1F14805   6.513   0.579   6.417 -0.0297  0.4472 -0.4745
  136OSM     OF14806   6.586   0.617   6.326 -0.5481  0.2791  0.2921
  136OSM    C2F14807   6.528   0.442   6.475 -0.0855  0.1495  0.1361
  136OSM    H2F14808   6.514   0.387   6.380  0.5310  0.8236 -0.3460
  136OSM    H2G14809   6.447   0.411   6.546 -0.6954  0.7979 -0.2702
  136OSM    C3F14810   6.669   0.421   6.532  0.1248  0.6834  0.1076
  136OSM    H3F14811   6.743   0.440   6.452  0.4042 -1.1568 -0.0904
  136OSM    H3G14812   6.693   0.315   6.554  1.5543  1.4305  2.4162
  136OSM    C4F14813   6.695   0.502   6.658  0.5040  0.5627 -0.5655
  136OSM    H4F14814   6.694   0.613   6.651  1.3778  0.6771  0.8870
  136OSM    H4G14815   6.795   0.469   6.693 -0.5935 -1.8603  0.3267
  136OSM    C5F14816   6.594   0.458   6.768 -0.4545 -0.3117  0.3043
  136OSM    H5F14817   6.599   0.348   6.750 -0.5161 -0.0954 -1.1179
  136OSM    H5G14818   6.488   0.489   6.756 -0.9787 -0.9054  3.1231
  136OSM    C6F14819   6.638   0.489   6.910  0.0548 -0.0654 -0.3380
  136OSM    H6F14820   6.619   0.594   6.940  0.5869 -0.1179  0.1949
  136OSM    H6G14821   6.747   0.477   6.925  0.1502 -0.7708 -1.5183
  136OSM    C7F14822   6.557   0.404   7.007  0.1663  0.1851 -0.0002
  136OSM    H7F14823   6.575   0.295   6.995 -3.4214 -0.6263  1.4387
  136OSM    H7G14824   6.453   0.417   6.971  0.6353  0.0638 -1.4743
  136OSM    C8F14825   6.580   0.429   7.156 -0.4256  0.2613 -0.5518
  136OSM    H8F14826   6.689   0.438   7.176 -0.4860  0.0694 -0.1187
  136OSM    H8G14827   6.558   0.337   7.214  1.2018 -0.8454 -1.6253
  136OSM    C9F14828   6.529   0.546   7.231  0.1545 -0.3962  0.3569
  136OSM    H9F14829   6.533   0.644   7.182 -1.6925  0.0789  1.0877
  136OSM   C10F14830   6.480   0.545   7.361 -0.6969 -0.6661  0.0321
  136OSM   H10F14831   6.426   0.634   7.395  0.8647  1.1147 -1.9589
  136OSM   C11F14832   6.472   0.421   7.449  0.5899 -0.7639  0.0281
  136OSM   H11F14833   6.516   0.450   7.547 -2.2200  0.4983  0.9828
  136OSM   H11G14834   6.526   0.333   7.407  1.6167 -0.4740  0.7189
  136OSM   C12F14835   6.322   0.382   7.484  0.2989 -0.1598  0.3291
  136OSM   H12F14836   6.284   0.326   7.396  1.1596 -1.4920  0.8011
  136OSM   H12G14837   6.264   0.469   7.522  1.7586  1.3493 -0.8038
  136OSM   C13F14838   6.314   0.264   7.591 -0.6629  0.0432  0.3452
  136OSM   H13F14839   6.374   0.187   7.537 -1.6163  1.1321 -2.3362
  136OSM   H13G14840   6.209   0.228   7.597 -0.4248 -0.2294  3.1189
  136OSM   C14F14841   6.357   0.304   7.734 -0.7358 -0.3930 -0.1300
  136OSM   H14F14842   6.444   0.370   7.754 -2.5698  2.1369 -0.2676
  136OSM   H14G14843   6.381   0.207   7.783 -2.3700 -1.5774 -1.6144
  136OSM   C15F14844   6.254   0.390   7.814 -0.5405  1.2238 -0.0812
  136OSM   H15F14845   6.153   0.344   7.807  0.2583 -0.6194  0.2354
  136OSM   H15G14846   6.246   0.477   7.746  0.7466 -0.1533 -2.0422
  136OSM   C16F14847   6.303   0.434   7.953  0.4121 -0.5762  0.0735
  136OSM   H16F14848   6.227   0.505   7.992  0.8244  1.4285 -2.5768
  136OSM   H16G14849   6.391   0.501   7.937 -1.7081  2.7663  1.8039
  136OSM   C17F14850   6.331   0.339   8.065  0.0767 -0.8287 -0.2315
  136OSM   H17F14851   6.354   0.388   8.162 -3.8783  1.6728 -0.4558
  136OSM   H17G14852   6.421   0.287   8.027  0.5176 -0.2032 -0.0635
  136OSM   C18F14853   6.223   0.235   8.097 -0.5150  0.1510 -0.0417
  136OSM   H18F14854   6.124   0.286   8.096  0.5418  2.2666  0.4411
  136OSM   H18G14855   6.244   0.169   8.184  0.8023 -0.8709 -1.1115
  136OSM   H18H14856   6.214   0.165   8.011  0.3581  0.4170 -0.3466
  137OSM      N14857   2.265   5.140   6.274 -1.1493 -0.1959  1.2385
  137OSM    C1514858   2.339   5.183   6.150  0.3416 -0.2019 -0.3373
  137OSM   H15A14859   2.377   5.284   6.160 -0.0755 -0.1958  1.4361
  137OSM   H15B14860   2.281   5.182   6.059  0.6193  1.0538 -0.5394
  137OSM   H15C14861   2.426   5.121   6.135  0.6948 -0.2076  1.5624
  137OSM    C1414862   2.128   5.189   6.248 -0.3815 -0.3954  0.1779
  137OSM   H14A14863   2.077   5.132   6.172 -1.5842 -1.0651  1.4532
  137OSM   H14B14864   2.137   5.293   6.219  1.9603 -0.6298  0.0026
  137OSM   H14C14865   2.065   5.183   6.336 -1.4057 -1.4728 -0.6127
  137OSM    C1314866   2.258   4.989   6.282 -0.1932 -0.4335 -0.0510
  137OSM   H13A14867   2.222   4.947   6.189  1.0033 -1.0982 -0.2211
  137OSM   H13B14868   2.178   4.966   6.351  1.3434 -1.4533  1.4192
  137OSM   H13C14869   2.347   4.939   6.318  0.5718  0.4465 -0.7064
  137OSM    C1214870   2.322   5.197   6.394 -0.1763 -0.0995  0.2911
  137OSM   H12A14871   2.250   5.190   6.474 -0.3792  4.1351  0.5892
  137OSM   H12B14872   2.322   5.301   6.364 -1.0372 -0.6217 -1.6122
  137OSM    C1114873   2.457   5.145   6.444  0.0238  0.9690 -0.1812
  137OSM   H11A14874   2.447   5.038   6.472  0.4561  1.0938  0.4839
  137OSM   H11B14875   2.486   5.199   6.537  0.7764  2.3658 -1.2088
  137OSM      P14876   2.670   5.056   6.296  0.6187  0.0493 -0.3504
  137OSM    O1314877   2.608   4.924   6.283 -0.0940  0.4436 -0.3681
  137OSM    O1414878   2.738   5.102   6.170  0.2213 -0.3506  0.3999
  137OSM    O1114879   2.782   5.046   6.410  0.5063 -0.4782 -0.7098
  137OSM    O1214880   2.558   5.161   6.343 -0.1668 -0.1852  0.2597
  137OSM    C1S14881   2.781   5.139   6.521  0.5561  0.7785 -0.3501
  137OSM    H1S14882   2.739   5.241   6.503 -0.4646  0.3465 -0.4200
  137OSM    H1T14883   2.888   5.157   6.544 -0.1060  1.3615  2.4566
  137OSM     NF14884   2.783   5.164   6.769  0.9943  0.2029  0.2647
  137OSM    HNF14885   2.848   5.127   6.835  0.5460 -1.0604  0.0197
  137OSM    C2S14886   2.730   5.083   6.659  1.0605  0.1915  0.3065
  137OSM    H2S14887   2.621   5.093   6.672  1.0141  1.3805 -0.9133
  137OSM    C3S14888   2.769   4.929   6.669 -0.1922  0.1912 -0.9433
  137OSM    H3S14889   2.876   4.911   6.646 -0.1408  0.2598 -0.7595
  137OSM     O314890   2.702   4.842   6.578  0.5057 -0.3591 -0.1696
  137OSM    HO314891   2.647   4.901   6.526 -2.1139 -1.1713  1.5826
  137OSM    C4S14892   2.741   4.882   6.812  0.2371 -0.5686 -0.0906
  137OSM    H4S14893   2.808   4.923   6.889 -1.4846  2.1380  0.0333
  137OSM    C5S14894   2.654   4.783   6.858 -0.9901 -0.3010 -0.4296
  137OSM    H5S14895   2.617   4.718   6.778 -2.5931 -0.3185  0.3169
  137OSM    C6S14896   2.628   4.731   6.992 -0.5124 -0.2867 -0.8606
  137OSM    H6S14897   2.646   4.622   6.988  2.1570  0.0321  1.1068
  137OSM    H6T14898   2.521   4.744   7.018 -0.0521 -1.7239  1.8891
  137OSM    C7S14899   2.711   4.775   7.112  0.0666  0.1405 -0.4264
  137OSM    H7S14900   2.817   4.762   7.080  0.3935 -1.0014  1.0371
  137OSM    H7T14901   2.706   4.700   7.194 -1.4575  1.4459  0.6922
  137OSM    C8S14902   2.704   4.914   7.166 -0.7131 -0.4158  0.1202
  137OSM    H8S14903   2.605   4.921   7.217 -1.2847  0.8612 -1.1106
  137OSM    H8T14904   2.706   4.989   7.084 -0.0642  2.3495  2.6056
  137OSM    C9S14905   2.816   4.953   7.266  0.8470 -0.3449 -0.0485
  137OSM    H9S14906   2.795   5.053   7.309  0.2818 -0.3550 -0.2952
  137OSM    H9T14907   2.918   4.959   7.222  0.5323 -2.2155 -1.0467
  137OSM   C10S14908   2.822   4.862   7.388 -0.0569 -0.2619 -0.0699
  137OSM   H10S14909   2.914   4.894   7.440 -0.0984 -0.5861  0.2113
  137OSM   H10T14910   2.835   4.756   7.356 -2.4679 -0.3683 -0.7995
  137OSM   C11S14911   2.707   4.883   7.484  0.7663  0.2663 -0.5448
  137OSM   H11S14912   2.615   4.857   7.429 -0.0029  1.2174  0.2657
  137OSM   H11T14913   2.710   4.991   7.510 -2.4874  0.3252 -0.2714
  137OSM   C12S14914   2.701   4.795   7.606  0.6215 -0.6356 -0.9256
  137OSM   H12S14915   2.803   4.780   7.647 -0.0310 -3.9158 -0.4007
  137OSM   H12T14916   2.653   4.699   7.578 -1.0475 -0.4758  1.2480
  137OSM   C13S14917   2.619   4.868   7.708  0.6965 -0.4280  0.4727
  137OSM   H13S14918   2.521   4.894   7.663  0.8792  2.2989  1.5963
  137OSM   H13T14919   2.675   4.958   7.741  1.8055 -1.4631  1.4711
  137OSM   C14S14920   2.578   4.778   7.822  0.3897  0.8978 -0.0280
  137OSM   H14S14921   2.667   4.741   7.877 -0.4711  0.3602  1.0234
  137OSM   H14T14922   2.519   4.692   7.784  3.0037 -0.2829 -1.5696
  137OSM   C15S14923   2.486   4.862   7.916 -0.5466  0.0970  0.2668
  137OSM   H15S14924   2.404   4.904   7.853 -2.6192 -1.3864  1.9237
  137OSM   H15T14925   2.552   4.936   7.965  0.3166  1.0233 -2.1854
  137OSM   C16S14926   2.420   4.768   8.021  0.4840 -0.1046  0.1399
  137OSM   H16S14927   2.504   4.717   8.074  0.4893  0.3274  0.5593
  137OSM   H16T14928   2.352   4.692   7.978 -0.9918  1.5717 -0.5268
  137OSM   C17S14929   2.343   4.850   8.122  0.4080 -0.0299  0.4083
  137OSM   H17S14930   2.270   4.916   8.070  0.2185  0.6397  1.5146
  137OSM   H17T14931   2.414   4.925   8.165  0.8803  0.9342 -1.9625
  137OSM   C18S14932   2.272   4.770   8.228 -0.6176 -0.0384  0.0771
  137OSM   H18S14933   2.244   4.845   8.305 -0.3064 -0.1929  0.3414
  137OSM   H18T14934   2.338   4.697   8.279 -0.3657 -1.2360 -1.9356
  137OSM   H18U14935   2.179   4.728   8.185 -1.1892  1.6913 -0.4237
  137OSM    C1F14936   2.753   5.290   6.778 -0.6046 -0.6479 -0.2430
  137OSM     OF14937   2.675   5.341   6.696  0.2844  0.3070  0.8367
  137OSM    C2F14938   2.819   5.382   6.882 -0.1986 -0.0092 -0.0675
  137OSM    H2F14939   2.895   5.440   6.825 -1.5087  1.0214 -0.7844
  137OSM    H2G14940   2.861   5.320   6.964 -0.8325  0.1839  0.4027
  137OSM    C3F14941   2.721   5.480   6.941  0.5672 -0.3921 -0.8456
  137OSM    H3F14942   2.662   5.525   6.859  0.0356  0.6268  0.0925
  137OSM    H3G14943   2.773   5.565   6.991 -0.3601  0.2268 -0.9327
  137OSM    C4F14944   2.630   5.406   7.038  0.6504 -0.4814 -0.0111
  137OSM    H4F14945   2.673   5.312   7.077  1.1198  0.3629  1.5483
  137OSM    H4G14946   2.559   5.357   6.968 -1.4104  1.8476  0.3479
  137OSM    C5F14947   2.567   5.493   7.145 -0.0758 -0.7089 -0.3718
  137OSM    H5F14948   2.483   5.429   7.180  0.6418 -2.5708 -1.9495
  137OSM    H5G14949   2.521   5.584   7.101  1.3995  0.7055  0.9706
  137OSM    C6F14950   2.668   5.537   7.251  0.1690 -0.3573 -0.2426
  137OSM    H6F14951   2.741   5.612   7.214 -0.1193  0.4326  0.7771
  137OSM    H6G14952   2.731   5.452   7.287  0.6533 -0.0225 -0.2890
  137OSM    C7F14953   2.610   5.612   7.378  0.0615 -0.3428 -0.1257
  137OSM    H7F14954   2.528   5.542   7.407  0.2948 -0.7299 -0.3969
  137OSM    H7G14955   2.575   5.713   7.349 -0.6323  0.0123  1.8862
  137OSM    C8F14956   2.706   5.626   7.500  0.1395 -0.3731  0.7233
  137OSM    H8F14957   2.742   5.525   7.531  2.6467  0.2848  0.0912
  137OSM    H8G14958   2.641   5.677   7.574  0.8610 -1.4629  2.1582
  137OSM    C9F14959   2.826   5.717   7.482  0.1331  0.6763  0.3227
  137OSM    H9F14960   2.863   5.735   7.380 -0.7360 -0.2157 -0.1624
  137OSM   C10F14961   2.902   5.772   7.574 -0.3409 -0.0023  0.0029
  137OSM   H10F14962   2.991   5.831   7.547  0.2382 -1.5180 -1.4120
  137OSM   C11F14963   2.878   5.741   7.722  0.1430  0.1542 -0.3954
  137OSM   H11F14964   2.842   5.637   7.736 -1.4086  0.7066 -0.1392
  137OSM   H11G14965   2.825   5.823   7.776 -0.8571  0.2858 -1.5740
  137OSM   C12F14966   3.009   5.756   7.793  0.0005  0.1263 -0.2548
  137OSM   H12F14967   3.050   5.858   7.780 -0.6637  0.7503  2.3751
  137OSM   H12G14968   3.083   5.680   7.761  0.2707 -0.1101  0.9262
  137OSM   C13F14969   3.011   5.729   7.947  0.0476  0.2823 -0.0587
  137OSM   H13F14970   2.960   5.812   8.000 -0.6087 -0.8105  1.0619
  137OSM   H13G14971   3.117   5.725   7.979  0.7313  0.6147 -2.1884
  137OSM   C14F14972   2.948   5.589   7.969 -0.5097  0.4496 -0.4008
  137OSM   H14F14973   2.998   5.522   7.895 -0.6370  0.6921 -0.7062
  137OSM   H14G14974   2.843   5.569   7.938 -0.0320 -3.4142  0.1812
  137OSM   C15F14975   2.958   5.530   8.112 -0.9341 -0.1750  0.4191
  137OSM   H15F14976   3.066   5.508   8.128 -1.5943 -3.5115  0.6866
  137OSM   H15G14977   2.916   5.427   8.116  2.0337 -1.4358  1.2938
  137OSM   C16F14978   2.892   5.627   8.204 -0.4153 -0.1629 -0.2842
  137OSM   H16F14979   2.821   5.569   8.266 -1.6045 -0.4611 -1.9137
  137OSM   H16G14980   2.827   5.702   8.155  1.4057 -1.0096 -4.2703
  137OSM   C17F14981   2.996   5.703   8.290 -0.3181 -0.8323  0.1259
  137OSM   H17F14982   2.974   5.810   8.310  0.1078 -1.1910  2.6031
  137OSM   H17G14983   3.090   5.727   8.237 -0.2518 -2.2130 -0.4064
  137OSM   C18F14984   3.014   5.637   8.426 -0.4570 -0.1284  0.0063
  137OSM   H18F14985   2.913   5.648   8.472  0.2949 -0.6022  1.7975
  137OSM   H18G14986   3.083   5.701   8.484  1.3252  0.6805 -2.9069
  137OSM   H18H14987   3.048   5.532   8.421  1.7500  0.4749  1.8571
  138OSM      N14988   3.687   0.907   5.808 -0.1033  0.7097  0.3581
  138OSM    C1514989   3.675   0.896   5.654  0.5621  0.4333 -1.0264
  138OSM   H15A14990   3.739   0.969   5.606 -0.0733  1.1056 -0.8701
  138OSM   H15B14991   3.573   0.904   5.621  0.1377  1.7525  0.5290
  138OSM   H15C14992   3.690   0.790   5.639  0.3689  0.3643 -0.7357
  138OSM    C1414993   3.822   0.862   5.848  0.3635  0.1873 -0.3370
  138OSM   H14A14994   3.854   0.908   5.940 -1.8611 -0.2791  0.7082
  138OSM   H14B14995   3.892   0.904   5.777  0.0498  1.5329  0.1424
  138OSM   H14C14996   3.839   0.755   5.851  0.7402  0.2828  1.1656
  138OSM    C1314997   3.659   1.044   5.848  0.1120 -0.2136 -0.2857
  138OSM   H13A14998   3.562   1.086   5.828  0.5700 -0.1945 -2.6276
  138OSM   H13B14999   3.732   1.117   5.814  2.0778 -2.1282 -0.2988
  138OSM   H13C15000   3.671   1.054   5.955  0.3057  0.8726 -0.3973
  138OSM    C1215001   3.593   0.810   5.880  0.5588  0.3739  0.0479
  138OSM   H12A15002   3.495   0.852   5.859  0.6994 -0.2681 -2.0134
  138OSM   H12B15003   3.613   0.818   5.985  0.7196  0.1396  0.0343
  138OSM    C1115004   3.589   0.655   5.846  0.0433  0.1157  0.4900
  138OSM   H11A15005   3.574   0.645   5.736  2.2285 -1.3753  0.2729
  138OSM   H11B15006   3.495   0.613   5.888  0.4343 -0.4234  0.8407
  138OSM      P15007   3.710   0.524   6.030  0.5177 -0.1508 -0.1676
  138OSM    O1315008   3.609   0.420   6.044 -0.0363 -0.1009  0.3143
  138OSM    O1415009   3.846   0.470   6.045  0.5086  0.1580  0.8623
  138OSM    O1115010   3.666   0.645   6.118 -0.0353  0.1021  0.0241
  138OSM    O1215011   3.702   0.581   5.887 -0.1623  0.2149  0.1916
  138OSM    C1S15012   3.550   0.687   6.172  0.7405 -0.2203  0.7240
  138OSM    H1S15013   3.461   0.649   6.116  0.6456 -1.8764  1.9491
  138OSM    H1T15014   3.536   0.797   6.165  1.5665 -0.0957  1.0790
  138OSM     NF15015   3.412   0.716   6.367  0.6712 -0.3732 -0.2490
  138OSM    HNF15016   3.408   0.800   6.420  2.9064 -0.0146 -0.5948
  138OSM    C2S15017   3.539   0.661   6.330 -0.3212 -0.7437 -0.6135
  138OSM    H2S15018   3.539   0.550   6.341  0.3613 -0.4755  2.4859
  138OSM    C3S15019   3.670   0.705   6.409  0.5861 -0.2002  0.0920
  138OSM    H3S15020   3.678   0.815   6.407 -0.6297 -0.0812  0.8761
  138OSM     O315021   3.792   0.652   6.359  0.2155  0.2368 -0.5917
  138OSM    HO315022   3.775   0.636   6.266 -2.4574 -0.2289 -0.0482
  138OSM    C4S15023   3.658   0.658   6.553 -0.2341 -0.2723  0.0552
  138OSM    H4S15024   3.622   0.554   6.559  2.6298 -1.4873 -2.6445
  138OSM    C5S15025   3.681   0.724   6.666  0.2350 -0.1018 -0.4323
  138OSM    H5S15026   3.723   0.825   6.654  0.7685 -0.3932 -1.0221
  138OSM    C6S15027   3.670   0.664   6.804 -0.5323 -0.0698  0.3251
  138OSM    H6S15028   3.773   0.646   6.841 -0.3408 -0.7528 -0.5388
  138OSM    H6T15029   3.632   0.560   6.809  0.3050 -0.2972  2.2890
  138OSM    C7S15030   3.601   0.743   6.911  0.4898 -0.0572 -0.0278
  138OSM    H7S15031   3.652   0.837   6.943  1.2231  0.2926 -2.1069
  138OSM    H7T15032   3.601   0.674   6.998 -0.8424 -0.1962 -0.1252
  138OSM    C8S15033   3.460   0.785   6.874  0.2053  0.4112 -0.6661
  138OSM    H8S15034   3.395   0.703   6.836  0.1586  0.3859 -0.5313
  138OSM    H8T15035   3.472   0.844   6.781  1.1293  0.0420 -0.7780
  138OSM    C9S15036   3.375   0.870   6.975 -0.5711 -0.5495  0.2853
  138OSM    H9S15037   3.269   0.847   6.952 -0.7851  0.6192  0.0619
  138OSM    H9T15038   3.376   0.981   6.966  0.8140 -0.7370 -2.2433
  138OSM   C10S15039   3.405   0.835   7.126  0.2037 -0.4063 -0.2160
  138OSM   H10S15040   3.438   0.729   7.136  0.2950 -0.2771  0.9212
  138OSM   H10T15041   3.309   0.825   7.182 -0.5630 -0.7683 -1.5835
  138OSM   C11S15042   3.518   0.920   7.190  0.0553 -0.0554  0.3434
  138OSM   H11S15043   3.479   1.005   7.250 -0.0644 -0.2608  0.5545
  138OSM   H11T15044   3.592   0.956   7.114  1.2047  0.4772  1.6961
  138OSM   C12S15045   3.592   0.841   7.297  0.1189 -0.0113  0.4554
  138OSM   H12S15046   3.643   0.750   7.259  1.1438  0.6217  0.3001
  138OSM   H12T15047   3.519   0.806   7.373 -2.8870  0.8445 -1.9649
  138OSM   C13S15048   3.688   0.941   7.364 -0.5220  0.1950 -0.4488
  138OSM   H13S15049   3.639   1.039   7.378  2.7584  1.8805 -0.2947
  138OSM   H13T15050   3.763   0.958   7.284  0.5580  0.7123  0.6597
  138OSM   C14S15051   3.770   0.891   7.481 -0.4120  0.7473  0.0600
  138OSM   H14S15052   3.848   0.970   7.491 -0.0628  1.2517 -5.1738
  138OSM   H14T15053   3.822   0.795   7.464  0.2288  0.7720  1.7784
  138OSM   C15S15054   3.684   0.896   7.616 -0.1949 -0.1919  0.6877
  138OSM   H15S15055   3.590   0.836   7.605  0.0809 -0.3220 -1.1115
  138OSM   H15T15056   3.661   1.005   7.621  1.6400  0.2281  0.1346
  138OSM   C16S15057   3.755   0.845   7.738  0.2459 -0.0102  0.2001
  138OSM   H16S15058   3.861   0.819   7.716  0.7703  0.4600  2.1497
  138OSM   H16T15059   3.703   0.759   7.785  2.8075 -0.9158  1.4981
  138OSM   C17S15060   3.759   0.958   7.838 -0.0466  0.5198  0.2504
  138OSM   H17S15061   3.655   0.999   7.846 -0.6542 -1.0902  0.7403
  138OSM   H17T15062   3.821   1.043   7.802  1.4869 -0.2085  1.1624
  138OSM   C18S15063   3.827   0.925   7.970 -0.2837  0.5282  0.2448
  138OSM   H18S15064   3.790   0.971   8.064 -0.8311  0.1146  0.2303
  138OSM   H18T15065   3.932   0.958   7.986  0.4039 -1.5392  0.2233
  138OSM   H18U15066   3.830   0.814   7.971 -0.8817  0.5061 -0.1086
  138OSM    C1F15067   3.303   0.651   6.338  0.3567  0.5770 -0.0933
  138OSM     OF15068   3.307   0.551   6.267 -0.3379 -0.0172  0.2625
  138OSM    C2F15069   3.169   0.705   6.385  0.3404 -0.1266 -0.5256
  138OSM    H2F15070   3.096   0.714   6.302 -0.2647 -0.8880 -0.0788
  138OSM    H2G15071   3.186   0.807   6.427 -0.2644  1.0335 -2.9748
  138OSM    C3F15072   3.097   0.604   6.485  0.1097  0.5371  0.5016
  138OSM    H3F15073   3.073   0.513   6.426  0.4737 -0.4092  1.7975
  138OSM    H3G15074   2.999   0.645   6.517 -1.0091 -1.2085 -0.6078
  138OSM    C4F15075   3.180   0.558   6.611  0.4639  0.0145  0.5755
  138OSM    H4F15076   3.250   0.641   6.637 -0.0674  0.5782  0.2076
  138OSM    H4G15077   3.247   0.473   6.585  0.3506  0.2849 -0.6271
  138OSM    C5F15078   3.096   0.530   6.728  0.3078  0.0482 -0.4981
  138OSM    H5F15079   3.011   0.467   6.693  0.7015  0.3004 -1.9543
  138OSM    H5G15080   3.053   0.627   6.760  1.1897  0.2914 -0.0649
  138OSM    C6F15081   3.173   0.473   6.853 -0.4470 -0.0952  0.0059
  138OSM    H6F15082   3.248   0.551   6.877  0.1939 -0.8512  0.4935
  138OSM    H6G15083   3.234   0.384   6.823  1.0123  0.1863  2.0469
  138OSM    C7F15084   3.093   0.445   6.982  0.1430 -0.1449  0.2222
  138OSM    H7F15085   3.011   0.379   6.947  0.0735 -0.7786  1.5525
  138OSM    H7G15086   3.037   0.538   7.004 -0.8492 -0.7819  0.4414
  138OSM    C8F15087   3.167   0.403   7.109 -0.1876  0.0778  0.4994
  138OSM    H8F15088   3.237   0.320   7.084 -2.0162 -1.7089  1.1455
  138OSM    H8G15089   3.087   0.362   7.174  0.3329 -2.1869 -0.2286
  138OSM    C9F15090   3.242   0.520   7.167 -0.1664 -0.2147  0.0081
  138OSM    H9F15091   3.285   0.566   7.077 -0.8447 -2.3977 -1.4630
  138OSM   C10F15092   3.255   0.566   7.289  0.6645  0.4220  0.2965
  138OSM   H10F15093   3.320   0.654   7.303  0.5124  0.6230 -0.2497
  138OSM   C11F15094   3.202   0.507   7.418  0.0089  0.0548 -0.0392
  138OSM   H11F15095   3.139   0.416   7.402 -0.6431 -0.1325  3.2708
  138OSM   H11G15096   3.143   0.585   7.470  1.1131 -0.0045  1.3478
  138OSM   C12F15097   3.317   0.467   7.516  0.0972  0.3397 -0.3286
  138OSM   H12F15098   3.385   0.554   7.526 -1.4390  1.4861  0.1959
  138OSM   H12G15099   3.376   0.377   7.489  1.7925  1.5236 -0.6223
  138OSM   C13F15100   3.257   0.415   7.648 -0.4133 -0.0167 -0.6055
  138OSM   H13F15101   3.190   0.328   7.631  0.3314 -1.0719  1.6615
  138OSM   H13G15102   3.184   0.490   7.684  1.2127  0.3093  2.1113
  138OSM   C14F15103   3.360   0.387   7.755 -0.3172 -0.1002 -0.6259
  138OSM   H14F15104   3.435   0.318   7.710  1.8802  0.5170  2.0313
  138OSM   H14G15105   3.305   0.335   7.836  0.9751 -0.1351  0.2376
  138OSM   C15F15106   3.428   0.512   7.811 -0.4169  0.1521 -0.1892
  138OSM   H15F15107   3.351   0.592   7.820 -2.4633 -1.7975  0.1972
  138OSM   H15G15108   3.506   0.536   7.736  0.6080 -0.9330  0.5128
  138OSM   C16F15109   3.502   0.488   7.938  0.1925 -0.4579 -0.0784
  138OSM   H16F15110   3.534   0.382   7.926 -3.8346 -1.8205  0.5160
  138OSM   H16G15111   3.432   0.499   8.024 -1.6166 -1.4905 -1.3860
  138OSM   C17F15112   3.634   0.572   7.954  0.7267 -0.7686 -0.8392
  138OSM   H17F15113   3.606   0.679   7.961 -2.8242 -1.7824  1.5123
  138OSM   H17G15114   3.693   0.550   7.862 -1.6254 -1.4730 -2.2356
  138OSM   C18F15115   3.713   0.533   8.077  0.5182  0.3374  0.3460
  138OSM   H18F15116   3.659   0.532   8.175  0.5183 -2.1601  0.3455
  138OSM   H18G15117   3.797   0.603   8.093  1.4547 -0.2159 -1.9802
  138OSM   H18H15118   3.761   0.434   8.072 -1.0552 -0.4783  0.8997
  139OSM      N15119   2.302   1.599   6.219 -0.4400 -0.3898 -0.2508
  139OSM    C1515120   2.156   1.625   6.229  0.1025  0.3553 -0.6322
  139OSM   H15A15121   2.106   1.554   6.293  0.6515  0.5636  0.0365
  139OSM   H15B15122   2.106   1.616   6.134  1.8281  0.8468 -1.6086
  139OSM   H15C15123   2.142   1.727   6.260 -2.0986  0.1518 -0.9238
  139OSM    C1415124   2.318   1.453   6.211  0.1699  0.2394 -0.0816
  139OSM   H14A15125   2.267   1.408   6.127 -1.3326  0.2901  0.7740
  139OSM   H14B15126   2.276   1.409   6.300 -0.5683 -0.8031 -0.9371
  139OSM   H14C15127   2.420   1.420   6.214 -0.5212 -2.0198 -0.7889
  139OSM    C1315128   2.351   1.675   6.101 -0.0963  0.1390 -0.1263
  139OSM   H13A15129   2.459   1.667   6.097  0.0155  1.5224 -0.4104
  139OSM   H13B15130   2.336   1.782   6.109 -1.7438 -0.2254  2.1310
  139OSM   H13C15131   2.312   1.631   6.011 -0.6538 -0.3444  0.3520
  139OSM    C1215132   2.374   1.639   6.345  0.3477  0.5404 -0.3162
  139OSM   H12A15133   2.333   1.572   6.419 -0.3233 -0.3799 -1.5026
  139OSM   H12B15134   2.352   1.741   6.372  1.2626  0.1920  1.8475
  139OSM    C1115135   2.528   1.619   6.343 -0.4677 -0.4727 -0.7952
  139OSM   H11A15136   2.556   1.524   6.292  1.9252  0.7103 -1.7165
  139OSM   H11B15137   2.567   1.612   6.447 -1.6515  0.0547 -0.3034
  139OSM      P15138   2.750   1.716   6.234  0.2347  0.0379  0.2419
  139OSM    O1315139   2.766   1.616   6.121  0.2805  0.0828  0.1232
  139OSM    O1415140   2.797   1.851   6.212  0.0672 -0.0001 -0.1382
  139OSM    O1115141   2.825   1.647   6.351  0.2715  0.1902 -0.7954
  139OSM    O1215142   2.593   1.725   6.274 -0.5373  0.8205  0.1888
  139OSM    C1S15143   2.856   1.718   6.467 -0.6835 -0.4372 -0.6637
  139OSM    H1S15144   2.802   1.814   6.479  0.3818 -0.0047  0.9225
  139OSM    H1T15145   2.963   1.746   6.478  0.0221 -3.4612  0.6275
  139OSM     NF15146   2.855   1.697   6.725  0.4958 -0.0145 -0.3001
  139OSM    HNF15147   2.950   1.687   6.754  0.5053  0.7391 -0.0707
  139OSM    C2S15148   2.814   1.641   6.596 -0.3909 -0.7699 -0.3600
  139OSM    H2S15149   2.704   1.651   6.597 -0.5371 -1.5156 -3.1552
  139OSM    C3S15150   2.863   1.490   6.586  0.3437  0.1734 -0.0523
  139OSM    H3S15151   2.973   1.499   6.576 -0.0228  3.2885 -2.1070
  139OSM     O315152   2.819   1.413   6.466  0.0549 -0.7349 -0.2136
  139OSM    HO315153   2.820   1.481   6.398 -0.4272 -1.0421 -0.5332
  139OSM    C4S15154   2.844   1.411   6.717  0.4701  0.6978  0.5416
  139OSM    H4S15155   2.919   1.430   6.796  2.8789  0.4997 -1.6294
  139OSM    C5S15156   2.749   1.316   6.734  0.1143 -0.8131 -0.7779
  139OSM    H5S15157   2.680   1.296   6.651  1.5895  2.2313 -2.8539
  139OSM    C6S15158   2.718   1.239   6.858 -0.0507 -0.1621  0.5431
  139OSM    H6S15159   2.741   1.134   6.830 -0.3814 -0.0855 -0.0210
  139OSM    H6T15160   2.609   1.237   6.878  0.1910  2.7312  2.4382
  139OSM    C7S15161   2.783   1.287   6.992 -0.0330  0.2630  0.4394
  139OSM    H7S15162   2.751   1.392   7.007  0.3340  0.3907  0.3076
  139OSM    H7T15163   2.893   1.280   6.985 -0.0526 -0.3542  0.6664
  139OSM    C8S15164   2.743   1.202   7.109 -0.1398 -0.0341  0.5563
  139OSM    H8S15165   2.779   1.098   7.094 -2.4136 -0.8184  0.4507
  139OSM    H8T15166   2.634   1.208   7.126 -0.4555 -1.0275 -0.9829
  139OSM    C9S15167   2.799   1.259   7.244  0.4016 -0.4264  0.4816
  139OSM    H9S15168   2.790   1.369   7.256  0.1310 -0.5558  1.5723
  139OSM    H9T15169   2.908   1.241   7.247  0.2724 -1.3017 -0.2083
  139OSM   C10S15170   2.740   1.192   7.362 -0.9098  0.3388 -0.3572
  139OSM   H10S15171   2.742   1.082   7.346 -1.5147  0.3090 -0.2619
  139OSM   H10T15172   2.637   1.233   7.368 -1.8320 -1.8536 -0.8374
  139OSM   C11S15173   2.811   1.228   7.492  0.3861 -0.0031  0.3354
  139OSM   H11S15174   2.833   1.337   7.492 -0.8352  0.3167  4.4951
  139OSM   H11T15175   2.914   1.186   7.492  1.0145  1.5063 -1.3054
  139OSM   C12S15176   2.747   1.178   7.621  0.0536  0.9009 -0.4918
  139OSM   H12S15177   2.724   1.070   7.607  0.4392  0.9787 -1.7672
  139OSM   H12T15178   2.653   1.223   7.659 -0.4844  0.7139 -1.5851
  139OSM   C13S15179   2.837   1.187   7.741 -1.2928 -0.4341  0.0010
  139OSM   H13S15180   2.854   1.295   7.761  1.4606 -1.1053  1.5395
  139OSM   H13T15181   2.935   1.142   7.714 -0.9851 -0.1620  0.6442
  139OSM   C14S15182   2.776   1.121   7.867 -0.2867  0.1148  0.5658
  139OSM   H14S15183   2.760   1.015   7.840 -1.4897  0.3227  0.4461
  139OSM   H14T15184   2.679   1.171   7.885 -0.0959  0.3803  0.8606
  139OSM   C15S15185   2.860   1.133   7.994 -0.3044 -0.2220 -0.4970
  139OSM   H15S15186   2.851   1.230   8.046  0.7394  0.5237 -1.6687
  139OSM   H15T15187   2.965   1.110   7.966  0.1489  0.5355  0.5322
  139OSM   C16S15188   2.826   1.036   8.105 -0.5831  0.0069 -0.4894
  139OSM   H16S15189   2.787   0.943   8.059  0.9382  0.0004 -1.8115
  139OSM   H16T15190   2.730   1.067   8.153  0.4328  2.5269  0.0238
  139OSM   C17S15191   2.943   1.014   8.215  1.0296 -0.2444  0.8962
  139OSM   H17S15192   2.947   1.105   8.278  1.4968 -0.8754  1.7759
  139OSM   H17T15193   3.038   0.991   8.163 -1.0781 -1.1583 -2.7799
  139OSM   C18S15194   2.900   0.906   8.308 -0.0395  0.5067 -0.0962
  139OSM   H18S15195   2.982   0.865   8.370 -1.0877 -2.4107 -0.5873
  139OSM   H18T15196   2.864   0.816   8.253 -1.6706  2.0937 -1.7059
  139OSM   H18U15197   2.823   0.936   8.381  1.3442 -0.7861  1.9319
  139OSM    C1F15198   2.788   1.793   6.783  0.4614  0.4580  0.0045
  139OSM     OF15199   2.681   1.841   6.739 -0.1326 -0.3970  0.1629
  139OSM    C2F15200   2.845   1.842   6.908 -0.1826  0.3522 -0.4902
  139OSM    H2F15201   2.882   1.945   6.887  1.3317  0.7719  3.7245
  139OSM    H2G15202   2.939   1.788   6.930 -1.2604 -1.9721 -1.5037
  139OSM    C3F15203   2.750   1.845   7.032 -0.2657 -0.4104 -0.7023
  139OSM    H3F15204   2.663   1.908   7.004  0.0504  0.2338 -0.2463
  139OSM    H3G15205   2.795   1.896   7.120 -0.8859 -0.1758 -0.5198
  139OSM    C4F15206   2.693   1.709   7.078  1.2087 -0.1756  0.1539
  139OSM    H4F15207   2.706   1.654   6.982  4.8392  0.9423 -0.0583
  139OSM    H4G15208   2.588   1.740   7.096  1.0348 -1.1756  0.9119
  139OSM    C5F15209   2.762   1.636   7.193  0.4278 -0.4042  0.1926
  139OSM    H5F15210   2.869   1.616   7.169  0.7892  2.0864 -0.4801
  139OSM    H5G15211   2.718   1.535   7.207 -0.4508 -0.0073  0.2978
  139OSM    C6F15212   2.754   1.716   7.328  0.1512 -0.5145  0.1421
  139OSM    H6F15213   2.663   1.780   7.334  0.1634 -0.7043  2.8523
  139OSM    H6G15214   2.839   1.788   7.327 -0.3362  0.0682 -0.7768
  139OSM    C7F15215   2.757   1.623   7.444 -0.5664  0.0581 -0.1207
  139OSM    H7F15216   2.833   1.544   7.422 -0.9990 -0.4072  0.0580
  139OSM    H7G15217   2.655   1.580   7.436 -0.5245 -0.2957  1.1936
  139OSM    C8F15218   2.778   1.700   7.577 -0.9387 -0.4276  0.0138
  139OSM    H8F15219   2.698   1.772   7.605  1.2149  1.5496  1.2392
  139OSM    H8G15220   2.864   1.766   7.554 -1.3040 -0.2354 -0.8134
  139OSM    C9F15221   2.786   1.599   7.684 -0.4804 -0.0945 -0.4449
  139OSM    H9F15222   2.715   1.516   7.675 -1.1849  0.6096 -1.5978
  139OSM   C10F15223   2.851   1.612   7.798 -0.4099  0.4903 -0.2306
  139OSM   H10F15224   2.864   1.529   7.868 -0.5626 -0.5787 -1.4557
  139OSM   C11F15225   2.939   1.729   7.840  0.1076 -0.2465  0.8798
  139OSM   H11F15226   2.883   1.824   7.857  0.3518 -0.3220  2.2025
  139OSM   H11G15227   3.019   1.749   7.766  0.5768  1.1936  1.7323
  139OSM   C12F15228   3.014   1.702   7.978  0.3080 -0.1132  0.5979
  139OSM   H12F15229   3.083   1.787   7.994  0.4710 -0.1458  0.0746
  139OSM   H12G15230   3.081   1.614   7.964 -0.9220 -1.1708  1.2585
  139OSM   C13F15231   2.924   1.678   8.104 -0.1043  0.3980  0.1941
  139OSM   H13F15232   2.841   1.607   8.088 -1.2924  0.9007  3.6409
  139OSM   H13G15233   2.886   1.782   8.115  0.8721  0.6584  1.2971
  139OSM   C14F15234   3.019   1.632   8.212 -0.4775 -0.0134 -0.6653
  139OSM   H14F15235   3.107   1.700   8.211  1.1755 -2.0459  1.0891
  139OSM   H14G15236   3.071   1.536   8.190  1.2655  0.5777  0.6965
  139OSM   C15F15237   2.953   1.615   8.345 -0.5499  0.0168 -0.3778
  139OSM   H15F15238   2.887   1.528   8.322 -1.4660  0.6845 -0.2815
  139OSM   H15G15239   2.883   1.697   8.373  0.7367  0.6252  1.1400
  139OSM   C16F15240   3.053   1.579   8.460  0.5025  0.2382  0.1160
  139OSM   H16F15241   3.139   1.649   8.450  1.7142 -1.4617 -1.6993
  139OSM   H16G15242   3.088   1.474   8.457 -1.0939 -0.3575  1.6897
  139OSM   C17F15243   2.979   1.609   8.590 -0.7311 -0.4575 -0.2689
  139OSM   H17F15244   2.907   1.525   8.596 -3.1245  1.6601  1.7876
  139OSM   H17G15245   2.934   1.710   8.584 -1.1564 -0.6076  0.3964
  139OSM   C18F15246   3.066   1.592   8.721 -0.0395 -0.7203  0.1792
  139OSM   H18F15247   3.106   1.490   8.735  0.5002 -0.3065  1.7753
  139OSM   H18G15248   3.002   1.620   8.808 -0.6241  1.4988 -0.9248
  139OSM   H18H15249   3.143   1.672   8.714 -1.6715  0.9021  0.0711
  140OSM      N15250   1.918   4.126   6.358 -0.3634  0.4173  0.1607
  140OSM    C1515251   1.789   4.173   6.297 -0.0712  0.3563 -0.0915
  140OSM   H15A15252   1.752   4.100   6.226  1.0587 -0.7763  0.4756
  140OSM   H15B15253   1.796   4.266   6.242 -2.5284  0.9504  0.4993
  140OSM   H15C15254   1.713   4.183   6.373 -0.6718  0.7918 -0.7396
  140OSM    C1415255   2.015   4.103   6.246 -0.0774 -0.3111 -0.5415
  140OSM   H14A15256   2.113   4.094   6.291  1.4073 -0.6487 -3.7432
  140OSM   H14B15257   2.020   4.174   6.165  3.5729  0.7025  0.4731
  140OSM   H14C15258   1.988   4.013   6.193 -1.1589  0.4152 -1.2182
  140OSM    C1315259   1.975   4.242   6.444  0.0089 -0.3358  0.4050
  140OSM   H13A15260   2.069   4.217   6.491  1.0422  2.8682  0.1552
  140OSM   H13B15261   1.899   4.295   6.500 -0.9167  0.8889 -1.9317
  140OSM   H13C15262   2.018   4.310   6.372 -0.5826  1.1387  1.4070
  140OSM    C1215263   1.902   4.005   6.441 -0.3082 -0.3578 -0.6226
  140OSM   H12A15264   1.840   4.023   6.527  0.5805  0.5440 -0.1562
  140OSM   H12B15265   1.998   3.979   6.484 -0.4008  1.2393  0.6281
  140OSM    C1115266   1.838   3.879   6.375 -0.1910  0.6260  0.1774
  140OSM   H11A15267   1.748   3.916   6.322 -0.0238 -1.6100 -1.7679
  140OSM   H11B15268   1.802   3.804   6.449  3.3207  0.4644  1.8521
  140OSM      P15269   2.045   3.743   6.307  0.0719 -0.2882  0.0005
  140OSM    O1315270   2.086   3.675   6.182 -0.0362 -0.6818 -0.5999
  140OSM    O1415271   2.142   3.821   6.386  0.1127 -0.0513 -0.7209
  140OSM    O1115272   1.996   3.627   6.406  0.2198  0.4940  0.6663
  140OSM    O1215273   1.921   3.830   6.272 -0.1552  0.0903  0.5203
  140OSM    C1S15274   2.097   3.543   6.470 -0.1005 -0.3245  1.1745
  140OSM    H1S15275   2.193   3.541   6.416  0.0602 -0.8629  1.4830
  140OSM    H1T15276   2.055   3.440   6.472  3.3689 -1.8564 -0.9951
  140OSM     NF15277   2.232   3.520   6.677  0.6114 -0.2628  0.2702
  140OSM    HNF15278   2.224   3.444   6.741 -0.8479 -1.6145 -1.4656
  140OSM    C2S15279   2.117   3.584   6.614 -0.7520 -0.1520 -0.2040
  140OSM    H2S15280   2.135   3.693   6.613 -1.2715 -0.0599  0.2300
  140OSM    C3S15281   1.978   3.568   6.690 -0.4864 -0.8891  0.5585
  140OSM    H3S15282   1.938   3.465   6.700 -1.4096 -1.0408 -3.8765
  140OSM     O315283   1.866   3.643   6.629 -0.1457  0.2579  0.1557
  140OSM    HO315284   1.894   3.652   6.537 -1.2580  0.3364 -0.1828
  140OSM    C4S15285   1.996   3.616   6.831  0.2571 -0.5142  0.4634
  140OSM    H4S15286   1.988   3.724   6.847 -0.9125 -0.5705  0.3401
  140OSM    C5S15287   2.029   3.538   6.935 -0.1795 -1.0406  0.2420
  140OSM    H5S15288   2.025   3.431   6.912  0.5366 -0.6991 -1.5414
  140OSM    C6S15289   2.049   3.594   7.073  0.3916 -0.0642 -0.5392
  140OSM    H6S15290   2.076   3.701   7.064 -1.3051  0.5633  1.6223
  140OSM    H6T15291   2.139   3.539   7.108  0.0207  0.0805  0.6481
  140OSM    C7S15292   1.931   3.555   7.169 -0.4537 -0.8163  0.5271
  140OSM    H7S15293   1.898   3.449   7.175 -2.0464 -0.3171  0.7939
  140OSM    H7T15294   1.847   3.622   7.142  0.0795 -1.1388 -2.0580
  140OSM    C8S15295   1.959   3.595   7.315 -0.3436  0.2890 -0.7576
  140OSM    H8S15296   1.960   3.706   7.323 -3.3928  0.3736 -0.7347
  140OSM    H8T15297   2.059   3.561   7.350  0.3895 -0.3761 -3.3996
  140OSM    C9S15298   1.858   3.528   7.418 -0.8755 -0.5238  0.4847
  140OSM    H9S15299   1.859   3.420   7.396  0.3504 -0.1385 -1.4963
  140OSM    H9T15300   1.753   3.560   7.399 -0.9231 -0.1277  1.3534
  140OSM   C10S15301   1.910   3.538   7.555  0.6777 -0.1482 -0.3868
  140OSM   H10S15302   1.932   3.638   7.598 -0.1171 -1.0788  2.2752
  140OSM   H10T15303   2.011   3.492   7.552  1.3057  1.2628 -1.6946
  140OSM   C11S15304   1.808   3.464   7.649  0.0551  0.5915  0.3812
  140OSM   H11S15305   1.794   3.355   7.637 -2.9337  0.8878  0.8483
  140OSM   H11T15306   1.707   3.501   7.624 -0.7310 -1.7885 -0.0499
  140OSM   C12S15307   1.829   3.503   7.801  0.5669  0.3584  0.3823
  140OSM   H12S15308   1.738   3.470   7.856  1.6102  0.3328  2.1401
  140OSM   H12T15309   1.824   3.614   7.798 -1.8827  0.2528 -0.5053
  140OSM   C13S15310   1.953   3.444   7.858  0.0703 -0.0521 -0.0394
  140OSM   H13S15311   2.028   3.481   7.785  1.4790 -0.9940  0.9073
  140OSM   H13T15312   1.945   3.333   7.858  1.0406 -0.1287 -0.6307
  140OSM   C14S15313   2.001   3.493   8.001  0.5050 -0.3167 -0.6476
  140OSM   H14S15314   2.010   3.603   8.006  0.0840 -0.3029 -0.1544
  140OSM   H14T15315   2.103   3.451   8.013  0.3613 -0.3394  0.4666
  140OSM   C15S15316   1.928   3.432   8.126 -0.5986 -0.4659  0.1734
  140OSM   H15S15317   1.905   3.326   8.104  0.2557 -0.2613 -1.8551
  140OSM   H15T15318   1.831   3.484   8.138  0.1467  0.6878  1.3252
  140OSM   C16S15319   2.017   3.426   8.252  0.0017 -0.2580 -0.3965
  140OSM   H16S15320   2.035   3.528   8.293  0.5654  0.5027 -2.4713
  140OSM   H16T15321   2.117   3.389   8.219  0.8254  1.8624 -0.3321
  140OSM   C17S15322   1.975   3.339   8.371  0.3304  0.0226 -0.1463
  140OSM   H17S15323   1.941   3.243   8.327 -1.5069  1.3324 -1.7013
  140OSM   H17T15324   1.883   3.383   8.417  0.5665  2.0521 -1.5636
  140OSM   C18S15325   2.080   3.316   8.481  0.4386 -0.6850 -0.5405
  140OSM   H18S15326   2.036   3.263   8.569 -1.6381  1.2233 -0.3828
  140OSM   H18T15327   2.126   3.409   8.519 -0.0412  0.1552 -1.9703
  140OSM   H18U15328   2.159   3.253   8.435 -0.1640  0.7184 -3.6114
  140OSM    C1F15329   2.346   3.576   6.656  0.8586 -0.4032  0.8972
  140OSM     OF15330   2.371   3.654   6.566  0.2415  0.2953  0.2868
  140OSM    C2F15331   2.458   3.531   6.745  0.1030 -0.7221  0.3000
  140OSM    H2F15332   2.531   3.613   6.764  1.6690 -2.5194  2.3397
  140OSM    H2G15333   2.517   3.454   6.690  3.6494  2.5877 -0.7577
  140OSM    C3F15334   2.421   3.479   6.886 -1.0101 -0.5576 -0.4727
  140OSM    H3F15335   2.382   3.375   6.891 -0.0144 -0.9222 -0.1487
  140OSM    H3G15336   2.349   3.532   6.952  2.1066  0.8254  1.9451
  140OSM    C4F15337   2.541   3.481   6.977  0.1884  0.8174  0.3730
  140OSM    H4F15338   2.582   3.583   6.962  2.5540 -0.0032  1.1079
  140OSM    H4G15339   2.603   3.401   6.931  1.9351  0.4512  3.2624
  140OSM    C5F15340   2.517   3.448   7.120 -0.0943  0.7103  0.3974
  140OSM    H5F15341   2.483   3.342   7.132  2.0845  0.0695  1.1031
  140OSM    H5G15342   2.440   3.522   7.152 -1.7991  0.0062 -1.8658
  140OSM    C6F15343   2.643   3.458   7.205 -0.2098 -0.3851  0.3417
  140OSM    H6F15344   2.716   3.535   7.170 -1.1816  0.4648  0.1722
  140OSM    H6G15345   2.687   3.357   7.192 -1.0504 -0.8146  0.8110
  140OSM    C7F15346   2.609   3.501   7.354  0.6208  0.2507 -0.5623
  140OSM    H7F15347   2.527   3.436   7.391  2.4380 -0.2997  2.7240
  140OSM    H7G15348   2.569   3.605   7.359 -0.5063 -0.2290  0.6638
  140OSM    C8F15349   2.732   3.465   7.449 -1.1722 -0.2108 -0.0538
  140OSM    H8F15350   2.701   3.519   7.541  1.6200  0.8364  0.3218
  140OSM    H8G15351   2.828   3.501   7.406 -0.7987 -2.3074 -1.0730
  140OSM    C9F15352   2.738   3.322   7.474  0.3782  0.5019  0.1148
  140OSM    H9F15353   2.764   3.252   7.394 -0.2116 -1.8646  1.9315
  140OSM   C10F15354   2.725   3.270   7.599 -0.1746  0.0758 -0.0568
  140OSM   H10F15355   2.721   3.161   7.611 -2.3309 -0.2844 -3.5466
  140OSM   C11F15356   2.710   3.335   7.732 -0.4736 -0.0081  0.3766
  140OSM   H11F15357   2.767   3.431   7.733 -0.8435  0.2059  1.7375
  140OSM   H11G15358   2.753   3.279   7.817 -2.1548 -0.6788  0.8116
  140OSM   C12F15359   2.557   3.352   7.774  0.4290  0.3279  0.0096
  140OSM   H12F15360   2.501   3.258   7.793 -0.3302  0.9377  0.7696
  140OSM   H12G15361   2.493   3.404   7.699  1.3757  0.0503 -1.0144
  140OSM   C13F15362   2.549   3.438   7.903  0.2368  0.6478  0.2217
  140OSM   H13F15363   2.444   3.455   7.934  0.6687  2.8886  0.6047
  140OSM   H13G15364   2.592   3.540   7.887  0.7626  0.5042  0.7064
  140OSM   C14F15365   2.641   3.394   8.030  0.4265  0.0539  0.0068
  140OSM   H14F15366   2.750   3.403   8.008  1.2458 -2.1172  2.8521
  140OSM   H14G15367   2.629   3.284   8.021  2.7879 -0.2321 -0.0291
  140OSM   C15F15368   2.595   3.447   8.165 -0.1431  0.2047  0.3387
  140OSM   H15F15369   2.638   3.547   8.184  1.1534  0.0582 -1.6809
  140OSM   H15G15370   2.646   3.384   8.241 -1.9668  1.1621  2.3846
  140OSM   C16F15371   2.443   3.450   8.201 -0.4641  0.5840  0.7559
  140OSM   H16F15372   2.407   3.347   8.179 -1.5426  0.9956  0.5956
  140OSM   H16G15373   2.386   3.523   8.140  0.4800  2.4449  2.0731
  140OSM   C17F15374   2.434   3.492   8.346 -0.1921 -0.1640 -0.1570
  140OSM   H17F15375   2.508   3.430   8.400 -1.6502 -1.4499  0.3975
  140OSM   H17G15376   2.335   3.464   8.388  0.6462 -0.7192  1.4719
  140OSM   C18F15377   2.442   3.642   8.359 -0.3471 -0.3982 -0.5177
  140OSM   H18F15378   2.451   3.675   8.465  0.3249 -0.2123 -0.6289
  140OSM   H18G15379   2.357   3.697   8.313  2.2967  2.5891 -2.1106
  140OSM   H18H15380   2.527   3.689   8.305  1.6601 -2.0277  1.1526
  141OSM      N15381   1.341   4.835   6.185 -0.7647  0.0202 -0.1164
  141OSM    C1515382   1.385   4.935   6.089 -0.2933  0.2523  0.3888
  141OSM   H15A15383   1.341   4.916   5.992  0.9455 -1.3637  0.1093
  141OSM   H15B15384   1.489   4.964   6.101 -0.0823 -1.0304  1.8221
  141OSM   H15C15385   1.348   5.033   6.113  0.6903  0.9629 -0.9477
  141OSM    C1415386   1.191   4.839   6.198 -0.3364 -0.3212 -0.3745
  141OSM   H14A15387   1.138   4.815   6.107 -1.2955  3.8302 -1.0217
  141OSM   H14B15388   1.152   4.934   6.233  0.5289 -0.2387  0.3657
  141OSM   H14C15389   1.159   4.765   6.269  0.7058 -0.5176 -0.1068
  141OSM    C1315390   1.372   4.702   6.140 -0.4485  0.3913  0.0124
  141OSM   H13A15391   1.478   4.687   6.130 -0.6885 -1.0686 -0.6263
  141OSM   H13B15392   1.331   4.682   6.041  0.3566 -1.3868  0.0125
  141OSM   H13C15393   1.340   4.629   6.213 -0.2225  0.5556  0.2738
  141OSM    C1215394   1.402   4.860   6.323  0.2037 -0.2125  0.3008
  141OSM   H12A15395   1.376   4.777   6.386 -0.0926 -1.0823 -0.9435
  141OSM   H12B15396   1.352   4.943   6.372  0.7745 -0.0497  0.6045
  141OSM    C1115397   1.551   4.884   6.348 -0.3311 -1.0516 -0.1209
  141OSM   H11A15398   1.612   4.803   6.302  2.6465  0.2732  1.3387
  141OSM   H11B15399   1.563   4.875   6.458 -1.9335  1.7161  0.3437
  141OSM      P15400   1.729   5.050   6.309 -0.1455 -0.1473  0.3054
  141OSM    O1315401   1.810   4.933   6.263  1.0404  0.2311 -1.0819
  141OSM    O1415402   1.758   5.182   6.259 -0.2769  0.5989  0.3254
  141OSM    O1115403   1.745   5.075   6.461 -0.4565 -0.3095  0.3530
  141OSM    O1215404   1.573   5.022   6.306  0.4753  0.0297  0.0521
  141OSM    C1S15405   1.835   4.982   6.530 -0.3474  0.2374 -0.1457
  141OSM    H1S15406   1.937   4.977   6.486  0.1087 -0.4202  0.9506
  141OSM    H1T15407   1.796   4.879   6.544  0.2519 -0.0543 -0.5938
  141OSM     NF15408   1.971   4.964   6.744 -0.0354 -0.4059 -0.2425
  141OSM    HNF15409   1.947   4.901   6.817 -0.6219 -0.6410 -0.6360
  141OSM    C2S15410   1.859   5.029   6.681  0.5099  0.6543 -0.2641
  141OSM    H2S15411   1.884   5.137   6.677  0.0568  0.7887  0.3706
  141OSM    C3S15412   1.731   5.004   6.767  0.3053 -0.1334 -0.4649
  141OSM    H3S15413   1.721   4.894   6.778 -0.5059 -0.1697 -1.5358
  141OSM     O315414   1.609   5.035   6.699 -1.2040  0.3539 -0.3026
  141OSM    HO315415   1.647   5.055   6.613  0.3547  2.8886  0.8917
  141OSM    C4S15416   1.751   5.075   6.900 -0.0926  0.8180 -0.0322
  141OSM    H4S15417   1.777   5.005   6.981  0.1780  1.8073  0.7405
  141OSM    C5S15418   1.730   5.203   6.930 -0.1872 -0.0499  0.6866
  141OSM    H5S15419   1.724   5.264   6.839 -2.1759  2.0023  2.1305
  141OSM    C6S15420   1.750   5.274   7.057  0.1066 -0.1672  0.7037
  141OSM    H6S15421   1.652   5.323   7.074  0.7275  0.7510  1.7558
  141OSM    H6T15422   1.829   5.348   7.033  0.6529 -1.4064 -1.4817
  141OSM    C7S15423   1.795   5.188   7.183  0.3095 -0.0993  0.3992
  141OSM    H7S15424   1.888   5.134   7.154  1.6892  1.4971  1.6917
  141OSM    H7T15425   1.718   5.117   7.219 -0.9516  0.3503 -1.3699
  141OSM    C8S15426   1.826   5.269   7.311  0.7755 -0.0274 -0.2216
  141OSM    H8S15427   1.729   5.314   7.342  0.7302 -0.2240 -0.0744
  141OSM    H8T15428   1.896   5.350   7.281  2.0790 -0.9447  0.2703
  141OSM    C9S15429   1.888   5.185   7.417  0.3292  0.1718  0.2138
  141OSM    H9S15430   1.985   5.150   7.375 -1.7751  0.3210 -5.1612
  141OSM    H9T15431   1.827   5.093   7.433 -2.2200  1.0943 -3.6625
  141OSM   C10S15432   1.917   5.274   7.541 -0.1184  0.5136  0.3076
  141OSM   H10S15433   1.833   5.335   7.580  1.5316  3.2961 -0.2760
  141OSM   H10T15434   2.001   5.347   7.529 -0.8143  1.6495  2.1438
  141OSM   C11S15435   1.964   5.197   7.667 -0.2229 -0.6084  0.1619
  141OSM   H11S15436   2.060   5.141   7.654  1.0486  0.9122  2.6890
  141OSM   H11T15437   1.883   5.124   7.688  0.5632 -1.7093 -0.5478
  141OSM   C12S15438   1.978   5.290   7.788 -0.1996 -0.1721  0.3857
  141OSM   H12S15439   1.944   5.394   7.768 -0.4031 -0.1134  1.0248
  141OSM   H12T15440   2.085   5.305   7.818  0.3131 -3.4395  0.2987
  141OSM   C13S15441   1.910   5.233   7.912  0.2026  0.3591 -0.2119
  141OSM   H13S15442   1.958   5.134   7.925 -1.2677 -0.3097  0.1424
  141OSM   H13T15443   1.803   5.213   7.890  0.0637 -0.8018  1.4810
  141OSM   C14S15444   1.930   5.329   8.028  0.4027  0.3712  0.3818
  141OSM   H14S15445   1.899   5.430   7.992 -1.1975 -0.9859 -2.1477
  141OSM   H14T15446   2.039   5.326   8.054  0.6363  1.7928 -0.3490
  141OSM   C15S15447   1.859   5.286   8.158  0.1487 -0.2082 -0.1416
  141OSM   H15S15448   1.880   5.182   8.191 -1.5014 -1.2108 -2.0618
  141OSM   H15T15449   1.750   5.284   8.133  0.3270 -0.7820 -0.8741
  141OSM   C16S15450   1.878   5.378   8.276  0.4760 -0.0304 -0.5334
  141OSM   H16S15451   1.807   5.362   8.360  0.8478 -1.6509 -0.5034
  141OSM   H16T15452   1.860   5.484   8.247 -1.0008 -0.3013 -0.6263
  141OSM   C17S15453   2.028   5.368   8.314  0.3112 -0.0611 -0.2508
  141OSM   H17S15454   2.099   5.387   8.231  3.5736 -1.5591  2.1261
  141OSM   H17T15455   2.059   5.266   8.344 -0.1299  0.4177  1.9664
  141OSM   C18S15456   2.088   5.442   8.434 -0.4801 -0.0760  0.3432
  141OSM   H18S15457   2.193   5.409   8.446  0.1337  1.8054  0.4096
  141OSM   H18T15458   2.028   5.414   8.523 -2.2471 -1.3239 -1.2095
  141OSM   H18U15459   2.094   5.552   8.415  1.7875 -0.0667  1.0072
  141OSM    C1F15460   2.096   4.994   6.705  0.0896  0.8389 -0.1893
  141OSM     OF15461   2.114   5.066   6.609 -0.0555 -0.0419  0.2414
  141OSM    C2F15462   2.207   4.900   6.770  0.6485 -0.9012  0.4654
  141OSM    H2F15463   2.226   4.807   6.713 -1.3587 -0.2727 -1.2530
  141OSM    H2G15464   2.158   4.868   6.865  0.6227  0.9278  1.0982
  141OSM    C3F15465   2.344   4.965   6.808  0.3154  0.3319 -0.2635
  141OSM    H3F15466   2.387   5.015   6.719 -0.2830  0.2805 -0.5792
  141OSM    H3G15467   2.411   4.883   6.842  0.4215  0.1822 -0.8377
  141OSM    C4F15468   2.347   5.075   6.919  0.3948  0.1645 -0.8042
  141OSM    H4F15469   2.287   5.158   6.876 -0.4206  0.8218  1.5234
  141OSM    H4G15470   2.454   5.101   6.928  0.1284  0.3071  2.2117
  141OSM    C5F15471   2.283   5.038   7.053 -0.3329  0.2046 -0.2029
  141OSM    H5F15472   2.324   4.940   7.085  2.4542  0.7671 -1.8719
  141OSM    H5G15473   2.176   5.020   7.027 -0.1680  0.9775 -1.4722
  141OSM    C6F15474   2.282   5.129   7.175 -0.2396 -0.5346 -0.3772
  141OSM    H6F15475   2.194   5.100   7.237 -0.5346  0.9344 -0.0853
  141OSM    H6G15476   2.271   5.234   7.142 -0.3538 -0.7586 -1.0646
  141OSM    C7F15477   2.411   5.122   7.265  0.0184 -0.5824 -0.0348
  141OSM    H7F15478   2.498   5.162   7.210  0.4445  0.1720  1.1786
  141OSM    H7G15479   2.427   5.016   7.293  1.2745 -0.3742  0.0323
  141OSM    C8F15480   2.388   5.195   7.390  0.4361  0.6095  0.4999
  141OSM    H8F15481   2.295   5.159   7.440  0.6740  1.0779  1.2900
  141OSM    H8G15482   2.368   5.299   7.358 -1.0727 -0.1298 -1.0873
  141OSM    C9F15483   2.503   5.198   7.490 -0.5620  0.1653 -0.2147
  141OSM    H9F15484   2.604   5.206   7.447 -0.6909 -0.5768 -0.6663
  141OSM   C10F15485   2.496   5.196   7.625 -0.5930 -1.0374  0.3183
  141OSM   H10F15486   2.594   5.193   7.675 -0.8751 -0.4595  0.9036
  141OSM   C11F15487   2.379   5.188   7.728  0.2470  0.0165 -0.6062
  141OSM   H11F15488   2.361   5.079   7.741  0.7790 -0.4375 -3.3439
  141OSM   H11G15489   2.292   5.243   7.684  1.4805  1.5163 -1.2231
  141OSM   C12F15490   2.424   5.229   7.868  0.6297 -0.3541 -0.0338
  141OSM   H12F15491   2.459   5.335   7.869  0.7280 -0.3885  2.1223
  141OSM   H12G15492   2.507   5.169   7.909  0.7172  0.5388  1.1052
  141OSM   C13F15493   2.316   5.223   7.978  0.2298 -0.0965  0.9030
  141OSM   H13F15494   2.261   5.126   7.979  0.1624 -0.0591  0.8726
  141OSM   H13G15495   2.258   5.318   7.968  0.1387  0.0631  2.8802
  141OSM   C14F15496   2.379   5.225   8.117 -0.2002  0.1315 -0.4061
  141OSM   H14F15497   2.479   5.178   8.127 -0.8776 -1.2565  0.0055
  141OSM   H14G15498   2.309   5.177   8.190 -0.7918  1.7447  0.1201
  141OSM   C15F15499   2.410   5.375   8.166 -0.1239 -0.5748  0.1707
  141OSM   H15F15500   2.320   5.440   8.157  0.0028 -0.1978  1.5146
  141OSM   H15G15501   2.491   5.413   8.101  0.2766 -0.0484  0.9760
  141OSM   C16F15502   2.473   5.385   8.307  0.3154  0.4662  0.0360
  141OSM   H16F15503   2.578   5.353   8.291 -0.6068 -2.5873 -0.1810
  141OSM   H16G15504   2.431   5.313   8.380 -0.8235  2.0588  0.9859
  141OSM   C17F15505   2.466   5.531   8.344  0.0803  1.3475  0.1571
  141OSM   H17F15506   2.363   5.555   8.379 -0.7670 -0.1935 -1.2092
  141OSM   H17G15507   2.491   5.589   8.253 -0.3623 -1.2792 -1.7296
  141OSM   C18F15508   2.552   5.560   8.470 -0.3564 -0.8856 -0.1857
  141OSM   H18F15509   2.529   5.492   8.555 -1.9332 -0.5985 -0.3662
  141OSM   H18G15510   2.523   5.664   8.496 -1.2065 -1.5153  1.4977
  141OSM   H18H15511   2.661   5.561   8.447 -0.2495  0.4251  0.3213
  142OSM      N15512   2.310   6.595   6.117 -0.9041 -0.0870  0.1546
  142OSM    C1515513   2.440   6.545   6.068  0.1375 -0.3427 -0.0539
  142OSM   H15A15514   2.482   6.473   6.136  1.4334  2.1057  1.8033
  142OSM   H15B15515   2.515   6.620   6.045 -2.2254  2.2568  0.4660
  142OSM   H15C15516   2.419   6.501   5.971 -0.1959  2.7092 -1.4344
  142OSM    C1415517   2.258   6.694   6.017 -0.4193  0.3040  0.8050
  142OSM   H14A15518   2.254   6.640   5.924 -0.4600  1.9962 -0.1823
  142OSM   H14B15519   2.324   6.778   6.005 -1.8843  1.3676  0.0536
  142OSM   H14C15520   2.157   6.719   6.047 -0.5492  0.6116  0.1062
  142OSM    C1315521   2.207   6.486   6.135  0.1238  0.0277  0.1270
  142OSM   H13A15522   2.167   6.450   6.041  3.4937 -0.1189 -1.3446
  142OSM   H13B15523   2.124   6.521   6.194 -0.4650 -0.5619 -0.3463
  142OSM   H13C15524   2.243   6.404   6.195 -1.4295 -0.6175  0.2136
  142OSM    C1215525   2.343   6.661   6.247 -0.0895  0.5178  0.5683
  142OSM   H12A15526   2.381   6.762   6.238  1.3797 -0.1386 -0.8967
  142OSM   H12B15527   2.422   6.610   6.300 -0.6502 -0.4293  0.4999
  142OSM    C1115528   2.223   6.686   6.350  0.2439  0.3031 -0.2560
  142OSM   H11A15529   2.266   6.714   6.448  0.6258 -1.9394  0.2504
  142OSM   H11B15530   2.166   6.592   6.368 -0.7199  0.4868 -2.2213
  142OSM      P15531   2.157   6.939   6.288 -0.3829 -0.2795 -0.0409
  142OSM    O1315532   2.271   6.962   6.201  0.4304  0.2658 -0.0725
  142OSM    O1415533   2.030   6.997   6.247  0.1976 -0.1493  0.2857
  142OSM    O1115534   2.185   6.988   6.438  0.6191 -0.0645  0.1830
  142OSM    O1215535   2.132   6.783   6.300  0.0764  0.2095  0.6993
  142OSM    C1S15536   2.323   7.004   6.481 -0.5291  0.3877  0.0850
  142OSM    H1S15537   2.370   7.092   6.431 -0.6264  0.3374 -0.0946
  142OSM    H1T15538   2.380   6.913   6.455 -2.8680 -1.1030  0.0308
  142OSM     NF15539   2.482   7.038   6.671 -0.3434 -0.3351  0.2627
  142OSM    HNF15540   2.521   6.962   6.721 -0.3488  0.8429  2.1100
  142OSM    C2S15541   2.340   7.021   6.630 -0.3423 -0.7301  0.3085
  142OSM    H2S15542   2.285   7.117   6.645  0.1575 -0.0655 -1.9720
  142OSM    C3S15543   2.268   6.908   6.706 -0.4444  0.2980  0.1848
  142OSM    H3S15544   2.320   6.813   6.681 -0.5565  0.6010 -1.2562
  142OSM     O315545   2.133   6.882   6.679  0.1470 -0.1224  0.2113
  142OSM    HO315546   2.113   6.921   6.594  1.0227  0.5117  0.2877
  142OSM    C4S15547   2.286   6.933   6.858  0.5774  0.2805 -0.5578
  142OSM    H4S15548   2.280   7.041   6.879 -1.6223  0.3520 -1.3192
  142OSM    C5S15549   2.299   6.834   6.958 -0.1188  0.2245 -0.2196
  142OSM    H5S15550   2.306   6.729   6.926  2.6016  0.2191  0.2549
  142OSM    C6S15551   2.304   6.857   7.105 -0.0204  0.1534  0.0584
  142OSM    H6S15552   2.356   6.775   7.159 -1.8016 -0.9198  0.1797
  142OSM    H6T15553   2.201   6.831   7.139 -0.6138  0.8555 -1.1543
  142OSM    C7S15554   2.356   7.000   7.147  0.5800  0.4247 -0.0140
  142OSM    H7S15555   2.281   7.074   7.111 -1.1817 -1.2031  0.1880
  142OSM    H7T15556   2.449   7.012   7.087  0.6191 -0.2913 -0.1052
  142OSM    C8S15557   2.392   7.020   7.289 -0.3606  0.8731  0.0134
  142OSM    H8S15558   2.447   7.116   7.302 -1.0601  1.0123  2.1232
  142OSM    H8T15559   2.466   6.946   7.328  0.1041 -0.8180 -3.8459
  142OSM    C9S15560   2.274   7.012   7.386  0.4069  0.1172 -0.6444
  142OSM    H9S15561   2.264   6.905   7.413  2.3705 -0.5517 -2.4322
  142OSM    H9T15562   2.180   7.045   7.337  0.6922  2.0538  0.0586
  142OSM   C10S15563   2.302   7.084   7.510  0.6007 -0.5900  0.7189
  142OSM   H10S15564   2.340   7.188   7.496 -0.0464 -0.6674 -1.7597
  142OSM   H10T15565   2.398   7.046   7.552  1.9156  1.1555 -0.5884
  142OSM   C11S15566   2.183   7.097   7.602  0.3995 -0.1618 -0.2252
  142OSM   H11S15567   2.140   6.997   7.625 -0.1462  0.2320  0.5157
  142OSM   H11T15568   2.107   7.162   7.554 -1.1065 -1.5583  0.2223
  142OSM   C12S15569   2.223   7.157   7.738  0.3510 -0.3090 -0.7855
  142OSM   H12S15570   2.247   7.262   7.708 -0.0892 -0.0697 -0.3113
  142OSM   H12T15571   2.313   7.103   7.773  0.8276  2.0852  1.8743
  142OSM   C13S15572   2.111   7.144   7.845 -0.3145 -0.0447 -0.0075
  142OSM   H13S15573   2.090   7.038   7.873 -1.6176  0.4116  0.7667
  142OSM   H13T15574   2.021   7.182   7.794 -0.1000  0.7746  0.2159
  142OSM   C14S15575   2.142   7.232   7.964 -0.0807 -0.3556  0.1771
  142OSM   H14S15576   2.188   7.324   7.922 -1.8270 -1.0618 -3.5015
  142OSM   H14T15577   2.208   7.174   8.032 -0.3828 -1.7635 -0.7170
  142OSM   C15S15578   2.026   7.260   8.047  0.4289  0.2786  0.2095
  142OSM   H15S15579   1.968   7.168   8.070 -1.4245  1.4699  0.4836
  142OSM   H15T15580   1.965   7.336   7.993 -0.3262 -0.7119 -0.3478
  142OSM   C16S15581   2.082   7.315   8.178  0.4831  0.1781 -0.1719
  142OSM   H16S15582   2.172   7.377   8.157  0.4266  0.4755  0.4481
  142OSM   H16T15583   2.117   7.237   8.250 -0.7222 -1.5907 -1.4460
  142OSM   C17S15584   1.990   7.405   8.262  0.4319  0.0238 -0.1569
  142OSM   H17S15585   1.927   7.458   8.187  0.2362  1.7451  1.1877
  142OSM   H17T15586   2.060   7.475   8.312  0.8006  0.3823 -1.1678
  142OSM   C18S15587   1.905   7.334   8.375 -0.3060 -0.0614 -0.2706
  142OSM   H18S15588   1.962   7.276   8.450  0.9318  1.2625 -0.1662
  142OSM   H18T15589   1.827   7.267   8.331  0.9696 -0.3468 -2.1825
  142OSM   H18U15590   1.840   7.406   8.430  0.5392 -1.5938  2.8290
  142OSM    C1F15591   2.544   7.152   6.639 -0.0632 -0.4152 -0.2296
  142OSM     OF15592   2.496   7.244   6.568  0.0283 -0.3445  0.3036
  142OSM    C2F15593   2.686   7.157   6.688  0.0030 -0.7318 -0.0107
  142OSM    H2F15594   2.762   7.159   6.607 -2.0882  1.5356 -2.0211
  142OSM    H2G15595   2.708   7.074   6.758  2.3005  0.6583  0.9756
  142OSM    C3F15596   2.708   7.292   6.755 -0.6489 -0.2361  0.2451
  142OSM    H3F15597   2.687   7.372   6.681  0.3308 -0.8314 -0.6978
  142OSM    H3G15598   2.815   7.307   6.779  0.0378 -2.6444 -1.1658
  142OSM    C4F15599   2.626   7.316   6.885  0.5148  0.0238 -1.1400
  142OSM    H4F15600   2.518   7.293   6.870  0.1366  0.9334  0.0921
  142OSM    H4G15601   2.641   7.422   6.915  2.3873 -0.3913 -0.5225
  142OSM    C5F15602   2.669   7.220   7.005 -0.3072 -0.0296 -0.0408
  142OSM    H5F15603   2.778   7.204   6.990 -0.4633  0.2511 -1.6490
  142OSM    H5G15604   2.620   7.121   6.994  0.3016 -0.4358  0.8678
  142OSM    C6F15605   2.650   7.278   7.137 -0.4499 -0.7863 -0.7413
  142OSM    H6F15606   2.539   7.287   7.142 -0.7243 -3.6001 -1.4909
  142OSM    H6G15607   2.698   7.378   7.148 -0.0479 -1.1090  0.5080
  142OSM    C7F15608   2.707   7.193   7.240  0.2257  0.1067 -0.1783
  142OSM    H7F15609   2.813   7.180   7.209  0.7685  1.9364  0.8559
  142OSM    H7G15610   2.653   7.096   7.248 -0.4929  0.4211 -1.0541
  142OSM    C8F15611   2.717   7.265   7.377  0.6257  0.2250 -0.3303
  142OSM    H8F15612   2.613   7.282   7.411  1.2211  0.4596  1.4282
  142OSM    H8G15613   2.760   7.366   7.355 -0.8888  0.7829 -0.7594
  142OSM    C9F15614   2.802   7.193   7.474 -0.6740  0.7185  0.0614
  142OSM    H9F15615   2.908   7.191   7.444 -0.8787 -0.3043 -0.6194
  142OSM   C10F15616   2.786   7.160   7.601  0.3486 -0.0543  0.1916
  142OSM   H10F15617   2.865   7.100   7.649 -0.6435 -1.9515 -0.4787
  142OSM   C11F15618   2.665   7.183   7.687  0.6256 -0.0920  0.3684
  142OSM   H11F15619   2.623   7.085   7.717 -1.2392  0.4867 -0.2687
  142OSM   H11G15620   2.587   7.241   7.631  1.5165  0.8336  0.0725
  142OSM   C12F15621   2.694   7.252   7.827  0.1082  0.5018 -0.1413
  142OSM   H12F15622   2.722   7.356   7.800  0.7718  0.3346 -0.1052
  142OSM   H12G15623   2.784   7.205   7.871 -0.1088  0.4928  0.2927
  142OSM   C13F15624   2.571   7.245   7.914 -0.3374 -0.6156 -0.3985
  142OSM   H13F15625   2.522   7.145   7.902  0.2758 -0.7931 -1.5060
  142OSM   H13G15626   2.497   7.319   7.876  1.3276  0.1447 -2.2804
  142OSM   C14F15627   2.611   7.289   8.061 -0.2710  0.1855  0.2416
  142OSM   H14F15628   2.659   7.386   8.036 -1.1499  0.4505 -0.4775
  142OSM   H14G15629   2.678   7.214   8.107  0.4724  0.5115 -0.3046
  142OSM   C15F15630   2.485   7.317   8.140 -0.3396  0.2161 -0.5663
  142OSM   H15F15631   2.443   7.219   8.171  1.6123  0.0896  1.8504
  142OSM   H15G15632   2.406   7.361   8.076  0.0288 -1.0350 -1.9219
  142OSM   C16F15633   2.508   7.395   8.268  0.2287 -0.0511  0.1804
  142OSM   H16F15634   2.573   7.482   8.245  0.2903 -0.1805 -0.1433
  142OSM   H16G15635   2.539   7.328   8.351 -1.1031 -0.4385  0.3801
  142OSM   C17F15636   2.382   7.473   8.319  0.4650 -0.2910 -0.6570
  142OSM   H17F15637   2.330   7.394   8.378  0.4751 -0.5047 -0.9367
  142OSM   H17G15638   2.317   7.494   8.232 -3.0805 -1.6473  1.5239
  142OSM   C18F15639   2.415   7.581   8.416  0.0145 -1.1291  0.0863
  142OSM   H18F15640   2.480   7.659   8.371 -2.1275  1.0070  0.5897
  142OSM   H18G15641   2.471   7.533   8.499 -0.8068 -0.0367  1.3059
  142OSM   H18H15642   2.324   7.630   8.455 -0.1989 -1.4502 -0.0103
  143OSM      N15643   3.581   2.109   5.738 -0.0712 -0.3832  0.1081
  143OSM    C1515644   3.455   2.159   5.690 -0.7699  0.8846 -0.1020
  143OSM   H15A15645   3.414   2.100   5.610 -0.2937 -1.1553  1.1364
  143OSM   H15B15646   3.457   2.266   5.672 -1.1662  0.7513 -0.9902
  143OSM   H15C15647   3.385   2.157   5.772  0.6463 -2.1810  1.0893
  143OSM    C1415648   3.553   1.964   5.765 -0.3677 -0.6181 -0.5597
  143OSM   H14A15649   3.541   1.920   5.667  0.4278 -0.4855 -0.7249
  143OSM   H14B15650   3.471   1.938   5.830  0.0283  1.9428  1.0235
  143OSM   H14C15651   3.641   1.923   5.813 -0.8980 -0.6082  0.4289
  143OSM    C1315652   3.684   2.134   5.627  0.2594 -0.2880 -0.1227
  143OSM   H13A15653   3.656   2.079   5.538 -0.8484  1.8967 -1.1590
  143OSM   H13B15654   3.779   2.094   5.659 -0.3080 -0.5160  1.3249
  143OSM   H13C15655   3.694   2.239   5.603 -1.2531 -0.2990 -0.8630
  143OSM    C1215656   3.624   2.197   5.859 -0.0251  0.3057 -0.0334
  143OSM   H12A15657   3.548   2.193   5.936  1.0163 -4.7754  0.9270
  143OSM   H12B15658   3.610   2.299   5.825 -5.2355 -0.0920  0.5163
  143OSM    C1115659   3.770   2.169   5.910  0.2428 -0.0557 -0.5232
  143OSM   H11A15660   3.790   2.262   5.968 -0.2416  2.6324 -4.4291
  143OSM   H11B15661   3.839   2.172   5.823  0.2825  0.0369 -0.4894
  143OSM      P15662   3.705   2.036   6.127  0.1177  0.1535 -0.2213
  143OSM    O1315663   3.627   2.159   6.151 -0.4634  0.3611 -0.4985
  143OSM    O1415664   3.636   1.905   6.129  0.2000 -0.6357  0.3968
  143OSM    O1115665   3.825   2.038   6.234 -0.9167 -0.2197  0.0098
  143OSM    O1215666   3.772   2.045   5.985 -0.4535  0.7306 -0.0066
  143OSM    C1S15667   3.896   2.154   6.255 -0.2504 -0.1432 -0.1614
  143OSM    H1S15668   3.869   2.244   6.197 -0.3749 -1.0489 -1.5227
  143OSM    H1T15669   4.001   2.132   6.227 -0.1242 -0.0288  0.2180
  143OSM     NF15670   3.962   2.325   6.420  0.4017  0.1361 -0.5394
  143OSM    HNF15671   4.058   2.334   6.447  0.2959  0.7018 -0.3369
  143OSM    C2S15672   3.900   2.196   6.404 -0.0646  0.3854 -0.6584
  143OSM    H2S15673   3.799   2.199   6.450  1.3209 -1.9103  2.8040
  143OSM    C3S15674   3.976   2.086   6.475  0.1879  0.2026  0.1950
  143OSM    H3S15675   4.078   2.071   6.435  0.0513 -0.1566 -0.0236
  143OSM     O315676   3.927   1.952   6.463 -0.0827  0.1386 -0.3213
  143OSM    HO315677   3.867   1.967   6.389  0.2245  0.8845 -0.4259
  143OSM    C4S15678   3.979   2.120   6.619 -0.3806  0.9139  0.7262
  143OSM    H4S15679   3.880   2.117   6.666  0.0710  0.1061  1.6196
  143OSM    C5S15680   4.090   2.149   6.696  0.2539  0.2169  0.1142
  143OSM    H5S15681   4.186   2.133   6.645  0.5399  0.7168  0.4924
  143OSM    C6S15682   4.082   2.182   6.849 -0.2602 -0.2123 -1.0188
  143OSM    H6S15683   4.054   2.290   6.855  2.6521  0.6419 -1.6821
  143OSM    H6T15684   4.184   2.162   6.889 -0.6120 -1.2325 -0.6261
  143OSM    C7S15685   3.981   2.099   6.934 -0.7148 -0.2519  0.4081
  143OSM    H7S15686   4.007   1.991   6.929  1.9762  0.1788  3.2228
  143OSM    H7T15687   3.880   2.104   6.888 -0.8497  1.7114  0.8620
  143OSM    C8S15688   3.983   2.159   7.081 -0.0006  0.5406  0.2983
  143OSM    H8S15689   3.940   2.261   7.081 -0.1484  0.4784  0.2255
  143OSM    H8T15690   4.090   2.170   7.109 -0.1109  1.1841  0.4605
  143OSM    C9S15691   3.924   2.063   7.184 -0.0269  0.1052  0.2247
  143OSM    H9S15692   3.950   1.960   7.154 -3.2085 -0.9970  1.0970
  143OSM    H9T15693   3.813   2.069   7.183 -0.0586  0.4740  2.3611
  143OSM   C10S15694   3.984   2.075   7.321  0.2513  0.0463 -0.2072
  143OSM   H10S15695   3.968   2.181   7.350  2.2370 -0.0127  1.1745
  143OSM   H10T15696   4.093   2.057   7.320  0.1899 -0.8693  3.5603
  143OSM   C11S15697   3.918   1.976   7.424  0.0921 -0.4807 -0.6559
  143OSM   H11S15698   3.939   1.873   7.388  0.0191 -1.6203  2.4085
  143OSM   H11T15699   3.810   1.992   7.403  0.5850  0.5209 -2.5867
  143OSM   C12S15700   3.952   1.995   7.570  1.3478  0.4369  0.1941
  143OSM   H12S15701   3.968   2.105   7.572  1.8462  0.3476  3.0067
  143OSM   H12T15702   4.039   1.933   7.596  0.1144 -2.0033 -1.3126
  143OSM   C13S15703   3.843   1.942   7.662 -0.0906 -0.1946  0.5079
  143OSM   H13S15704   3.833   1.837   7.625 -2.5688 -0.4572  1.8040
  143OSM   H13T15705   3.740   1.982   7.646 -0.1757 -1.7335 -3.3450
  143OSM   C14S15706   3.862   1.931   7.813 -0.4124 -0.8636 -0.9874
  143OSM   H14S15707   3.927   1.847   7.846  2.1741  1.9894  1.4850
  143OSM   H14T15708   3.766   1.912   7.865 -0.6450  1.3619 -0.5610
  143OSM   C15S15709   3.909   2.064   7.877 -0.3379  0.1109 -0.5287
  143OSM   H15S15710   3.842   2.146   7.842  0.5358 -0.1723 -2.9934
  143OSM   H15T15711   4.010   2.103   7.848 -0.0338 -0.2369  0.0612
  143OSM   C16S15712   3.909   2.064   8.029  0.6424  0.5998 -0.6525
  143OSM   H16S15713   3.991   1.997   8.063 -1.2412 -1.4037  0.0578
  143OSM   H16T15714   3.819   2.014   8.070  1.0280  1.0474  0.7741
  143OSM   C17S15715   3.928   2.199   8.098  0.5302  0.3146 -0.5725
  143OSM   H17S15716   3.847   2.266   8.063  2.4834  2.6555 -0.7566
  143OSM   H17T15717   4.027   2.233   8.060  0.7017 -0.4749 -0.8602
  143OSM   C18S15718   3.922   2.189   8.249  0.7887  0.0673 -0.5341
  143OSM   H18S15719   3.823   2.157   8.285  0.9515 -3.2534 -2.7906
  143OSM   H18T15720   3.936   2.285   8.304  2.7017 -0.5821  0.1489
  143OSM   H18U15721   4.010   2.132   8.285 -0.9184 -2.7437 -0.7082
  143OSM    C1F15722   3.891   2.425   6.379 -0.2881 -0.8827 -0.1735
  143OSM     OF15723   3.776   2.418   6.362  0.0566 -0.2315 -0.0534
  143OSM    C2F15724   3.976   2.554   6.345 -0.3123 -0.0652 -0.0390
  143OSM    H2F15725   3.990   2.571   6.236  0.0416 -2.4916 -0.4160
  143OSM    H2G15726   4.075   2.521   6.385 -1.2718 -1.1843  1.4940
  143OSM    C3F15727   3.929   2.680   6.422  0.2551 -0.3804 -0.8478
  143OSM    H3F15728   3.832   2.708   6.376  0.1120  2.7168  1.2484
  143OSM    H3G15729   4.000   2.761   6.397  0.5461 -0.6271 -0.8221
  143OSM    C4F15730   3.908   2.677   6.570 -0.9738  0.3724  0.2208
  143OSM    H4F15731   3.828   2.605   6.598 -0.7549 -0.0493 -0.2405
  143OSM    H4G15732   3.884   2.782   6.597 -0.6900  0.5901 -0.3623
  143OSM    C5F15733   4.035   2.634   6.648  0.4400 -0.6799 -0.2910
  143OSM    H5F15734   4.126   2.676   6.600  1.2578  1.0842  2.6914
  143OSM    H5G15735   4.058   2.525   6.644 -0.5639 -0.8800 -0.8372
  143OSM    C6F15736   4.040   2.688   6.790 -0.2565  0.0310 -0.1371
  143OSM    H6F15737   3.994   2.789   6.791 -0.0638  0.1192  0.4607
  143OSM    H6G15738   4.143   2.698   6.831  1.1433 -0.0906 -3.5061
  143OSM    C7F15739   3.965   2.606   6.898  0.5963 -0.6503 -0.6669
  143OSM    H7F15740   4.017   2.510   6.922  0.0687 -1.2270 -1.7820
  143OSM    H7G15741   3.865   2.578   6.857  0.1685 -0.6858  0.3784
  143OSM    C8F15742   3.949   2.682   7.029  0.2613 -0.6614 -0.8783
  143OSM    H8F15743   3.917   2.785   7.006  2.8364  0.4600  0.3487
  143OSM    H8G15744   4.049   2.703   7.073 -1.2381 -0.1484  2.4395
  143OSM    C9F15745   3.857   2.609   7.125 -0.8632 -0.2482  0.0038
  143OSM    H9F15746   3.780   2.544   7.081  2.0379 -1.8349 -2.9220
  143OSM   C10F15747   3.864   2.586   7.258  0.3688 -0.2352  0.1758
  143OSM   H10F15748   3.795   2.515   7.305  1.1872 -0.5332  0.9382
  143OSM   C11F15749   3.974   2.643   7.337  0.5136  0.3097  0.6695
  143OSM   H11F15750   4.037   2.709   7.273 -0.1573  0.7121  0.4152
  143OSM   H11G15751   4.036   2.560   7.375  0.3505 -1.4571 -2.6736
  143OSM   C12F15752   3.909   2.722   7.453 -0.1450 -1.0343  0.4297
  143OSM   H12F15753   3.852   2.651   7.517  0.7325  0.4291  2.8970
  143OSM   H12G15754   3.834   2.793   7.415  1.0519  1.4836  2.5931
  143OSM   C13F15755   4.006   2.799   7.546  0.1957  0.0900  0.1264
  143OSM   H13F15756   4.060   2.878   7.491  1.1528  0.7234  1.9312
  143OSM   H13G15757   4.082   2.736   7.597 -0.6542 -0.8595  0.2459
  143OSM   C14F15758   3.927   2.864   7.665  0.3706  0.1555 -0.5064
  143OSM   H14F15759   3.901   2.776   7.728  2.0170 -0.0946 -0.1319
  143OSM   H14G15760   3.833   2.915   7.635 -1.5541 -1.5284  2.4562
  143OSM   C15F15761   4.015   2.970   7.734  0.6661 -0.6572  0.2397
  143OSM   H15F15762   4.046   3.035   7.650  0.0572 -0.4134  0.1994
  143OSM   H15G15763   4.106   2.918   7.770  0.5239 -0.6908  0.5557
  143OSM   C16F15764   3.944   3.055   7.850 -0.2914 -0.2068  0.3464
  143OSM   H16F15765   3.903   2.987   7.928 -0.3738  1.2107  1.5496
  143OSM   H16G15766   3.861   3.114   7.805  0.1960 -0.4490 -0.9069
  143OSM   C17F15767   4.035   3.161   7.910  0.5366  0.2767 -0.1694
  143OSM   H17F15768   4.109   3.112   7.976  1.6376  2.7753  0.5332
  143OSM   H17G15769   3.978   3.220   7.985  1.7359 -0.0369  0.9936
  143OSM   C18F15770   4.107   3.251   7.803  0.6771 -0.4910  0.3974
  143OSM   H18F15771   4.187   3.306   7.857  1.0011 -0.1821 -0.3915
  143OSM   H18G15772   4.037   3.321   7.753  2.3800  0.0335 -1.3100
  143OSM   H18H15773   4.154   3.186   7.726  1.6947  1.9790 -1.1200
  144OSM      N15774   3.169   1.508   6.180  0.3113 -0.4026  0.6793
  144OSM    C1515775   3.259   1.621   6.141 -0.0976 -0.6467  0.1899
  144OSM   H15A15776   3.212   1.715   6.166  1.7589 -0.1749  2.1430
  144OSM   H15B15777   3.294   1.625   6.039  1.6393 -0.3020  0.7645
  144OSM   H15C15778   3.347   1.616   6.204  0.7920  0.6341 -0.8984
  144OSM    C1415779   3.084   1.531   6.298  0.0613 -0.8463 -0.4339
  144OSM   H14A15780   3.141   1.571   6.381 -1.5769  1.3460 -0.3305
  144OSM   H14B15781   3.032   1.440   6.324  0.2288 -0.8139  0.0206
  144OSM   H14C15782   3.007   1.603   6.276 -0.1244 -1.1699 -0.8341
  144OSM    C1315783   3.078   1.488   6.064 -0.1921 -0.3181  0.5010
  144OSM   H13A15784   2.996   1.419   6.079 -0.4315 -0.0410  0.4805
  144OSM   H13B15785   3.134   1.467   5.974 -2.2623  1.9375 -1.3753
  144OSM   H13C15786   3.032   1.583   6.040  0.5248 -0.1089 -0.0745
  144OSM    C1215787   3.245   1.383   6.196  0.8979  0.4275 -0.8481
  144OSM   H12A15788   3.301   1.370   6.105  0.5220  1.4131 -1.2255
  144OSM   H12B15789   3.172   1.303   6.200  0.1558  1.1152 -0.6684
  144OSM    C1115790   3.332   1.364   6.327  0.3736  0.5722 -0.2669
  144OSM   H11A15791   3.372   1.261   6.320 -1.6379 -0.3238  1.0332
  144OSM   H11B15792   3.264   1.368   6.415  1.6303  4.6610  0.6435
  144OSM      P15793   3.572   1.453   6.277 -0.1872  0.2722 -0.3199
  144OSM    O1315794   3.637   1.340   6.350 -0.1696 -0.0195 -0.1636
  144OSM    O1415795   3.572   1.439   6.133  0.1436 -0.6336  0.0603
  144OSM    O1115796   3.639   1.596   6.318  0.1661 -0.1404 -0.6997
  144OSM    O1215797   3.430   1.468   6.341 -0.0525  0.4828 -0.6092
  144OSM    C1S15798   3.559   1.703   6.376  0.0612  0.1274  0.9471
  144OSM    H1S15799   3.466   1.721   6.319  0.2613  0.3555  0.6902
  144OSM    H1T15800   3.617   1.798   6.370  2.0523 -1.0607  0.9685
  144OSM     NF15801   3.437   1.796   6.565  0.2634 -0.2861 -0.2954
  144OSM    HNF15802   3.473   1.887   6.585  1.0869 -0.7152  0.2131
  144OSM    C2S15803   3.534   1.699   6.525 -0.5747  0.4643  0.5188
  144OSM    H2S15804   3.490   1.600   6.549 -0.4972 -0.1781 -1.8340
  144OSM    C3S15805   3.677   1.702   6.590 -0.5577 -0.4854  0.3818
  144OSM    H3S15806   3.725   1.789   6.541 -1.6307 -0.6026 -0.9249
  144OSM     O315807   3.759   1.592   6.562  0.2459  0.4354  0.3612
  144OSM    HO315808   3.728   1.563   6.476  2.0101  0.4261 -0.2894
  144OSM    C4S15809   3.663   1.731   6.742  0.2378  0.7364 -0.2855
  144OSM    H4S15810   3.579   1.681   6.794 -0.0056 -0.9339 -2.2262
  144OSM    C5S15811   3.733   1.823   6.806  0.3116 -0.6112  0.2004
  144OSM    H5S15812   3.788   1.895   6.744  0.8885  0.5804  2.0497
  144OSM    C6S15813   3.724   1.870   6.947  0.3497 -0.4556 -0.5497
  144OSM    H6S15814   3.692   1.976   6.947  0.5813 -0.3531  2.4985
  144OSM    H6T15815   3.820   1.856   7.000  0.9025 -0.9141 -1.6530
  144OSM    C7S15816   3.626   1.776   7.030 -0.0682 -0.4870  0.2488
  144OSM    H7S15817   3.672   1.675   7.027  1.3408  0.1707 -3.0516
  144OSM    H7T15818   3.524   1.782   6.986  0.3570  2.0497 -0.5142
  144OSM    C8S15819   3.610   1.830   7.172 -0.6398  0.2731 -0.4031
  144OSM    H8S15820   3.551   1.925   7.169  0.0164  0.7011 -0.0413
  144OSM    H8T15821   3.711   1.848   7.214 -2.6601  2.7366  3.7469
  144OSM    C9S15822   3.550   1.725   7.270  0.0948 -0.0880  0.8999
  144OSM    H9S15823   3.594   1.625   7.252  0.4280  0.6120 -2.5933
  144OSM    H9T15824   3.444   1.712   7.241  0.8135 -0.8198 -1.4355
  144OSM   C10S15825   3.569   1.774   7.418 -0.3176  0.2542 -0.7950
  144OSM   H10S15826   3.538   1.879   7.438  0.3345  0.3464 -0.2592
  144OSM   H10T15827   3.678   1.762   7.435 -0.4808 -2.0326 -1.2969
  144OSM   C11S15828   3.492   1.688   7.523 -0.3735  0.2837  0.1829
  144OSM   H11S15829   3.512   1.582   7.498  1.8277  1.0960 -1.7264
  144OSM   H11T15830   3.385   1.713   7.504 -0.0781  1.3857 -0.0775
  144OSM   C12S15831   3.542   1.733   7.663  0.4479 -0.1703  0.7307
  144OSM   H12S15832   3.512   1.840   7.669  0.6927 -0.0229 -0.6157
  144OSM   H12T15833   3.652   1.735   7.673  0.6312 -0.2127 -1.1128
  144OSM   C13S15834   3.478   1.660   7.784  0.3121  0.8625 -0.5606
  144OSM   H13S15835   3.533   1.563   7.789 -1.0707 -0.0703 -2.6774
  144OSM   H13T15836   3.368   1.646   7.774  0.3095  1.2932 -1.1543
  144OSM   C14S15837   3.512   1.751   7.901 -0.5274 -0.3779  0.3988
  144OSM   H14S15838   3.461   1.847   7.879  0.0790 -0.0154  0.5591
  144OSM   H14T15839   3.621   1.771   7.916 -0.8023  0.9095  0.7804
  144OSM   C15S15840   3.448   1.716   8.038 -0.6332  0.1321  0.0105
  144OSM   H15S15841   3.338   1.732   8.035 -0.4648  1.1294 -0.8430
  144OSM   H15T15842   3.490   1.787   8.112 -0.9719  0.9249 -0.5558
  144OSM   C16S15843   3.499   1.580   8.084 -0.2904  0.0773 -0.6926
  144OSM   H16S15844   3.608   1.593   8.099 -0.4240  0.6423 -0.1372
  144OSM   H16T15845   3.477   1.505   8.006  1.7541 -0.2042 -1.0209
  144OSM   C17S15846   3.441   1.531   8.214 -0.1678  0.3762 -0.6798
  144OSM   H17S15847   3.397   1.615   8.272 -2.2008 -0.9833 -0.1943
  144OSM   H17T15848   3.528   1.503   8.277  0.3755  0.5983 -1.3278
  144OSM   C18S15849   3.346   1.411   8.190  0.7212 -0.0070  0.7089
  144OSM   H18S15850   3.265   1.440   8.119  0.5072 -0.0930  0.9180
  144OSM   H18T15851   3.288   1.394   8.283 -0.4728 -0.0208 -0.0287
  144OSM   H18U15852   3.387   1.315   8.151  0.9793  0.1478  0.5978
  144OSM    C1F15853   3.303   1.801   6.529 -0.1352 -0.5284 -0.2616
  144OSM     OF15854   3.249   1.702   6.481  0.1068  0.2567 -0.1874
  144OSM    C2F15855   3.230   1.926   6.546  0.4360 -0.1158 -0.3498
  144OSM    H2F15856   3.147   1.924   6.472  1.3131 -0.2290 -1.3407
  144OSM    H2G15857   3.296   2.013   6.530 -1.3471  1.0983 -1.2655
  144OSM    C3F15858   3.157   1.922   6.684 -0.7488  0.4971 -1.3309
  144OSM    H3F15859   3.119   1.819   6.699  1.0926  0.2767  2.4588
  144OSM    H3G15860   3.082   2.004   6.688  0.4596  1.5422  1.6085
  144OSM    C4F15861   3.250   1.961   6.797  0.0370  0.3358 -0.1609
  144OSM    H4F15862   3.304   2.053   6.764 -2.1992  1.5015 -0.6768
  144OSM    H4G15863   3.327   1.884   6.821  2.1392  2.3243 -0.3504
  144OSM    C5F15864   3.172   2.001   6.926 -0.2252 -0.1170 -0.4783
  144OSM    H5F15865   3.106   1.923   6.969 -1.3392  1.0737  0.0034
  144OSM    H5G15866   3.108   2.087   6.898  1.6101  0.5549 -2.8436
  144OSM    C6F15867   3.262   2.031   7.035 -0.5333  0.1386  0.4468
  144OSM    H6F15868   3.320   2.122   7.009 -0.5445 -0.4756 -1.8583
  144OSM    H6G15869   3.339   1.951   7.035 -2.0001 -1.2987 -0.0764
  144OSM    C7F15870   3.204   2.057   7.179  0.0987 -0.0929  0.5935
  144OSM    H7F15871   3.294   2.069   7.243  1.8093  2.6763 -2.1913
  144OSM    H7G15872   3.149   1.963   7.203  2.1298 -1.0093  1.7441
  144OSM    C8F15873   3.105   2.176   7.190 -0.3821  0.3057  0.1063
  144OSM    H8F15874   3.020   2.172   7.118 -1.3804  3.6745  0.9856
  144OSM    H8G15875   3.144   2.272   7.150 -0.9067 -0.0919 -1.4204
  144OSM    C9F15876   3.067   2.185   7.338  0.7832 -0.3750  0.6565
  144OSM    H9F15877   3.147   2.225   7.401 -0.9257  1.0476  1.9883
  144OSM   C10F15878   2.951   2.136   7.389  0.1898  0.3573 -0.1339
  144OSM   H10F15879   2.943   2.128   7.498 -2.2025  0.0912 -0.2970
  144OSM   C11F15880   2.837   2.085   7.307  0.6495 -1.4061 -0.9101
  144OSM   H11F15881   2.832   1.976   7.329 -0.4435 -1.1125  0.3290
  144OSM   H11G15882   2.859   2.107   7.201  1.5047 -1.3390 -0.7258
  144OSM   C12F15883   2.691   2.148   7.338  0.4981 -0.2414 -0.3026
  144OSM   H12F15884   2.621   2.126   7.255 -0.8724 -0.1075  0.7970
  144OSM   H12G15885   2.692   2.258   7.356  0.5180 -0.7124  3.0519
  144OSM   C13F15886   2.620   2.080   7.457  0.4231  0.4290 -0.7719
  144OSM   H13F15887   2.591   1.976   7.429 -0.6998  0.8808 -1.3262
  144OSM   H13G15888   2.525   2.136   7.473 -0.1300 -1.2785  2.4412
  144OSM   C14F15889   2.681   2.089   7.590 -0.1135 -0.2399  0.3058
  144OSM   H14F15890   2.715   2.193   7.607 -1.4403  0.2650 -0.0509
  144OSM   H14G15891   2.774   2.029   7.594 -1.7611 -3.0205 -1.1912
  144OSM   C15F15892   2.589   2.050   7.710  0.0826  0.4192 -0.2677
  144OSM   H15F15893   2.568   1.941   7.701 -2.9349  0.8348  1.2856
  144OSM   H15G15894   2.491   2.101   7.700 -1.0046 -1.1861  1.9314
  144OSM   C16F15895   2.654   2.096   7.843  1.0832 -0.0935 -0.1278
  144OSM   H16F15896   2.687   2.202   7.835 -0.8842  0.7570  2.5523
  144OSM   H16G15897   2.749   2.042   7.863  1.0314 -0.1487 -0.0322
  144OSM   C17F15898   2.565   2.093   7.971  0.2231 -0.1526  0.5235
  144OSM   H17F15899   2.468   2.145   7.954  0.6040  0.0185 -1.1669
  144OSM   H17G15900   2.622   2.142   8.053  0.4359 -0.3768  0.5093
  144OSM   C18F15901   2.522   1.953   8.012  0.3586  0.5297 -0.4760
  144OSM   H18F15902   2.465   1.906   7.929  1.2342  0.0260 -0.8092
  144OSM   H18G15903   2.448   1.961   8.095  1.7901 -0.2466  0.9259
  144OSM   H18H15904   2.600   1.884   8.053  0.2890  0.6794 -0.0856
  145SAPE     N15905   1.913   2.838  10.945 -0.2871 -0.0066  0.5513
  145SAPE   HN115906   2.010   2.862  10.918 -0.8340  0.6342 -0.9238
  145SAPE   HN215907   1.913   2.802  11.043  0.9312 -2.5871 -0.3778
  145SAPE   HN315908   1.878   2.757  10.890 -1.4788  0.5897  0.3993
  145SAPE   C1215909   1.821   2.958  10.924 -0.2608 -0.2581  0.1981
  145SAPE  H12A15910   1.871   3.050  10.960  2.7299 -1.6652 -0.2115
  145SAPE  H12B15911   1.723   2.939  10.974  0.0637  1.8273  1.6595
  145SAPE   C1115912   1.800   2.982  10.773  0.2742  0.3942  0.5493
  145SAPE  H11A15913   1.886   3.022  10.715 -0.7394 -0.0839 -1.3414
  145SAPE  H11B15914   1.734   3.070  10.757  0.2563  0.2809 -0.0141
  145SAPE     P15915   1.605   2.838  10.648 -0.3366  0.2248 -0.5158
  145SAPE   O1315916   1.520   2.769  10.750 -0.7439  0.0049 -0.5305
  145SAPE   O1415917   1.546   2.958  10.585 -0.1611  0.0900 -0.0977
  145SAPE   O1215918   1.753   2.868  10.708  0.8594  0.3593  0.9509
  145SAPE   O1115919   1.626   2.732  10.538  0.5457 -0.5929 -0.3769
  145SAPE    C115920   1.748   2.672  10.507 -0.6018 -0.0670 -0.2594
  145SAPE    HA15921   1.827   2.667  10.585 -4.1431 -1.3112  3.3986
  145SAPE    HB15922   1.736   2.564  10.485  2.0459 -0.8894  2.0311
  145SAPE    C215923   1.806   2.731  10.374  0.0263  0.3421  0.4598
  145SAPE    HS15924   1.825   2.840  10.385 -1.0192  0.8622 -2.4499
  145SAPE   O2115925   1.715   2.707  10.275 -0.3166  0.6195  0.2080
  145SAPE   C2115926   1.716   2.787  10.168  0.1629  0.4251 -0.1976
  145SAPE   O2215927   1.802   2.872  10.147  0.4899  0.7465 -0.7222
  145SAPE   C2215928   1.594   2.747  10.076  0.3555  0.1583 -0.0510
  145SAPE   H2R15929   1.622   2.659  10.014 -1.0946  0.1451 -0.7166
  145SAPE   H2S15930   1.501   2.731  10.133  0.2803  0.7625 -0.0060
  145SAPE    C315931   1.948   2.667  10.352 -0.1617 -0.4843 -0.0190
  145SAPE    HX15932   1.942   2.566  10.397  1.0643 -0.5146  0.0892
  145SAPE    HY15933   2.021   2.704  10.427 -3.4670 -0.2647  3.2301
  145SAPE   O3115934   1.999   2.647  10.217 -0.0072  0.3578  0.2516
  145SAPE   C3115935   2.077   2.745  10.166 -0.1362 -0.2217 -1.0517
  145SAPE   O3215936   2.121   2.838  10.230  0.4599  0.3793  0.3361
  145SAPE   C3215937   2.106   2.718  10.023 -0.0889 -0.8620 -0.0494
  145SAPE   H2X15938   2.026   2.757   9.956  0.0229 -0.4033  0.0830
  145SAPE   H2Y15939   2.115   2.611   9.997  1.9224 -0.9169  0.7687
  145SAPE   C2315940   1.578   2.860   9.975  0.7029 -0.6094 -0.0945
  145SAPE   H3R15941   1.658   2.861   9.898 -3.1199 -1.9140 -4.2844
  145SAPE   H3S15942   1.580   2.963  10.017  0.3512  0.2592 -2.1632
  145SAPE   C2415943   1.445   2.844   9.890 -0.5382 -0.4143  0.8167
  145SAPE   H4R15944   1.366   2.859   9.968 -0.1979 -3.1128  1.7399
  145SAPE   H4S15945   1.438   2.737   9.863  1.2805 -0.1058 -0.8851
  145SAPE   C2515946   1.440   2.935   9.770 -0.3920  0.8157 -0.1845
  145SAPE   H5R15947   1.504   3.024   9.773  1.4420 -0.4996  0.7989
  145SAPE   C2615948   1.373   2.910   9.654 -0.3934 -0.0417  0.3296
  145SAPE   H6R15949   1.391   2.991   9.582  1.7791 -0.7343  0.0370
  145SAPE   C2715950   1.282   2.788   9.626 -0.0582  0.5519  0.1973
  145SAPE   H7R15951   1.186   2.819   9.581  0.8164  0.9970 -1.4012
  145SAPE   H7S15952   1.249   2.724   9.711  1.1276  1.2147  1.1748
  145SAPE   C2815953   1.357   2.704   9.525 -0.3219  0.3779  0.0746
  145SAPE   H8R15954   1.417   2.624   9.571  0.7533  2.6917  2.8847
  145SAPE   C2915955   1.359   2.705   9.392 -0.0047 -0.1675 -0.6939
  145SAPE   H9R15956   1.415   2.623   9.343 -0.8562 -1.1838  0.0191
  145SAPE  C21015957   1.285   2.794   9.296 -0.6392  0.0301 -0.0085
  145SAPE  H10R15958   1.212   2.841   9.366  0.0659  0.5460  0.3938
  145SAPE  H10S15959   1.232   2.736   9.217  0.1990 -0.2696 -0.3557
  145SAPE  C21115960   1.375   2.881   9.226 -0.2905  0.1735  0.0569
  145SAPE  H11R15961   1.407   2.967   9.287  0.1187 -1.3066  2.0096
  145SAPE  C21215962   1.429   2.858   9.107 -0.1100  0.2890  0.0510
  145SAPE  H12R15963   1.501   2.935   9.075 -0.7505  0.0684 -1.9652
  145SAPE  C21315964   1.409   2.737   9.017 -0.2773  0.8726  0.2067
  145SAPE  H13R15965   1.390   2.646   9.079  0.6306  1.8197  1.9134
  145SAPE  H13S15966   1.501   2.719   8.957 -0.6272 -0.0159 -0.0824
  145SAPE  C21415967   1.287   2.753   8.928 -0.6305  0.1387 -0.6142
  145SAPE  H14R15968   1.228   2.844   8.938 -0.8799  0.3508 -3.5677
  145SAPE  C21515969   1.248   2.667   8.835  0.3428  0.0843 -0.2035
  145SAPE  H15R15970   1.170   2.694   8.763 -0.8097  0.9993  1.3553
  145SAPE  C21615971   1.328   2.548   8.788  0.1085 -0.5193  0.4234
  145SAPE  H16R15972   1.434   2.555   8.819 -0.1560  0.4774  1.1516
  145SAPE  H16S15973   1.335   2.546   8.677  1.6569  4.4504  0.3109
  145SAPE  C21715974   1.271   2.419   8.847  0.6356  0.2950  0.5737
  145SAPE  H17R15975   1.164   2.414   8.818  0.4157  2.8923  0.8491
  145SAPE  H17S15976   1.280   2.431   8.957  2.0399 -0.9421  0.6139
  145SAPE  C21815977   1.354   2.298   8.806 -0.9722 -0.5723 -0.2148
  145SAPE  H18R15978   1.448   2.303   8.864 -0.7883  0.6807 -0.6095
  145SAPE  H18S15979   1.392   2.307   8.702 -0.1746 -1.3601  0.0069
  145SAPE  C21915980   1.284   2.158   8.828 -0.1937  0.0577 -0.0512
  145SAPE  H19R15981   1.286   2.126   8.934 -1.6379 -0.2063 -0.0861
  145SAPE  H19S15982   1.342   2.079   8.775  0.2495  0.7025 -0.5292
  145SAPE  C22015983   1.149   2.139   8.756 -0.5231 -0.6490 -0.9360
  145SAPE  H20R15984   1.129   2.038   8.716 -1.2210 -1.3297  1.0683
  145SAPE  H20S15985   1.143   2.209   8.670  1.2568  0.6063 -0.0730
  145SAPE  H20T15986   1.074   2.169   8.833 -0.9173 -0.2043 -1.4861
  145SAPE   C3315987   2.241   2.789   9.984  0.4463 -0.4871 -0.0256
  145SAPE   H3X15988   2.319   2.760  10.057  1.0849 -1.3869 -1.0476
  145SAPE   H3Y15989   2.230   2.899   9.976  1.2429 -0.4963 -1.4254
  145SAPE   C3415990   2.284   2.766   9.838  0.3980  0.2573 -0.0361
  145SAPE   H4X15991   2.303   2.657   9.824  0.8775  0.7506 -3.7981
  145SAPE   H4Y15992   2.375   2.822   9.809  2.5199 -2.6127  0.8400
  145SAPE   C3515993   2.175   2.806   9.738 -0.4799  0.5369  0.6175
  145SAPE   H5X15994   2.142   2.907   9.771 -0.7219  0.3076  1.0874
  145SAPE   H5Y15995   2.080   2.748   9.747 -0.1575 -0.2532 -0.9702
  145SAPE   C3615996   2.225   2.819   9.591 -0.0390  0.0164  0.5157
  145SAPE   H6X15997   2.302   2.899   9.596 -0.2278  0.5682 -3.5533
  145SAPE   H6Y15998   2.138   2.846   9.526  0.4544 -1.0952 -0.6259
  145SAPE   C3715999   2.266   2.690   9.535 -0.0662 -0.1583 -0.2431
  145SAPE   H7X16000   2.177   2.625   9.545 -1.4723  1.9917  1.6816
  145SAPE   H7Y16001   2.338   2.643   9.605 -0.0153  2.1009  1.2788
  145SAPE   C3816002   2.322   2.692   9.389  0.3372 -0.8063 -0.0178
  145SAPE   H8X16003   2.348   2.586   9.367 -1.5806 -1.0535 -1.1663
  145SAPE   H8Y16004   2.412   2.756   9.394 -0.9168  0.9831  0.2106
  145SAPE   C3916005   2.223   2.743   9.289  0.6295 -0.0351 -0.5697
  145SAPE   H9X16006   2.250   2.851   9.282 -1.2288  0.6045  1.5137
  145SAPE   H9Y16007   2.122   2.729   9.333  1.4659  0.5822  1.6053
  145SAPE  C31016008   2.229   2.680   9.155 -0.5372  0.9614  0.7071
  145SAPE  H10X16009   2.180   2.742   9.077  1.0023  2.2030  0.6929
  145SAPE  H10Y16010   2.185   2.579   9.165  0.5030  0.5071  0.6930
  145SAPE  C31116011   2.373   2.672   9.097  0.0516  0.4311 -0.3874
  145SAPE  H11X16012   2.429   2.595   9.154  1.6360 -0.9031 -3.5947
  145SAPE  H11Y16013   2.423   2.769   9.121  0.1961 -0.0648  1.3797
  145SAPE  C31216014   2.374   2.629   8.951 -1.0129 -0.0930  0.0619
  145SAPE  H12X16015   2.477   2.590   8.935 -0.3736  1.7745 -0.5562
  145SAPE  H12Y16016   2.360   2.709   8.875  1.0927 -0.7082 -1.0213
  145SAPE  C31316017   2.276   2.517   8.914 -0.1066  0.6376  0.0312
  145SAPE  H13X16018   2.175   2.559   8.894  0.1256  1.4495  0.4952
  145SAPE  H13Y16019   2.262   2.444   8.997 -1.7813  0.1705 -0.6466
  145SAPE  C31416020   2.331   2.453   8.780  0.1533 -0.1274 -0.9821
  145SAPE  H14X16021   2.424   2.398   8.808  0.9492  0.8491 -1.6867
  145SAPE  H14Y16022   2.365   2.537   8.716 -1.5202  0.3714 -1.2228
  145SAPE  C31516023   2.220   2.376   8.714 -0.1674  0.1902  0.3930
  145SAPE  H15X16024   2.266   2.331   8.624  2.1435  3.6348 -0.2621
  145SAPE  H15Y16025   2.150   2.452   8.674 -2.0161 -0.6847  1.8870
  145SAPE  C31616026   2.153   2.268   8.800 -0.4424  0.5339 -0.0670
  145SAPE  H16X16027   2.112   2.314   8.892  3.1241 -1.5528  2.6624
  145SAPE  H16Y16028   2.232   2.200   8.836  0.0152  1.2002  0.1929
  145SAPE  C31716029   2.039   2.187   8.732 -0.2458  0.1259 -0.0556
  145SAPE  H17X16030   2.094   2.106   8.679 -0.1450 -0.7322  1.3307
  145SAPE  H17Y16031   1.976   2.249   8.664 -1.2539  0.4887  1.1931
  145SAPE  C31816032   1.943   2.116   8.828  0.5975  0.2592 -0.6439
  145SAPE  H18X16033   2.000   2.057   8.903  1.8712  1.3251 -0.7671
  145SAPE  H18Y16034   1.862   2.061   8.775 -0.1934  1.5161 -0.7457
  145SAPE  H18Z16035   1.887   2.195   8.882 -1.7520 -0.9502 -1.2483
  146SAPE     N16036   1.572   4.537  10.545 -0.1666 -0.5130  0.7938
  146SAPE   HN116037   1.613   4.500  10.633 -0.7914  1.2080  1.8366
  146SAPE   HN216038   1.507   4.467  10.506  0.8839 -0.7584 -0.5574
  146SAPE   HN316039   1.642   4.550  10.469  0.7815 -1.2787  1.5180
  146SAPE   C1216040   1.498   4.663  10.578  0.5537  0.5084  0.3774
  146SAPE  H12A16041   1.443   4.700  10.489 -1.7361 -1.8357  0.7521
  146SAPE  H12B16042   1.574   4.733  10.619  1.7756 -0.6646  0.1561
  146SAPE   C1116043   1.393   4.621  10.683 -0.4424  0.1979 -0.7910
  146SAPE  H11A16044   1.333   4.708  10.717 -0.9173 -1.3004  2.4087
  146SAPE  H11B16045   1.451   4.591  10.773 -0.4108  0.7139 -0.6409
  146SAPE     P16046   1.176   4.460  10.711 -0.1777 -0.0595  0.0142
  146SAPE   O1316047   1.176   4.313  10.726  0.2388 -0.3443 -0.2393
  146SAPE   O1416048   1.154   4.541  10.834  0.7521  0.6432  0.1352
  146SAPE   O1216049   1.311   4.511  10.636 -1.3342  0.4134  0.2604
  146SAPE   O1116050   1.066   4.489  10.606  0.4021 -0.5367  0.1119
  146SAPE    C116051   1.003   4.620  10.589  1.0498 -0.2870 -0.0327
  146SAPE    HA16052   0.901   4.611  10.633  1.3005  1.7188  0.9960
  146SAPE    HB16053   1.049   4.702  10.649  2.0019  0.6424 -1.9972
  146SAPE    C216054   1.011   4.677  10.446  0.3817  0.0856  0.2781
  146SAPE    HS16055   0.950   4.768  10.460  0.3612 -0.0442  1.0505
  146SAPE   O2116056   0.943   4.585  10.358 -0.1956 -0.2634 -0.0524
  146SAPE   C2116057   0.813   4.574  10.351  0.1601 -0.3963  0.5196
  146SAPE   O2216058   0.741   4.634  10.428 -0.0873  0.1608  0.3408
  146SAPE   C2216059   0.763   4.487  10.238  0.0467  0.2034 -0.4347
  146SAPE   H2R16060   0.825   4.396  10.219 -2.5321 -2.1603  1.9755
  146SAPE   H2S16061   0.663   4.450  10.267 -1.5809  3.8174 -1.2690
  146SAPE    C316062   1.151   4.713  10.400  0.6706 -0.1643  0.1969
  146SAPE    HX16063   1.204   4.616  10.385  1.5578  0.4082 -0.3906
  146SAPE    HY16064   1.205   4.777  10.473 -0.5681 -1.5247  2.3905
  146SAPE   O3116065   1.152   4.774  10.273  0.2798 -0.0659 -0.1608
  146SAPE   C3116066   1.255   4.761  10.189 -0.6101  0.5370 -0.1335
  146SAPE   O3216067   1.352   4.696  10.217 -0.0334 -0.2223  0.3264
  146SAPE   C3216068   1.234   4.865  10.071 -0.2858  0.4685  0.3075
  146SAPE   H2X16069   1.240   4.963  10.122 -1.8138  0.8479 -0.2219
  146SAPE   H2Y16070   1.138   4.849  10.018 -0.5666 -0.8257  1.1941
  146SAPE   C2316071   0.744   4.566  10.113  0.1187  0.3252 -0.1524
  146SAPE   H3R16072   0.663   4.640  10.133 -0.1015  0.1420 -0.3730
  146SAPE   H3S16073   0.703   4.512  10.026  0.5922  1.4928 -1.1074
  146SAPE   C2416074   0.872   4.644  10.056  0.4704  0.1102  0.1746
  146SAPE   H4R16075   0.921   4.701  10.138  2.0541 -2.2303  0.8899
  146SAPE   H4S16076   0.823   4.719   9.991 -0.2143 -0.1487  0.3833
  146SAPE   C2516077   0.977   4.567   9.984  0.3041 -0.4180  0.1885
  146SAPE   H5R16078   1.063   4.518  10.032  0.0685 -0.4587  0.5722
  146SAPE   C2616079   0.974   4.544   9.850 -0.1846  0.0123 -0.1223
  146SAPE   H6R16080   1.058   4.490   9.805 -1.8968 -1.4833 -1.6182
  146SAPE   C2716081   0.868   4.573   9.747 -0.4846  0.3402  0.0006
  146SAPE   H7R16082   0.865   4.683   9.731  0.7778  0.1783 -1.4898
  146SAPE   H7S16083   0.767   4.550   9.787 -0.2297  0.0054  0.4462
  146SAPE   C2816084   0.876   4.509   9.608  0.2295  0.0043  0.3954
  146SAPE   H8R16085   0.795   4.444   9.573 -0.5998  0.6903  1.0148
  146SAPE   C2916086   0.979   4.528   9.516  0.5299  0.1143 -0.3360
  146SAPE   H9R16087   0.975   4.459   9.431 -0.6042 -2.9214  2.0927
  146SAPE  C21016088   1.110   4.606   9.533  0.1688  0.2475 -0.1610
  146SAPE  H10R16089   1.172   4.592   9.442 -0.2236  1.3917 -0.6246
  146SAPE  H10S16090   1.176   4.578   9.618  2.8849  0.0899 -2.2662
  146SAPE  C21116091   1.089   4.756   9.559 -0.5798 -0.3774 -0.8997
  146SAPE  H11R16092   1.091   4.780   9.666 -1.7410 -2.4698 -0.3695
  146SAPE  C21216093   1.099   4.859   9.471  0.0426  0.6033  0.1896
  146SAPE  H12R16094   1.071   4.961   9.500 -1.8016 -0.2155  1.3595
  146SAPE  C21316095   1.115   4.842   9.321  0.1581 -0.6704 -0.4455
  146SAPE  H13R16096   1.188   4.764   9.292  1.2915  0.1874  0.0783
  146SAPE  H13S16097   1.146   4.938   9.274  0.4915 -1.1052 -1.1104
  146SAPE  C21416098   0.979   4.796   9.265  0.5662  0.1246 -0.4847
  146SAPE  H14R16099   0.931   4.702   9.293 -0.2721  0.7769  0.2785
  146SAPE  C21516100   0.900   4.863   9.176  0.4032  0.5095  0.3486
  146SAPE  H15R16101   0.801   4.819   9.158  0.9169  0.2439 -2.0469
  146SAPE  C21616102   0.926   4.994   9.109 -0.4419 -0.6393 -0.4582
  146SAPE  H16R16103   1.000   5.048   9.172 -0.8446 -0.0116 -0.5112
  146SAPE  H16S16104   0.834   5.057   9.108 -0.4793 -0.6410  0.9923
  146SAPE  C21716105   0.996   4.985   8.972  0.1889  0.2317  0.5047
  146SAPE  H17R16106   1.078   4.911   8.985 -1.7015 -1.9715  0.0223
  146SAPE  H17S16107   1.044   5.085   8.957  0.6926 -0.0441  0.2635
  146SAPE  C21816108   0.908   4.944   8.849 -0.4073 -0.6474 -0.2338
  146SAPE  H18R16109   0.842   5.027   8.817  2.1648  0.6036 -2.4759
  146SAPE  H18S16110   0.846   4.862   8.891  0.0016 -0.4135  0.8564
  146SAPE  C21916111   0.996   4.893   8.731  0.5151 -0.2839  0.5749
  146SAPE  H19R16112   1.041   4.799   8.769 -1.1861 -0.5443  2.0370
  146SAPE  H19S16113   1.079   4.965   8.716 -0.6714  0.5572 -2.2489
  146SAPE  C22016114   0.928   4.878   8.597  0.9656  0.7190  0.0206
  146SAPE  H20R16115   0.829   4.828   8.605  1.2141 -0.2162 -2.4340
  146SAPE  H20S16116   0.998   4.832   8.525  1.8932 -0.5092  1.6922
  146SAPE  H20T16117   0.908   4.980   8.557  0.2194 -0.0241 -1.5274
  146SAPE   C3316118   1.344   4.842   9.969 -0.7652  0.4416 -0.5219
  146SAPE   H3X16119   1.357   4.732   9.964  2.1082  0.6552  1.5020
  146SAPE   H3Y16120   1.437   4.883  10.014 -0.4645 -1.0151  0.1980
  146SAPE   C3416121   1.302   4.901   9.832  0.6200  0.0012 -0.3670
  146SAPE   H4X16122   1.199   4.879   9.796 -0.1535  0.6854  1.3510
  146SAPE   H4Y16123   1.378   4.857   9.765 -0.8380 -0.4862 -1.7251
  146SAPE   C3516124   1.315   5.055   9.830 -0.1311 -0.0202 -0.0088
  146SAPE   H5X16125   1.420   5.079   9.860  0.0116  1.7810 -1.8034
  146SAPE   H5Y16126   1.245   5.091   9.908  0.2399 -1.1783  0.8673
  146SAPE   C3616127   1.278   5.111   9.694 -0.9305 -0.0003  0.0572
  146SAPE   H6X16128   1.241   5.214   9.710  2.2893  1.3610 -0.8833
  146SAPE   H6Y16129   1.196   5.046   9.655 -1.5685  0.3623  0.7829
  146SAPE   C3716130   1.383   5.106   9.586  0.5520  0.0005 -0.4115
  146SAPE   H7X16131   1.400   4.997   9.578  0.0482 -0.1801  0.7988
  146SAPE   H7Y16132   1.471   5.152   9.636  0.7247 -1.6157  0.8027
  146SAPE   C3816133   1.355   5.173   9.450 -0.5886  0.2552  1.0976
  146SAPE   H8X16134   1.342   5.283   9.459 -1.0236  0.3170 -0.3118
  146SAPE   H8Y16135   1.259   5.122   9.430 -1.2907  2.4909 -1.4493
  146SAPE   C3916136   1.443   5.137   9.328 -0.4780  0.4803 -0.2460
  146SAPE   H9X16137   1.469   5.029   9.339  0.9053  0.6928 -1.3054
  146SAPE   H9Y16138   1.536   5.196   9.336 -1.0079  1.4585 -1.1874
  146SAPE  C31016139   1.369   5.158   9.198  0.3662  0.1527  0.7840
  146SAPE  H10X16140   1.362   5.266   9.176  0.0502  0.0614  0.4378
  146SAPE  H10Y16141   1.268   5.111   9.204 -0.3213  1.5529  0.3965
  146SAPE  C31116142   1.439   5.083   9.081 -0.3679  0.4967  0.7620
  146SAPE  H11X16143   1.395   4.981   9.075 -3.1060  1.7553 -2.3309
  146SAPE  H11Y16144   1.543   5.063   9.115 -0.2056 -0.6692 -0.3576
  146SAPE  C31216145   1.438   5.148   8.943 -1.2612 -0.0410 -0.7345
  146SAPE  H12X16146   1.498   5.098   8.864 -0.6814 -1.1516  0.4115
  146SAPE  H12Y16147   1.483   5.250   8.944 -2.0315  0.3005  1.5853
  146SAPE  C31316148   1.299   5.164   8.892  0.6773 -0.5223 -0.0354
  146SAPE  H13X16149   1.238   5.222   8.964  1.7683  0.8590 -0.2027
  146SAPE  H13Y16150   1.255   5.062   8.888 -1.7316  0.5448 -2.2056
  146SAPE  C31416151   1.286   5.227   8.749 -0.1866  0.0430 -0.4293
  146SAPE  H14X16152   1.176   5.239   8.737 -0.5409 -1.7389  0.8151
  146SAPE  H14Y16153   1.330   5.154   8.678  2.2315  0.9528  0.0961
  146SAPE  C31516154   1.358   5.361   8.715  0.6797 -0.4699 -0.8270
  146SAPE  H15X16155   1.466   5.347   8.739  0.0402 -0.6961  2.0527
  146SAPE  H15Y16156   1.327   5.443   8.783  0.2574 -2.5182  1.5152
  146SAPE  C31616157   1.324   5.416   8.574  0.4351 -0.1777 -0.0310
  146SAPE  H16X16158   1.328   5.527   8.585 -2.3253 -0.0327  0.1023
  146SAPE  H16Y16159   1.219   5.383   8.559  0.2041 -0.7526  2.6248
  146SAPE  C31716160   1.414   5.364   8.466  0.5711  0.4998 -0.5824
  146SAPE  H17X16161   1.368   5.395   8.370 -1.8701 -0.7919  0.1374
  146SAPE  H17Y16162   1.402   5.254   8.472  0.0474  0.5021 -1.4693
  146SAPE  C31816163   1.561   5.407   8.475 -0.1592 -0.5134  0.0456
  146SAPE  H18X16164   1.616   5.368   8.563  1.1628 -2.0041 -1.3872
  146SAPE  H18Y16165   1.555   5.518   8.477  1.3155 -0.4660  2.7001
  146SAPE  H18Z16166   1.612   5.376   8.381  2.9958 -1.5452  2.0558
  147SAPE     N16167   2.349   0.554  10.514  0.0695 -0.0527  0.0152
  147SAPE   HN116168   2.386   0.491  10.589 -0.6488 -0.7248 -0.1793
  147SAPE   HN216169   2.304   0.488  10.448 -1.6464  2.3878 -1.3051
  147SAPE   HN316170   2.425   0.596  10.458  1.7270 -2.2856  0.4862
  147SAPE   C1216171   2.254   0.655  10.573  0.0563  0.0501 -0.1097
  147SAPE  H12A16172   2.192   0.681  10.484  1.1677  0.6486 -0.7246
  147SAPE  H12B16173   2.310   0.748  10.596  3.1317 -1.3059 -1.7495
  147SAPE   C1116174   2.185   0.605  10.703  0.2614 -0.4425  0.1624
  147SAPE  H11A16175   2.129   0.696  10.732  0.6229 -0.1705  0.0073
  147SAPE  H11B16176   2.266   0.586  10.776 -0.7786 -1.0091  1.1927
  147SAPE     P16177   2.011   0.441  10.790 -0.2806 -0.2140  0.3069
  147SAPE   O1316178   2.051   0.302  10.832 -0.2043 -0.4017 -0.2555
  147SAPE   O1416179   1.996   0.546  10.897  0.0801  1.1347 -0.1392
  147SAPE   O1216180   2.098   0.497  10.673 -0.7085 -0.3302 -0.1773
  147SAPE   O1116181   1.865   0.435  10.724  0.1560  0.3720 -0.5486
  147SAPE    C116182   1.834   0.449  10.585 -0.0552 -0.1425 -0.4752
  147SAPE    HA16183   1.723   0.451  10.580 -0.0305 -1.2177 -1.5423
  147SAPE    HB16184   1.884   0.538  10.541 -1.6896  0.8644 -0.3082
  147SAPE    C216185   1.861   0.318  10.500 -0.0741 -0.7067 -0.1293
  147SAPE    HS16186   1.971   0.308  10.492 -0.2240 -2.4495 -0.1403
  147SAPE   O2116187   1.798   0.336  10.377 -0.1228 -0.1089  0.1103
  147SAPE   C2116188   1.879   0.358  10.270  0.3501  0.0276 -0.2472
  147SAPE   O2216189   1.999   0.361  10.280  0.0337 -0.1319  0.2551
  147SAPE   C2216190   1.788   0.332  10.150 -0.7778 -0.6716  0.2605
  147SAPE   H2R16191   1.770   0.223  10.138  2.7274 -1.2112 -0.4282
  147SAPE   H2S16192   1.698   0.390  10.179 -1.5698 -1.2423 -0.9981
  147SAPE    C316193   1.811   0.193  10.582 -0.3277 -0.4771  0.0588
  147SAPE    HX16194   1.707   0.211  10.615 -0.1788  0.6242 -0.0639
  147SAPE    HY16195   1.869   0.186  10.676 -1.3322 -0.6973  0.6702
  147SAPE   O3116196   1.816   0.070  10.504 -0.3210  0.8329 -0.6508
  147SAPE   C3116197   1.944   0.020  10.483  0.7358  0.2121  0.6913
  147SAPE   O3216198   2.046   0.060  10.540 -0.4491  0.0098 -0.1739
  147SAPE   C3216199   1.943  -0.073  10.365  0.0911  0.0633 -0.4547
  147SAPE   H2X16200   1.849  -0.056  10.308 -0.3724  1.2371  0.6276
  147SAPE   H2Y16201   1.951  -0.178  10.400 -1.0317  0.4442  1.0182
  147SAPE   C2316202   1.844   0.394  10.012 -0.4264 -0.0101  0.1704
  147SAPE   H3R16203   1.899   0.486  10.038  2.0154 -1.9134  2.0377
  147SAPE   H3S16204   1.758   0.417   9.946  0.6583 -0.5092 -1.4322
  147SAPE   C2416205   1.941   0.299   9.934  0.5126  0.3234  0.8561
  147SAPE   H4R16206   1.893   0.202   9.909  2.4234 -0.2708 -0.6869
  147SAPE   H4S16207   2.028   0.273   9.998 -0.7179 -2.2348  1.5835
  147SAPE   C2516208   1.985   0.371   9.810 -0.5600  0.0133  0.9909
  147SAPE   H5R16209   1.933   0.467   9.796 -0.5841 -0.1673 -0.1847
  147SAPE   C2616210   2.073   0.336   9.715 -0.7898  0.3843 -0.1693
  147SAPE   H6R16211   2.116   0.412   9.648  2.6973 -1.2913  0.0555
  147SAPE   C2716212   2.147   0.202   9.708 -0.2073  0.0946 -0.4270
  147SAPE   H7R16213   2.160   0.165   9.604 -0.6910 -0.1037 -0.4232
  147SAPE   H7S16214   2.093   0.117   9.754  0.3815  0.3705  0.8042
  147SAPE   C2816215   2.278   0.215   9.772 -0.5309 -0.0245 -1.0534
  147SAPE   H8R16216   2.276   0.258   9.873 -2.5416 -2.1527 -0.1615
  147SAPE   C2916217   2.394   0.179   9.711  0.0087 -0.7126 -0.1033
  147SAPE   H9R16218   2.487   0.196   9.766 -0.0441 -0.4783 -0.0877
  147SAPE  C21016219   2.411   0.121   9.573 -0.1139  0.9943  0.2969
  147SAPE  H10R16220   2.352   0.181   9.501  0.1577  0.2545 -0.5494
  147SAPE  H10S16221   2.382   0.014   9.571 -0.3365  0.9766  2.4397
  147SAPE  C21116222   2.555   0.113   9.524 -0.5157 -0.1159 -0.0789
  147SAPE  H11R16223   2.637   0.123   9.596  0.2094  1.9736 -1.1473
  147SAPE  C21216224   2.591   0.128   9.395 -0.1447 -0.7352  0.3376
  147SAPE  H12R16225   2.692   0.157   9.365  0.5007 -0.7496  2.3927
  147SAPE  C21316226   2.497   0.141   9.277 -0.2955 -0.0431  0.1997
  147SAPE  H13R16227   2.476   0.249   9.257  0.0286  0.2010  1.1755
  147SAPE  H13S16228   2.395   0.109   9.309 -0.5104  0.8297  0.4328
  147SAPE  C21416229   2.541   0.064   9.150 -0.4589 -0.3125 -0.5421
  147SAPE  H14R16230   2.523  -0.044   9.157 -0.4604 -0.3403 -0.9502
  147SAPE  C21516231   2.598   0.115   9.044 -0.4594 -0.4927 -0.1811
  147SAPE  H15R16232   2.610   0.054   8.953 -1.0315 -1.5501  0.4388
  147SAPE  C21616233   2.626   0.261   9.024  1.3358  0.0145 -0.3505
  147SAPE  H16R16234   2.734   0.278   9.043  1.1662 -0.2365  0.8485
  147SAPE  H16S16235   2.581   0.335   9.094 -1.2559 -1.3955 -0.4518
  147SAPE  C21716236   2.592   0.312   8.880  0.0063  1.0119  0.3150
  147SAPE  H17R16237   2.624   0.244   8.798 -2.4280  1.8064 -1.3341
  147SAPE  H17S16238   2.653   0.399   8.849  1.7749 -0.1128  0.5372
  147SAPE  C21816239   2.445   0.352   8.859 -0.3310 -0.8991  0.0677
  147SAPE  H18R16240   2.418   0.453   8.895  1.8658 -0.7414  1.3525
  147SAPE  H18S16241   2.388   0.276   8.918  0.0974  0.3507  2.1229
  147SAPE  C21916242   2.411   0.329   8.710  0.1220 -0.1481 -0.7397
  147SAPE  H19R16243   2.301   0.334   8.697  0.3061  3.9692 -1.5186
  147SAPE  H19S16244   2.423   0.219   8.696  0.4470  0.2382 -3.7215
  147SAPE  C22016245   2.473   0.418   8.604 -0.5624 -0.1104  0.0633
  147SAPE  H20R16246   2.452   0.375   8.503 -0.2078  0.2051 -0.1485
  147SAPE  H20S16247   2.583   0.409   8.616 -0.6397 -1.5077 -0.2086
  147SAPE  H20T16248   2.435   0.523   8.603 -2.2010 -0.6898  0.9517
  147SAPE   C3316249   2.064  -0.053  10.264  0.6247  0.6372 -0.4263
  147SAPE   H3X16250   2.167  -0.056  10.306  0.5064 -2.2567 -0.2769
  147SAPE   H3Y16251   2.065   0.047  10.214 -3.3168  1.4862  1.0451
  147SAPE   C3416252   2.041  -0.143  10.143 -0.3045 -0.4271  0.8182
  147SAPE   H4X16253   1.936  -0.145  10.108 -0.0906  0.1154  0.1265
  147SAPE   H4Y16254   2.058  -0.249  10.172  0.5309 -0.4324  0.3573
  147SAPE   C3516255   2.131  -0.107  10.016  0.5377 -0.0611 -0.2003
  147SAPE   H5X16256   2.240  -0.097  10.035  0.6647 -0.3342 -0.7889
  147SAPE   H5Y16257   2.093  -0.007   9.986 -1.1786 -1.5066 -3.0136
  147SAPE   C3616258   2.116  -0.204   9.909  0.0112  0.4614  0.0668
  147SAPE   H6X16259   2.010  -0.197   9.877 -0.2571  3.7392  1.4268
  147SAPE   H6Y16260   2.137  -0.310   9.936 -0.1784  0.6240  0.8687
  147SAPE   C3716261   2.187  -0.171   9.780  0.5493 -0.3164  0.3652
  147SAPE   H7X16262   2.287  -0.219   9.790  0.8320 -0.6377 -3.2482
  147SAPE   H7Y16263   2.195  -0.060   9.786 -1.2423 -0.1920  0.7415
  147SAPE   C3816264   2.104  -0.211   9.651 -0.2835 -0.6779 -0.2477
  147SAPE   H8X16265   2.003  -0.173   9.678 -0.2596 -1.2988  0.7396
  147SAPE   H8Y16266   2.088  -0.321   9.649 -3.2228 -0.4008  2.9104
  147SAPE   C3916267   2.153  -0.153   9.515 -0.8173  0.2410  0.2411
  147SAPE   H9X16268   2.254  -0.195   9.493 -0.9373 -0.5964  1.2645
  147SAPE   H9Y16269   2.163  -0.043   9.526  2.5547  0.3112 -2.4522
  147SAPE  C31016270   2.064  -0.199   9.406  0.5554  0.0461 -0.1126
  147SAPE  H10X16271   1.963  -0.203   9.450  0.4640  1.7054 -0.1456
  147SAPE  H10Y16272   2.080  -0.304   9.375  0.9501  0.3069 -0.8229
  147SAPE  C31116273   2.080  -0.111   9.281  0.1019  0.1910 -0.5324
  147SAPE  H11X16274   2.099  -0.007   9.315 -0.5150  0.0775  0.1766
  147SAPE  H11Y16275   1.986  -0.119   9.222  0.9048 -1.3047 -1.6502
  147SAPE  C31216276   2.181  -0.154   9.175  0.1717  0.3631  0.1321
  147SAPE  H12X16277   2.162  -0.260   9.148  0.4259  0.2479  0.4077
  147SAPE  H12Y16278   2.278  -0.158   9.230 -1.3898 -1.7212  2.8764
  147SAPE  C31316279   2.181  -0.056   9.054  0.4157 -0.2536 -0.0160
  147SAPE  H13X16280   2.197   0.045   9.099 -0.6982  0.3603 -0.9808
  147SAPE  H13Y16281   2.082  -0.059   9.003 -0.0081  3.4482  0.4218
  147SAPE  C31416282   2.286  -0.100   8.946 -0.8693  0.7865 -0.7868
  147SAPE  H14X16283   2.266  -0.207   8.924 -0.4471  0.3456  0.8821
  147SAPE  H14Y16284   2.385  -0.099   8.995 -0.8722 -1.2887 -0.6634
  147SAPE  C31516285   2.302  -0.015   8.818 -0.0718 -0.0250 -0.0072
  147SAPE  H15X16286   2.356   0.077   8.851 -0.3707 -0.7929  2.7896
  147SAPE  H15Y16287   2.208   0.014   8.766  2.2514  2.0598 -3.2165
  147SAPE  C31616288   2.389  -0.082   8.711 -0.0826  0.2106  0.0897
  147SAPE  H16X16289   2.458  -0.160   8.749 -1.9025 -2.7881 -2.4934
  147SAPE  H16Y16290   2.446   0.002   8.667  1.8886 -1.1436  0.0035
  147SAPE  C31716291   2.303  -0.145   8.595 -0.1943 -0.6252 -0.4062
  147SAPE  H17X16292   2.368  -0.187   8.516  0.4118  0.7544 -0.6616
  147SAPE  H17Y16293   2.239  -0.069   8.547 -2.9257 -1.7611  1.2910
  147SAPE  C31816294   2.215  -0.269   8.628 -0.4151  0.2226  0.5824
  147SAPE  H18X16295   2.150  -0.246   8.715 -1.1144  1.3633 -0.2353
  147SAPE  H18Y16296   2.278  -0.357   8.654 -2.3410 -0.8089  1.9080
  147SAPE  H18Z16297   2.140  -0.290   8.549 -0.3403 -0.2146  0.6266
  148SAPE     N16298   3.231   1.950  10.676  0.2830 -0.1406  0.5535
  148SAPE   HN116299   3.260   1.852  10.656  2.2055  0.8951 -1.8698
  148SAPE   HN216300   3.282   1.985  10.759  4.4311 -2.3825 -0.9093
  148SAPE   HN316301   3.134   1.941  10.714  0.4840 -0.4927  0.9962
  148SAPE   C1216302   3.235   2.031  10.544 -0.1383 -0.0247 -0.3457
  148SAPE  H12A16303   3.219   1.956  10.464  2.1235  1.4704 -2.2993
  148SAPE  H12B16304   3.333   2.074  10.514 -1.6693  1.6505 -3.2453
  148SAPE   C1116305   3.129   2.145  10.547  0.6383  0.5059 -0.6209
  148SAPE  H11A16306   3.029   2.102  10.569  1.0855 -0.3488 -0.2553
  148SAPE  H11B16307   3.119   2.179  10.442  0.4297  5.5295  0.8921
  148SAPE     P16308   3.236   2.381  10.582 -0.0894 -0.1489  0.3182
  148SAPE   O1316309   3.320   2.442  10.694 -0.0444 -0.3126  0.3157
  148SAPE   O1416310   3.304   2.351  10.451 -0.0610  0.2793 -0.7580
  148SAPE   O1216311   3.163   2.248  10.634  0.7079 -0.4116 -0.0873
  148SAPE   O1116312   3.124   2.480  10.556 -0.0115  0.0739 -0.1858
  148SAPE    C116313   3.038   2.473  10.442  0.1958  0.2405  0.1185
  148SAPE    HA16314   3.019   2.372  10.401 -0.7096  0.1865  0.6762
  148SAPE    HB16315   2.938   2.513  10.469 -0.8039 -2.2574  0.1905
  148SAPE    C216316   3.091   2.564  10.318  0.1687  1.0499  0.1808
  148SAPE    HS16317   3.199   2.540  10.306  0.1149  0.2963  1.1611
  148SAPE   O2116318   3.071   2.705  10.351 -0.1730 -0.1803  0.1012
  148SAPE   C2116319   3.166   2.785  10.298 -0.2029 -0.1822  0.4530
  148SAPE   O2216320   3.262   2.752  10.238 -0.3863  0.5093  0.1229
  148SAPE   C2216321   3.116   2.934  10.314  0.3757  0.6108  0.0395
  148SAPE   H2R16322   3.017   2.942  10.265  0.7633  3.1395 -0.3810
  148SAPE   H2S16323   3.109   2.951  10.424  1.6908  1.4669  0.0029
  148SAPE    C316324   3.008   2.535  10.190  0.5637 -0.4463 -0.6164
  148SAPE    HX16325   2.902   2.565  10.210  0.6422 -0.5242 -0.0885
  148SAPE    HY16326   3.008   2.429  10.159  3.2524  0.4168 -3.8651
  148SAPE   O3116327   3.046   2.625  10.082 -0.1948  0.4709  0.1434
  148SAPE   C3116328   3.155   2.568  10.025 -0.6042 -0.6311 -0.0071
  148SAPE   O3216329   3.218   2.472  10.062  0.0462 -0.5098  0.0325
  148SAPE   C3216330   3.185   2.638   9.890 -0.0884  0.2076 -0.4990
  148SAPE   H2X16331   3.279   2.693   9.909 -1.1521  1.4933  1.2111
  148SAPE   H2Y16332   3.111   2.715   9.858 -0.0757 -0.3952 -2.0475
  148SAPE   C2316333   3.217   3.035  10.253  1.0849  0.6938 -0.1643
  148SAPE   H3R16334   3.317   3.026  10.301  0.5729  2.5957  1.3092
  148SAPE   H3S16335   3.170   3.133  10.276 -0.0995  0.5167 -1.7634
  148SAPE   C2416336   3.233   3.020  10.098  0.8942  0.2737  0.2124
  148SAPE   H4R16337   3.132   3.012  10.051  0.9180  0.6477  0.0920
  148SAPE   H4S16338   3.267   2.917  10.076  1.1906  0.3878  0.1318
  148SAPE   C2516339   3.318   3.119  10.022 -0.3337 -0.1518 -0.0515
  148SAPE   H5R16340   3.381   3.182  10.085 -0.1131  0.5400 -0.9438
  148SAPE   C2616341   3.328   3.135   9.890 -0.2057  0.0401 -0.4995
  148SAPE   H6R16342   3.404   3.212   9.868 -0.7486  0.2384 -1.7227
  148SAPE   C2716343   3.260   3.068   9.780 -0.6026 -0.6242  0.6543
  148SAPE   H7R16344   3.209   2.975   9.815 -0.9180 -0.2185  1.3020
  148SAPE   H7S16345   3.328   3.038   9.698  0.8511  0.7700  1.3208
  148SAPE   C2816346   3.154   3.164   9.726  0.6854  0.6370 -0.0262
  148SAPE   H8R16347   3.083   3.202   9.802  0.7805  0.8282 -0.0320
  148SAPE   C2916348   3.155   3.234   9.607  0.0881  1.0634  0.2749
  148SAPE   H9R16349   3.071   3.303   9.590  1.0300  2.1932  0.1738
  148SAPE  C21016350   3.260   3.216   9.501  0.0479  0.5351 -0.1320
  148SAPE  H10R16351   3.351   3.169   9.544 -0.5836  2.2296  3.2310
  148SAPE  H10S16352   3.298   3.308   9.453 -0.5635 -0.5256 -2.7598
  148SAPE  C21116353   3.203   3.113   9.408  0.3555 -0.4098  0.0740
  148SAPE  H11R16354   3.147   3.031   9.456 -0.1964  0.0531  0.2364
  148SAPE  C21216355   3.238   3.103   9.280  0.0898 -0.3830  0.4736
  148SAPE  H12R16356   3.191   3.035   9.208 -2.7985 -0.2477  2.1712
  148SAPE  C21316357   3.344   3.202   9.222  0.4124  0.4537 -0.1855
  148SAPE  H13R16358   3.430   3.220   9.290  1.2413 -2.8989 -0.2627
  148SAPE  H13S16359   3.288   3.297   9.209 -0.4943 -0.0144  0.2449
  148SAPE  C21416360   3.391   3.156   9.085 -0.3543  0.3832 -0.7776
  148SAPE  H14R16361   3.490   3.107   9.083  0.1182  1.2688  0.4657
  148SAPE  C21516362   3.327   3.150   8.970  0.5719 -0.0245  0.0659
  148SAPE  H15R16363   3.383   3.130   8.878  1.6341 -2.0550  1.1199
  148SAPE  C21616364   3.187   3.187   8.939 -0.2024  0.1569 -0.0335
  148SAPE  H16R16365   3.179   3.296   8.919 -0.4236  0.2217  0.3899
  148SAPE  H16S16366   3.131   3.184   9.035  1.7463 -0.1835  1.1220
  148SAPE  C21716367   3.113   3.105   8.833 -0.0162 -0.2585  0.1659
  148SAPE  H17R16368   3.137   3.160   8.740  2.2825 -1.2765  0.1301
  148SAPE  H17S16369   3.004   3.115   8.854 -0.7933 -2.3607 -2.7022
  148SAPE  C21816370   3.153   2.955   8.819 -0.7340  0.2715  0.3893
  148SAPE  H18R16371   3.118   2.881   8.894 -1.9536 -0.2029 -0.6140
  148SAPE  H18S16372   3.264   2.951   8.824 -0.7579 -1.1354  0.0695
  148SAPE  C21916373   3.129   2.895   8.676 -0.9096 -0.2344 -0.2285
  148SAPE  H19R16374   3.165   2.790   8.682  0.4357  0.1881 -0.9777
  148SAPE  H19S16375   3.183   2.949   8.596  0.5522  0.1786  1.0096
  148SAPE  C22016376   2.981   2.887   8.635  0.4161  0.4700  0.0572
  148SAPE  H20R16377   2.935   2.985   8.658  2.1444  1.2940  0.1183
  148SAPE  H20S16378   2.931   2.823   8.711  3.3387 -2.5782 -0.4551
  148SAPE  H20T16379   2.968   2.857   8.529  0.0415  1.5730 -0.2088
  148SAPE   C3316380   3.195   2.540   9.770 -0.0094 -0.1978 -0.6394
  148SAPE   H3X16381   3.272   2.465   9.798  0.4522  0.9740  1.3941
  148SAPE   H3Y16382   3.247   2.594   9.688  1.5827  1.1284  1.1715
  148SAPE   C3416383   3.068   2.472   9.726 -0.3296  0.0980 -0.9563
  148SAPE   H4X16384   2.982   2.539   9.705 -1.3608  0.7517  4.6219
  148SAPE   H4Y16385   3.032   2.417   9.816 -1.9548 -1.6462 -2.6208
  148SAPE   C3516386   3.091   2.380   9.606  0.0447  0.4366  0.5817
  148SAPE   H5X16387   2.996   2.323   9.601 -0.4111  1.1589  0.9597
  148SAPE   H5Y16388   3.179   2.315   9.628 -1.3598 -1.2366  1.3692
  148SAPE   C3616389   3.095   2.457   9.467 -0.3788  0.4010  0.3522
  148SAPE   H6X16390   3.175   2.533   9.485  0.6069 -0.5129 -0.1026
  148SAPE   H6Y16391   3.001   2.511   9.443  0.7501  1.1374 -2.5859
  148SAPE   C3716392   3.116   2.369   9.349 -0.8907 -0.5304 -0.0481
  148SAPE   H7X16393   3.036   2.297   9.324 -0.4511 -1.0920  0.1457
  148SAPE   H7Y16394   3.208   2.311   9.371 -0.0618  0.2715 -1.3611
  148SAPE   C3816395   3.161   2.455   9.218  0.6323 -0.2497 -0.2426
  148SAPE   H8X16396   3.244   2.519   9.254  2.8229 -2.2428 -1.5536
  148SAPE   H8Y16397   3.071   2.512   9.188 -2.3579 -4.8004 -0.3790
  148SAPE   C3916398   3.206   2.358   9.106 -0.4699  0.5074  0.5694
  148SAPE   H9X16399   3.130   2.279   9.089 -0.0852  0.2173  0.1518
  148SAPE   H9Y16400   3.297   2.307   9.146  1.9654  2.9510 -1.6275
  148SAPE  C31016401   3.243   2.427   8.971 -0.4339 -0.4753 -0.4617
  148SAPE  H10X16402   3.327   2.497   8.991  0.5730 -1.2972 -1.7445
  148SAPE  H10Y16403   3.159   2.493   8.941  0.6495  1.4991  0.7055
  148SAPE  C31116404   3.284   2.336   8.851  0.5131  0.6221  0.6259
  148SAPE  H11X16405   3.190   2.287   8.817  0.1146  1.6369  0.2584
  148SAPE  H11Y16406   3.343   2.251   8.894 -1.2955 -1.3630 -0.7216
  148SAPE  C31216407   3.354   2.410   8.745  0.6652 -0.6123  0.0442
  148SAPE  H12X16408   3.449   2.451   8.786  1.2015 -3.4548  1.7989
  148SAPE  H12Y16409   3.296   2.495   8.704 -0.5574 -1.8391 -0.8484
  148SAPE  C31316410   3.378   2.316   8.623  0.0812 -0.6872  0.0159
  148SAPE  H13X16411   3.287   2.256   8.599 -0.1944 -1.4027  2.7048
  148SAPE  H13Y16412   3.447   2.238   8.661  0.3900 -0.0024  0.8929
  148SAPE  C31416413   3.434   2.390   8.500 -1.1296  0.4881 -0.4622
  148SAPE  H14X16414   3.535   2.428   8.525 -1.0518  0.3025 -0.4933
  148SAPE  H14Y16415   3.358   2.468   8.478 -0.7589  1.4804  1.5978
  148SAPE  C31516416   3.449   2.305   8.367  0.0200 -0.4189  0.3974
  148SAPE  H15X16417   3.347   2.274   8.336 -0.5448 -0.3559  2.1427
  148SAPE  H15Y16418   3.505   2.213   8.394  2.8484  1.2499  0.5167
  148SAPE  C31616419   3.521   2.373   8.248  0.4589 -0.2662 -0.7518
  148SAPE  H16X16420   3.627   2.400   8.267  0.2735  0.6202 -0.9686
  148SAPE  H16Y16421   3.481   2.476   8.240 -0.6154 -0.5227  1.0527
  148SAPE  C31716422   3.509   2.298   8.110  0.4093  0.5591 -0.5344
  148SAPE  H17X16423   3.399   2.298   8.091  0.3525  2.4533 -0.3705
  148SAPE  H17Y16424   3.549   2.195   8.109  0.1171  0.4487 -1.3191
  148SAPE  C31816425   3.582   2.377   7.992 -0.4718 -0.1313 -0.5929
  148SAPE  H18X16426   3.538   2.478   7.980  1.1552  0.8975  1.7598
  148SAPE  H18Y16427   3.559   2.322   7.899 -1.0996  0.9351 -1.0828
  148SAPE  H18Z16428   3.692   2.383   8.002 -0.3704  0.8772 -2.2544
  149SAPE     N16429   6.206   4.812  10.862 -0.2180 -0.3484 -0.4166
  149SAPE   HN116430   6.197   4.916  10.863  1.0601 -0.2110 -2.0284
  149SAPE   HN216431   6.136   4.780  10.932  0.2033 -1.7242 -0.6168
  149SAPE   HN316432   6.301   4.791  10.900  0.1339 -0.3002 -1.2705
  149SAPE   C1216433   6.186   4.753  10.727 -0.0820 -0.4827  1.0536
  149SAPE  H12A16434   6.277   4.702  10.689 -1.0964 -1.8175  0.4027
  149SAPE  H12B16435   6.153   4.840  10.666 -1.3074 -1.6433  0.0338
  149SAPE   C1116436   6.063   4.661  10.748 -0.0671 -0.3204 -0.0780
  149SAPE  H11A16437   6.027   4.619  10.651 -0.0970  0.2003 -0.2953
  149SAPE  H11B16438   5.976   4.721  10.782 -0.6054 -0.5366 -1.0490
  149SAPE     P16439   5.986   4.461  10.902 -0.2714  0.4695 -0.2363
  149SAPE   O1316440   6.060   4.374  10.998 -0.3438 -0.2212  0.0140
  149SAPE   O1416441   5.879   4.539  10.962  0.3072  0.2579  0.0645
  149SAPE   O1216442   6.101   4.561  10.847  0.1515 -0.9737  0.3201
  149SAPE   O1116443   5.938   4.382  10.777  0.4436  0.4937 -0.0136
  149SAPE    C116444   5.995   4.270  10.725 -0.9722  0.5760  1.0740
  149SAPE    HA16445   6.041   4.210  10.807  0.6900 -0.0254 -0.2636
  149SAPE    HB16446   5.922   4.196  10.687 -0.6868  0.3347  0.9904
  149SAPE    C216447   6.092   4.299  10.607 -0.3722 -0.1117 -0.3928
  149SAPE    HS16448   6.128   4.404  10.614  0.7219 -0.5522  0.6817
  149SAPE   O2116449   6.016   4.265  10.490 -0.1213 -0.1163  0.1744
  149SAPE   C2116450   6.009   4.364  10.394 -0.1905  0.2477 -0.1972
  149SAPE   O2216451   6.060   4.474  10.398  0.2051 -0.3800  0.0223
  149SAPE   C2216452   5.949   4.296  10.274  0.7963 -0.3325 -0.4094
  149SAPE   H2R16453   6.020   4.216  10.246 -0.1996 -1.3721 -0.0124
  149SAPE   H2S16454   5.850   4.250  10.296 -0.2214  1.5220 -1.0385
  149SAPE    C316455   6.213   4.198  10.617 -0.0575 -0.2363  0.1144
  149SAPE    HX16456   6.162   4.099  10.620  1.2262 -0.8771  2.0865
  149SAPE    HY16457   6.278   4.210  10.706  1.0764 -0.5244 -0.6673
  149SAPE   O3116458   6.285   4.201  10.492  0.0908 -0.1595 -0.0024
  149SAPE   C3116459   6.376   4.301  10.483  0.2726  0.2551  0.0942
  149SAPE   O3216460   6.399   4.388  10.561  0.6135  0.1238 -0.3447
  149SAPE   C3216461   6.443   4.285  10.350  0.0466 -0.8207  0.7229
  149SAPE   H2X16462   6.423   4.180  10.317  4.3074 -1.7211  0.7509
  149SAPE   H2Y16463   6.552   4.304  10.356 -0.0912 -0.1239  1.0663
  149SAPE   C2316464   5.946   4.397  10.160  0.9547  0.4389  0.0096
  149SAPE   H3R16465   6.047   4.438  10.140  1.2228  0.3546  1.1370
  149SAPE   H3S16466   5.886   4.486  10.191 -0.6926 -1.0118  1.0710
  149SAPE   C2416467   5.893   4.325  10.036  0.2601 -0.2950  0.1998
  149SAPE   H4R16468   5.870   4.410   9.968 -0.3527 -0.0636  0.6907
  149SAPE   H4S16469   5.797   4.274  10.058  0.0341 -0.0657 -0.2389
  149SAPE   C2516470   5.987   4.228   9.981 -0.1095 -0.2699 -0.2245
  149SAPE   H5R16471   6.056   4.185  10.055  0.4432 -0.0449 -0.6057
  149SAPE   C2616472   5.978   4.185   9.855  0.6013  0.6251 -0.2468
  149SAPE   H6R16473   6.040   4.103   9.815  0.0947  1.3766 -2.7064
  149SAPE   C2716474   5.866   4.226   9.754  0.3482  0.4087  0.3559
  149SAPE   H7R16475   5.877   4.333   9.727 -4.2901  0.8349 -0.2605
  149SAPE   H7S16476   5.768   4.219   9.804  0.3304 -1.8504  0.0755
  149SAPE   C2816477   5.865   4.141   9.631 -0.4727 -0.5023  0.3267
  149SAPE   H8R16478   5.822   4.042   9.653 -1.0013 -0.3348  0.0735
  149SAPE   C2916479   5.933   4.171   9.515  0.2296  0.6137 -0.1012
  149SAPE   H9R16480   5.940   4.110   9.424 -2.2549  1.8658 -1.2014
  149SAPE  C21016481   6.008   4.304   9.496  0.5450  0.5631  0.3153
  149SAPE  H10R16482   6.042   4.340   9.595 -1.7688 -1.4480  1.9055
  149SAPE  H10S16483   5.939   4.383   9.461  1.5024  0.2128 -2.4832
  149SAPE  C21116484   6.129   4.295   9.411 -0.3559  0.4406  0.4180
  149SAPE  H11R16485   6.219   4.257   9.461 -0.6349 -0.3143  0.3664
  149SAPE  C21216486   6.136   4.323   9.278 -0.9018 -1.2988  0.1664
  149SAPE  H12R16487   6.231   4.311   9.223  0.3749  0.1502  2.0177
  149SAPE  C21316488   6.031   4.368   9.182 -0.2155  0.4170 -0.4884
  149SAPE  H13R16489   5.934   4.352   9.233  1.1311 -0.3291  1.9225
  149SAPE  H13S16490   6.028   4.292   9.101  1.2491  0.3543 -0.5003
  149SAPE  C21416491   6.046   4.508   9.129 -0.5055 -0.0027 -0.2837
  149SAPE  H14R16492   6.016   4.593   9.192 -0.3478  0.2480 -0.5402
  149SAPE  C21516493   6.092   4.533   8.997 -0.1628 -0.0790 -0.1435
  149SAPE  H15R16494   6.120   4.636   8.968  3.4950 -0.6560  1.0215
  149SAPE  C21616495   6.145   4.430   8.901  0.0973  0.4225  0.6471
  149SAPE  H16R16496   6.097   4.456   8.804  1.2619 -0.5434 -0.2058
  149SAPE  H16S16497   6.113   4.326   8.923  0.5218 -0.7690 -3.7692
  149SAPE  C21716498   6.299   4.431   8.871  0.7749  0.4771  0.9384
  149SAPE  H17R16499   6.326   4.525   8.819  0.3489 -0.1204 -0.4077
  149SAPE  H17S16500   6.320   4.351   8.796 -0.3226  1.0529  0.0108
  149SAPE  C21816501   6.392   4.415   8.996 -0.3089 -0.3770 -0.6926
  149SAPE  H18R16502   6.369   4.314   9.037  1.3953 -1.1933 -1.7018
  149SAPE  H18S16503   6.372   4.483   9.081 -0.2180 -0.3217 -0.7166
  149SAPE  C21916504   6.534   4.434   8.955  0.3048 -0.1316 -0.1566
  149SAPE  H19R16505   6.598   4.447   9.045 -1.8334  1.0417  1.2409
  149SAPE  H19S16506   6.528   4.525   8.891  0.5685 -1.1985 -1.7207
  149SAPE  C22016507   6.587   4.315   8.883  0.1516 -0.0449 -0.8493
  149SAPE  H20R16508   6.520   4.299   8.795 -0.2830 -2.5819 -0.1178
  149SAPE  H20S16509   6.566   4.231   8.953 -1.3850  2.2601  1.5419
  149SAPE  H20T16510   6.694   4.321   8.854  1.1336  1.6067  2.8616
  149SAPE   C3316511   6.389   4.386  10.244  0.5688 -0.1754  0.0026
  149SAPE   H3X16512   6.410   4.489  10.280  1.5757 -0.6707  0.8764
  149SAPE   H3Y16513   6.280   4.378  10.225  0.5213  1.9316 -0.7100
  149SAPE   C3416514   6.466   4.383  10.114  0.1208  0.1694  0.3908
  149SAPE   H4X16515   6.483   4.277  10.085 -1.1540  0.1222 -0.2575
  149SAPE   H4Y16516   6.573   4.411  10.126 -0.1620 -0.0478  3.7121
  149SAPE   C3516517   6.393   4.461   9.997  0.3220  0.6724  0.2501
  149SAPE   H5X16518   6.394   4.572  10.001 -0.9567  0.6441  1.6410
  149SAPE   H5Y16519   6.284   4.438   9.996  1.1055 -3.3582 -1.0999
  149SAPE   C3616520   6.452   4.419   9.863 -0.2570 -0.3293 -0.2589
  149SAPE   H6X16521   6.482   4.312   9.866  0.7501 -0.0751 -1.2035
  149SAPE   H6Y16522   6.541   4.479   9.836  0.4895 -1.1219  0.4139
  149SAPE   C3716523   6.348   4.434   9.758 -0.4296 -0.1484  0.5642
  149SAPE   H7X16524   6.253   4.387   9.791 -0.1857 -0.5635  0.6857
  149SAPE   H7Y16525   6.381   4.371   9.673 -0.2792 -1.1612  1.3637
  149SAPE   C3816526   6.314   4.580   9.713 -0.2020  0.1823  0.1748
  149SAPE   H8X16527   6.407   4.640   9.713  0.6330 -1.0809 -0.8801
  149SAPE   H8Y16528   6.251   4.618   9.797  0.2419  1.7823 -0.2030
  149SAPE   C3916529   6.231   4.593   9.583 -0.7916 -0.4038  0.0323
  149SAPE   H9X16530   6.128   4.552   9.583 -0.8894 -0.1785 -0.9207
  149SAPE   H9Y16531   6.286   4.545   9.499  2.6313  1.5564  1.0417
  149SAPE  C31016532   6.229   4.743   9.532 -0.2268  0.2847  0.2744
  149SAPE  H10X16533   6.335   4.775   9.532  0.2588 -1.2729  0.7720
  149SAPE  H10Y16534   6.158   4.808   9.588  0.6331  1.1063  0.4124
  149SAPE  C31116535   6.171   4.738   9.384  0.0203 -0.2381  0.4587
  149SAPE  H11X16536   6.062   4.718   9.381  0.2814 -1.5126 -1.8412
  149SAPE  H11Y16537   6.232   4.672   9.318  0.0484  0.2099  0.0327
  149SAPE  C31216538   6.189   4.874   9.316 -0.1380 -0.3123 -0.8530
  149SAPE  H12X16539   6.290   4.919   9.322 -1.4685  2.7516  0.2473
  149SAPE  H12Y16540   6.129   4.951   9.371  0.7942  0.0398 -0.3160
  149SAPE  C31316541   6.156   4.866   9.165  0.0983  0.3937  0.1601
  149SAPE  H13X16542   6.069   4.797   9.159  0.0609  0.3730  0.8815
  149SAPE  H13Y16543   6.235   4.825   9.099 -1.3945 -1.9823 -0.1823
  149SAPE  C31416544   6.124   5.010   9.110 -0.1569 -0.4880 -0.3959
  149SAPE  H14X16545   6.213   5.075   9.125  0.8056 -1.8735  0.0448
  149SAPE  H14Y16546   6.035   5.053   9.160 -0.6954 -1.3747 -0.5768
  149SAPE  C31516547   6.092   5.014   8.960  0.1091 -0.0968  0.0859
  149SAPE  H15X16548   6.003   4.950   8.939 -0.6465  0.8726  0.2606
  149SAPE  H15Y16549   6.174   4.957   8.913 -2.1906 -1.5184 -2.3670
  149SAPE  C31616550   6.070   5.156   8.914  0.1263  0.4609 -0.0121
  149SAPE  H16X16551   6.146   5.222   8.961 -0.2939 -0.2666  1.7239
  149SAPE  H16Y16552   5.973   5.190   8.956  0.5461  1.8100 -0.1080
  149SAPE  C31716553   6.052   5.158   8.766  0.0030  0.0742  0.2889
  149SAPE  H17X16554   5.953   5.115   8.741 -1.2476  2.3866  1.1392
  149SAPE  H17Y16555   6.136   5.102   8.720  1.2833  1.6483  0.6658
  149SAPE  C31816556   6.061   5.296   8.705 -0.5153  0.0784 -0.1606
  149SAPE  H18X16557   5.971   5.358   8.727  0.8115  1.8420  0.4398
  149SAPE  H18Y16558   6.061   5.299   8.594 -2.7418 -0.1300 -0.1910
  149SAPE  H18Z16559   6.154   5.346   8.741 -0.4143  0.6800 -1.2180
  150SAPE     N16560   1.233   4.044  10.715  0.3467  0.7859  0.1359
  150SAPE   HN116561   1.181   3.978  10.653 -1.5104  0.9060  1.5266
  150SAPE   HN216562   1.230   4.145  10.691 -3.4484  0.4916 -0.9461
  150SAPE   HN316563   1.334   4.021  10.705  0.5125  0.9244  1.4178
  150SAPE   C1216564   1.181   4.009  10.849  0.3962  0.0606 -0.2951
  150SAPE  H12A16565   1.073   4.034  10.841 -0.1301 -1.5657  1.4305
  150SAPE  H12B16566   1.237   4.075  10.918  5.6992 -1.4228 -2.9010
  150SAPE   C1116567   1.207   3.859  10.886 -0.2497 -0.2980 -0.5549
  150SAPE  H11A16568   1.155   3.800  10.808  2.8097  0.4192 -3.2736
  150SAPE  H11B16569   1.178   3.832  10.989  0.0486  1.2314 -0.0490
  150SAPE     P16570   1.416   3.712  10.902 -0.0442  0.1273 -0.3609
  150SAPE   O1316571   1.529   3.698  10.810 -0.1506  0.2950 -0.1642
  150SAPE   O1416572   1.442   3.685  11.050 -0.0486  0.1163  0.0669
  150SAPE   O1216573   1.348   3.848  10.879  0.7671  0.7284 -0.1141
  150SAPE   O1116574   1.294   3.615  10.857 -0.2130 -0.2811  0.2622
  150SAPE    C116575   1.294   3.531  10.740 -0.3504  0.0702 -0.2460
  150SAPE    HA16576   1.393   3.481  10.734 -1.1121 -1.9900  2.8071
  150SAPE    HB16577   1.220   3.447  10.737 -0.5829  0.2478  0.4184
  150SAPE    C216578   1.275   3.613  10.616  0.3490  0.1277 -0.3900
  150SAPE    HS16579   1.318   3.714  10.632 -1.2999  0.4378  2.4582
  150SAPE   O2116580   1.128   3.622  10.599 -0.2427 -0.4004  0.3395
  150SAPE   C2116581   1.081   3.742  10.549  0.5759 -0.8014  0.6813
  150SAPE   O2216582   1.159   3.833  10.523  0.0909 -0.0417 -0.0308
  150SAPE   C2216583   0.928   3.742  10.512 -0.7484  0.5480 -0.3640
  150SAPE   H2R16584   0.883   3.826  10.568 -0.3727 -0.8018  2.0153
  150SAPE   H2S16585   0.910   3.776  10.407 -2.8023  0.2421 -0.1123
  150SAPE    C316586   1.349   3.541  10.506 -0.4314  0.0490  0.5093
  150SAPE    HX16587   1.315   3.436  10.499  0.2727  0.0113 -4.0101
  150SAPE    HY16588   1.458   3.536  10.528 -0.4463 -1.4754  0.2546
  150SAPE   O3116589   1.314   3.607  10.382  0.5123  0.6581 -0.1159
  150SAPE   C3116590   1.386   3.704  10.341 -0.4367 -0.2621 -0.3436
  150SAPE   O3216591   1.488   3.746  10.395 -0.0191 -0.1980 -0.0522
  150SAPE   C3216592   1.333   3.756  10.204  1.0891  0.6849  0.8825
  150SAPE   H2X16593   1.224   3.739  10.214  0.8545  0.8621 -1.1344
  150SAPE   H2Y16594   1.358   3.680  10.126 -0.8828  1.4099 -0.4977
  150SAPE   C2316595   0.850   3.610  10.531 -0.2481  0.2794  0.2093
  150SAPE   H3R16596   0.868   3.575  10.635  0.1958 -0.5084 -0.1277
  150SAPE   H3S16597   0.892   3.530  10.466 -0.9149  0.1783 -0.0936
  150SAPE   C2416598   0.704   3.626  10.494 -0.3167  0.0890 -0.6278
  150SAPE   H4R16599   0.689   3.661  10.389 -1.5038 -0.2770 -0.5850
  150SAPE   H4S16600   0.662   3.705  10.559 -0.2557  0.0207 -0.5069
  150SAPE   C2516601   0.627   3.500  10.516  0.1270  0.3070  0.1806
  150SAPE   H5R16602   0.624   3.456  10.617 -1.2064 -1.2944 -0.5349
  150SAPE   C2616603   0.572   3.420  10.419 -0.1730 -0.2387  0.4860
  150SAPE   H6R16604   0.518   3.330  10.454 -0.2294 -0.4537 -0.1549
  150SAPE   C2716605   0.576   3.429  10.271 -0.3593  0.1595  0.5101
  150SAPE   H7R16606   0.608   3.529  10.235 -0.4204  0.2819  0.7888
  150SAPE   H7S16607   0.470   3.442  10.242  0.5344  0.2869 -2.8368
  150SAPE   C2816608   0.644   3.320  10.193  0.6150  0.5767 -0.5847
  150SAPE   H8R16609   0.673   3.233  10.254 -1.9090  1.4263  1.9360
  150SAPE   C2916610   0.667   3.323  10.060  0.2458  0.4271  0.2204
  150SAPE   H9R16611   0.722   3.239  10.016 -2.6460 -2.0631  1.1900
  150SAPE  C21016612   0.633   3.445   9.971 -0.0840 -0.2298  0.1868
  150SAPE  H10R16613   0.544   3.497  10.013  1.6479  2.1599  1.0187
  150SAPE  H10S16614   0.596   3.405   9.875 -3.1361 -2.0673  2.0458
  150SAPE  C21116615   0.755   3.541   9.961  0.4660 -0.3077  0.1079
  150SAPE  H11R16616   0.790   3.594  10.051  1.7485  1.1108 -1.2009
  150SAPE  C21216617   0.827   3.563   9.851 -0.2604  0.1155  0.3108
  150SAPE  H12R16618   0.912   3.633   9.853 -1.9147  2.1493  1.2657
  150SAPE  C21316619   0.788   3.503   9.717  0.0878 -0.4691  0.2111
  150SAPE  H13R16620   0.743   3.403   9.734 -2.9879  0.7135 -0.5981
  150SAPE  H13S16621   0.882   3.497   9.659 -0.3127  0.1615 -0.5142
  150SAPE  C21416622   0.683   3.586   9.653  0.1873 -0.2960  0.1108
  150SAPE  H14R16623   0.589   3.599   9.710 -0.1042  1.5962 -0.7554
  150SAPE  C21516624   0.675   3.633   9.532 -0.4898  0.5951  0.4171
  150SAPE  H15R16625   0.588   3.688   9.493  1.8917  1.8373 -3.4475
  150SAPE  C21616626   0.772   3.608   9.422 -0.0550  0.0146 -0.3748
  150SAPE  H16R16627   0.859   3.555   9.467  0.1945 -0.1619 -1.0701
  150SAPE  H16S16628   0.794   3.699   9.362 -1.0819 -1.2815 -2.7419
  150SAPE  C21716629   0.698   3.513   9.329  0.3057  0.1592  0.1912
  150SAPE  H17R16630   0.601   3.559   9.303 -0.6981 -0.3519  2.8212
  150SAPE  H17S16631   0.687   3.422   9.392  0.7357  1.0276  1.5321
  150SAPE  C21816632   0.774   3.483   9.199 -0.3556  0.2732  0.5764
  150SAPE  H18R16633   0.877   3.450   9.224 -0.3353  0.3933  0.6520
  150SAPE  H18S16634   0.784   3.571   9.132  0.4284  0.4824  0.9668
  150SAPE  C21916635   0.721   3.363   9.118  0.5104  0.7979 -0.8316
  150SAPE  H19R16636   0.618   3.397   9.096 -0.1939 -0.0537  1.0613
  150SAPE  H19S16637   0.723   3.271   9.181 -2.1363 -0.3579 -2.3643
  150SAPE  C22016638   0.792   3.341   8.979  0.3996 -0.6161  0.6435
  150SAPE  H20R16639   0.720   3.295   8.907 -0.8912  1.2790  0.6835
  150SAPE  H20S16640   0.879   3.272   8.990  0.1378 -1.2047 -0.7791
  150SAPE  H20T16641   0.814   3.442   8.938  1.1467 -0.8402  0.4773
  150SAPE   C3316642   1.367   3.897  10.157  0.3193 -0.8571  0.2950
  150SAPE   H3X16643   1.474   3.917  10.140 -0.0489 -1.1003 -2.4103
  150SAPE   H3Y16644   1.328   3.957  10.243 -0.1145  0.6543 -0.9350
  150SAPE   C3416645   1.297   3.945  10.033  0.1730  0.0173 -0.0539
  150SAPE   H4X16646   1.341   4.045  10.013  0.7396 -0.1557  0.3260
  150SAPE   H4Y16647   1.190   3.955  10.063 -0.2391  1.0904 -1.7844
  150SAPE   C3516648   1.336   3.859   9.914  0.0236 -0.2058 -0.8958
  150SAPE   H5X16649   1.284   3.761   9.928 -2.6972  1.0636 -1.8511
  150SAPE   H5Y16650   1.446   3.852   9.906  0.1475 -0.7601  1.1931
  150SAPE   C3616651   1.268   3.918   9.785  0.7078 -0.2028 -1.1117
  150SAPE   H6X16652   1.319   4.015   9.766 -0.3871  0.9983  1.8268
  150SAPE   H6Y16653   1.161   3.939   9.805  0.6107 -0.8164 -0.9683
  150SAPE   C3716654   1.280   3.816   9.676 -0.4131 -0.6332  0.2388
  150SAPE   H7X16655   1.226   3.732   9.725  0.0948  1.0671  3.8874
  150SAPE   H7Y16656   1.389   3.794   9.676 -0.2781 -0.1736 -2.8953
  150SAPE   C3816657   1.221   3.870   9.544  0.0851 -0.1654 -0.9511
  150SAPE   H8X16658   1.271   3.959   9.500 -0.4205  0.1692 -0.8584
  150SAPE   H8Y16659   1.113   3.895   9.558 -0.2790 -2.4390  0.5996
  150SAPE   C3916660   1.216   3.762   9.437 -0.6131  0.4092  0.1046
  150SAPE   H9X16661   1.183   3.661   9.469 -2.4707 -0.1814 -3.5088
  150SAPE   H9Y16662   1.318   3.756   9.393 -0.0995  0.3540  1.2627
  150SAPE  C31016663   1.125   3.801   9.325  0.6459  0.0968  0.4135
  150SAPE  H10X16664   1.137   3.908   9.298  2.6748 -0.2326 -0.0161
  150SAPE  H10Y16665   1.016   3.813   9.347  0.2339 -0.4843 -1.2139
  150SAPE  C31116666   1.146   3.721   9.196  0.0253  0.4509 -0.9064
  150SAPE  H11X16667   1.124   3.612   9.208  0.0421  0.2481 -2.6212
  150SAPE  H11Y16668   1.247   3.726   9.152  0.1647  2.3792 -0.4116
  150SAPE  C31216669   1.046   3.756   9.081  0.3219  0.1187  0.2111
  150SAPE  H12X16670   1.068   3.853   9.031  1.5535  0.5366  1.5284
  150SAPE  H12Y16671   0.947   3.755   9.130  0.6965  3.2914  1.1226
  150SAPE  C31316672   1.043   3.650   8.971 -0.1990  0.0864 -0.2389
  150SAPE  H13X16673   0.959   3.662   8.900  1.1146 -0.8437 -1.9888
  150SAPE  H13Y16674   1.025   3.548   9.011 -0.3103  0.0524 -0.3749
  150SAPE  C31416675   1.179   3.636   8.894 -0.0812 -0.2149 -0.1814
  150SAPE  H14X16676   1.268   3.611   8.957 -0.4673 -1.2676 -0.0453
  150SAPE  H14Y16677   1.212   3.736   8.859 -0.3667  0.3013  1.0120
  150SAPE  C31516678   1.179   3.524   8.795 -0.3154  0.1414 -0.7661
  150SAPE  H15X16679   1.084   3.529   8.737 -1.0597  0.1411  0.4554
  150SAPE  H15Y16680   1.169   3.428   8.849 -1.4018  0.8145  0.2652
  150SAPE  C31616681   1.295   3.521   8.695  0.0552 -0.2101 -0.8460
  150SAPE  H16X16682   1.301   3.627   8.664 -3.2453  1.2162  2.9515
  150SAPE  H16Y16683   1.273   3.459   8.605  0.6170 -1.3568 -0.2021
  150SAPE  C31716684   1.429   3.473   8.763  0.2398  0.7251 -0.3032
  150SAPE  H17X16685   1.400   3.387   8.827  0.4729 -0.0497 -1.2256
  150SAPE  H17Y16686   1.476   3.554   8.823 -0.8388  1.3016 -0.2055
  150SAPE  C31816687   1.532   3.420   8.667 -0.0354  0.4151  0.3523
  150SAPE  H18X16688   1.514   3.319   8.625  0.2924  0.3488  0.3734
  150SAPE  H18Y16689   1.638   3.421   8.700  0.3722  2.3846 -0.8878
  150SAPE  H18Z16690   1.538   3.482   8.575 -0.4126  1.7400  1.2180
  151SAPE     N16691   4.655   1.188  10.571 -0.2159  0.5096 -0.1076
  151SAPE   HN116692   4.696   1.111  10.514  2.1304  1.4719  0.2299
  151SAPE   HN216693   4.601   1.142  10.646 -0.3833  0.7655 -0.0715
  151SAPE   HN316694   4.587   1.242  10.513 -0.3411 -0.2223 -0.6583
  151SAPE   C1216695   4.761   1.270  10.631 -0.7715 -0.0949  0.4591
  151SAPE  H12A16696   4.720   1.350  10.696  1.8357  0.6153  1.3169
  151SAPE  H12B16697   4.825   1.321  10.556 -0.8505  2.4755  2.0905
  151SAPE   C1116698   4.866   1.185  10.712 -0.1857 -0.4950  0.7747
  151SAPE  H11A16699   4.806   1.128  10.787 -3.6366  0.7873 -0.9258
  151SAPE  H11B16700   4.927   1.257  10.771 -0.2991  0.5592 -0.3744
  151SAPE     P16701   4.920   0.955  10.576 -0.2100 -0.2761  0.2129
  151SAPE   O1316702   5.036   0.914  10.496  0.0330 -0.0326 -0.5355
  151SAPE   O1416703   4.867   0.873  10.685  0.5185 -0.4289  0.1860
  151SAPE   O1216704   4.951   1.100  10.630  0.6082  0.1226  0.2262
  151SAPE   O1116705   4.800   0.990  10.476 -0.0618  0.2043  0.4922
  151SAPE    C116706   4.796   0.928  10.347 -0.0792 -0.2670 -0.3785
  151SAPE    HA16707   4.815   0.819  10.350  0.9590 -0.0899 -0.0512
  151SAPE    HB16708   4.688   0.937  10.325  0.0602  2.7340 -0.0517
  151SAPE    C216709   4.870   1.000  10.229 -0.1106  1.0582  0.0857
  151SAPE    HS16710   4.979   1.000  10.249  0.1019  1.0772 -1.0171
  151SAPE   O2116711   4.821   1.133  10.202 -0.0703  0.0111  0.4566
  151SAPE   C2116712   4.883   1.231  10.247 -0.1186 -0.0587 -0.2622
  151SAPE   O2216713   4.974   1.223  10.336  0.4470 -0.1285  0.2051
  151SAPE   C2216714   4.849   1.361  10.183 -0.3227 -0.2150 -0.0466
  151SAPE   H2R16715   4.742   1.380  10.208  0.5376  1.3531  2.7063
  151SAPE   H2S16716   4.901   1.445  10.234 -0.8539  0.5237 -0.7300
  151SAPE    C316717   4.856   0.913  10.110 -0.1748 -0.7354 -0.4640
  151SAPE    HX16718   4.757   0.938  10.065  1.0125  0.7774 -2.2579
  151SAPE    HY16719   4.857   0.803  10.127 -1.9749 -0.8233 -0.8325
  151SAPE   O3116720   4.943   0.962  10.011 -0.7079  0.6268  0.2018
  151SAPE   C3116721   5.059   0.893  10.013  0.4788  1.1955 -0.7334
  151SAPE   O3216722   5.091   0.804  10.092 -0.7640 -0.5534  0.4881
  151SAPE   C3216723   5.144   0.933   9.894  0.3727 -0.3774 -0.8022
  151SAPE   H2X16724   5.247   0.903   9.923 -0.1633  0.5854  2.2201
  151SAPE   H2Y16725   5.149   1.043   9.878 -1.2196 -0.3285 -1.0253
  151SAPE   C2316726   4.896   1.361  10.037 -0.0432  0.3626  0.6135
  151SAPE   H3R16727   4.877   1.465  10.004 -0.4099  0.5181  1.3125
  151SAPE   H3S16728   4.824   1.292   9.988  0.6465 -2.4103  3.3245
  151SAPE   C2416729   5.042   1.309  10.009  0.2745 -0.2636  0.1983
  151SAPE   H4R16730   5.054   1.323   9.900  1.0734  0.1739  0.3377
  151SAPE   H4S16731   5.031   1.199  10.020 -3.2228  0.1361  1.1864
  151SAPE   C2516732   5.167   1.353  10.079 -0.2336  0.0086  0.4817
  151SAPE   H5R16733   5.153   1.356  10.188  0.5388  1.1835  0.5526
  151SAPE   C2616734   5.286   1.380  10.024  0.2044  0.5165 -0.5943
  151SAPE   H6R16735   5.374   1.405  10.085 -0.0839  0.5271 -0.1869
  151SAPE   C2716736   5.326   1.394   9.873 -0.3489 -0.0220  0.8609
  151SAPE   H7R16737   5.396   1.480   9.859  2.8763 -2.3872  1.8522
  151SAPE   H7S16738   5.241   1.423   9.807  0.5967 -2.0255 -1.3282
  151SAPE   C2816739   5.394   1.271   9.816  0.2626 -0.1654 -0.0898
  151SAPE   H8R16740   5.381   1.182   9.879  0.0871 -0.7925 -0.9997
  151SAPE   C2916741   5.461   1.264   9.700  0.8855  0.0355 -0.8471
  151SAPE   H9R16742   5.495   1.164   9.668  0.2136 -0.1484 -0.9945
  151SAPE  C21016743   5.487   1.384   9.617  0.6173  0.3938  0.0045
  151SAPE  H10R16744   5.521   1.461   9.689 -1.6834  0.7359  0.7863
  151SAPE  H10S16745   5.386   1.410   9.578  1.3013  2.0754 -0.7056
  151SAPE  C21116746   5.575   1.367   9.497 -0.1344 -0.7439  0.0789
  151SAPE  H11R16747   5.683   1.386   9.505  0.1804 -1.8609 -1.3265
  151SAPE  C21216748   5.527   1.337   9.365  0.3609 -0.0089 -0.3247
  151SAPE  H12R16749   5.606   1.324   9.290  0.3041 -0.8603 -0.2410
  151SAPE  C21316750   5.382   1.303   9.332 -0.1922  0.8335  0.1286
  151SAPE  H13R16751   5.334   1.250   9.417 -0.6787 -1.6582 -1.6374
  151SAPE  H13S16752   5.382   1.228   9.249  1.1658  0.7647  0.1714
  151SAPE  C21416753   5.301   1.428   9.292 -0.2580 -0.1885  0.4415
  151SAPE  H14R16754   5.286   1.508   9.366  1.6223  2.0498 -1.5036
  151SAPE  C21516755   5.261   1.455   9.166 -0.3474 -0.1083 -0.5111
  151SAPE  H15R16756   5.211   1.549   9.139 -2.9775 -1.1102  0.6433
  151SAPE  C21616757   5.294   1.375   9.034 -0.3872 -0.0255  0.2589
  151SAPE  H16R16758   5.206   1.314   9.005 -1.0572  0.7544  0.6597
  151SAPE  H16S16759   5.367   1.295   9.060  0.3011  1.1104  1.8716
  151SAPE  C21716760   5.340   1.461   8.909  0.4826 -0.0721  0.0758
  151SAPE  H17R16761   5.437   1.512   8.928  1.5154 -1.8465 -0.3430
  151SAPE  H17S16762   5.282   1.553   8.888 -0.9975 -0.7627  1.0597
  151SAPE  C21816763   5.350   1.378   8.779 -0.0458  0.4645  0.1230
  151SAPE  H18R16764   5.246   1.353   8.749 -0.0763 -0.9258  1.3411
  151SAPE  H18S16765   5.393   1.280   8.807 -2.0477 -0.4652  0.0124
  151SAPE  C21916766   5.426   1.442   8.664  0.1004  0.2692  0.1233
  151SAPE  H19R16767   5.531   1.448   8.699  0.3231 -2.1573 -0.0051
  151SAPE  H19S16768   5.388   1.546   8.656  1.8040  1.1027  2.3597
  151SAPE  C22016769   5.407   1.373   8.535  0.2346 -0.3926  0.4700
  151SAPE  H20R16770   5.297   1.372   8.520  0.4302  0.8253 -1.1488
  151SAPE  H20S16771   5.441   1.268   8.545 -1.3508 -0.6362  4.5426
  151SAPE  H20T16772   5.456   1.424   8.450 -0.8070 -2.3338 -1.3134
  151SAPE   C3316773   5.100   0.878   9.759  0.0427  0.1233  0.3502
  151SAPE   H3X16774   5.014   0.941   9.728  1.0005  2.0990  1.6385
  151SAPE   H3Y16775   5.081   0.769   9.766  4.6429 -0.8531 -1.0306
  151SAPE   C3416776   5.214   0.877   9.657  0.5448  0.4178 -0.3410
  151SAPE   H4X16777   5.274   0.787   9.681 -0.5729  0.5811  3.4571
  151SAPE   H4Y16778   5.284   0.957   9.690 -0.7762  0.5000  2.4280
  151SAPE   C3516779   5.178   0.879   9.510 -0.0253 -0.4649  0.3761
  151SAPE   H5X16780   5.131   0.980   9.504  1.8543  0.4504  0.8615
  151SAPE   H5Y16781   5.099   0.805   9.485  0.7064 -0.9290 -0.5654
  151SAPE   C3616782   5.301   0.857   9.424  0.4383  0.0526  0.6404
  151SAPE   H6X16783   5.357   0.764   9.449 -4.0816 -2.4220  1.9997
  151SAPE   H6Y16784   5.368   0.943   9.446  0.2300  0.1138  1.0433
  151SAPE   C3716785   5.276   0.862   9.273  0.7363  0.7816 -0.4912
  151SAPE   H7X16786   5.218   0.951   9.242 -0.8808 -0.1932 -0.3259
  151SAPE   H7Y16787   5.209   0.774   9.263 -0.2975  1.6140 -0.9328
  151SAPE   C3816788   5.385   0.828   9.174 -0.2231 -0.1014  0.4129
  151SAPE   H8X16789   5.415   0.725   9.201  1.2071 -0.6886 -3.1067
  151SAPE   H8Y16790   5.473   0.893   9.194 -0.0459 -0.2443  0.0980
  151SAPE   C3916791   5.347   0.835   9.025  0.3330 -0.3063  0.3887
  151SAPE   H9X16792   5.309   0.935   8.996 -1.7944 -0.5731  2.1431
  151SAPE   H9Y16793   5.267   0.761   9.003  0.6206 -0.2314 -0.9655
  151SAPE  C31016794   5.465   0.808   8.938  0.0712  0.2560  0.0581
  151SAPE  H10X16795   5.485   0.701   8.961  3.7979  0.9944  0.5570
  151SAPE  H10Y16796   5.554   0.863   8.975  0.2340  0.5240 -0.7161
  151SAPE  C31116797   5.459   0.825   8.787 -0.6106  0.0178  0.3215
  151SAPE  H11X16798   5.366   0.771   8.762 -1.2453  0.7438  1.0662
  151SAPE  H11Y16799   5.541   0.763   8.744  2.1241  3.1231  0.8718
  151SAPE  C31216800   5.461   0.964   8.742  0.3680 -0.4097  0.2069
  151SAPE  H12X16801   5.543   1.018   8.793  0.8280 -0.3696 -0.5746
  151SAPE  H12Y16802   5.362   1.012   8.760  0.5730  0.6897 -1.4082
  151SAPE  C31316803   5.493   0.971   8.598  0.0873 -0.1805  0.2014
  151SAPE  H13X16804   5.570   0.901   8.560 -2.5340 -2.3073 -1.3930
  151SAPE  H13Y16805   5.524   1.076   8.583  0.9348 -0.5439 -0.6777
  151SAPE  C31416806   5.373   0.931   8.507  0.4096 -0.5989 -0.1981
  151SAPE  H14X16807   5.356   1.012   8.433 -0.1593 -0.5265  0.0105
  151SAPE  H14Y16808   5.284   0.914   8.571 -0.5248  1.5737 -0.8799
  151SAPE  C31516809   5.384   0.804   8.434 -0.2980  0.0870 -0.5934
  151SAPE  H15X16810   5.366   0.725   8.509 -6.2553 -0.6063 -2.4836
  151SAPE  H15Y16811   5.486   0.794   8.391  0.3944 -1.0237  1.2836
  151SAPE  C31616812   5.279   0.789   8.326  0.2849 -0.2142 -0.1096
  151SAPE  H16X16813   5.297   0.860   8.242  0.7673 -1.5946 -1.1883
  151SAPE  H16Y16814   5.182   0.811   8.375  0.2061  0.4759 -0.5692
  151SAPE  C31716815   5.279   0.649   8.273  0.3996 -0.6390 -0.0655
  151SAPE  H17X16816   5.259   0.578   8.357 -1.2202 -0.4502 -0.2707
  151SAPE  H17Y16817   5.381   0.634   8.231 -0.6249 -1.1388 -2.4320
  151SAPE  C31816818   5.172   0.618   8.171 -0.3731 -0.0013 -0.0234
  151SAPE  H18X16819   5.071   0.620   8.217 -0.4165 -1.9497  0.0029
  151SAPE  H18Y16820   5.184   0.516   8.127  2.5338 -0.2193  1.1166
  151SAPE  H18Z16821   5.169   0.684   8.082 -0.6839 -0.6449 -0.4999
  152SAPE     N16822   6.567   0.119  10.633  0.4485  0.3199  0.1006
  152SAPE   HN116823   6.655   0.138  10.685  0.2344  0.5992  0.3634
  152SAPE   HN216824   6.508   0.203  10.620  0.6998  0.6711  1.1586
  152SAPE   HN316825   6.511   0.047  10.684 -0.3475 -0.2179 -1.4965
  152SAPE   C1216826   6.605   0.068  10.499 -0.3948  0.3225  0.9100
  152SAPE  H12A16827   6.683  -0.010  10.510 -0.9467  0.1485  4.0649
  152SAPE  H12B16828   6.657   0.157  10.459 -0.7279  0.6063  1.1036
  152SAPE   C1116829   6.493   0.020  10.414  0.1230 -0.5778 -0.2283
  152SAPE  H11A16830   6.466  -0.087  10.419  2.0241 -1.0993 -0.6123
  152SAPE  H11B16831   6.533   0.019  10.310  2.9418 -0.1245  0.8091
  152SAPE     P16832   6.236   0.065  10.435 -0.3006 -0.1004  0.3808
  152SAPE   O1316833   6.205  -0.068  10.370  0.3016  0.3353 -0.1848
  152SAPE   O1416834   6.193   0.084  10.574 -0.2859 -0.4328  0.6410
  152SAPE   O1216835   6.386   0.113  10.416  0.0666 -0.1654  0.0334
  152SAPE   O1116836   6.153   0.180  10.358  0.0104  0.1101 -0.2954
  152SAPE    C116837   6.208   0.305  10.323  0.3700 -0.2864 -0.3011
  152SAPE    HA16838   6.128   0.383  10.319  0.2389 -0.4982 -2.7585
  152SAPE    HB16839   6.279   0.345  10.399  0.5207 -2.4000  0.6895
  152SAPE    C216840   6.271   0.312  10.184  0.7941  0.4948  0.1156
  152SAPE    HS16841   6.369   0.260  10.180  1.5796  2.0207 -1.1344
  152SAPE   O2116842   6.287   0.448  10.138  1.3056 -0.2051 -0.0401
  152SAPE   C2116843   6.359   0.521  10.213 -0.6102 -0.2785  0.3542
  152SAPE   O2216844   6.435   0.484  10.303  0.7703  0.6466  0.7466
  152SAPE   C2216845   6.328   0.665  10.165 -0.1249 -0.8191  0.4148
  152SAPE   H2R16846   6.287   0.665  10.062 -0.1842  0.9888  0.4223
  152SAPE   H2S16847   6.252   0.707  10.234  0.6459  2.9581 -0.9109
  152SAPE    C316848   6.173   0.237  10.084  0.6515 -1.1402  0.0540
  152SAPE    HX16849   6.079   0.295  10.070  2.4491  1.6813 -0.6826
  152SAPE    HY16850   6.152   0.139  10.131  0.2553 -0.7070  0.8043
  152SAPE   O3116851   6.240   0.223   9.953 -0.0584  0.6595 -0.3742
  152SAPE   C3116852   6.259   0.103   9.897  0.0858 -0.2744 -0.0408
  152SAPE   O3216853   6.224  -0.001   9.951  0.6787 -0.2018 -0.5122
  152SAPE   C3216854   6.334   0.114   9.766 -0.3587  0.4606 -0.9213
  152SAPE   H2X16855   6.441   0.090   9.785 -0.5692  0.8981  0.9216
  152SAPE   H2Y16856   6.326   0.222   9.740 -0.3607  0.6337 -0.2338
  152SAPE   C2316857   6.451   0.764  10.180 -0.5096  0.4215 -0.3272
  152SAPE   H3R16858   6.538   0.730  10.120  0.0314 -0.4372  0.9092
  152SAPE   H3S16859   6.487   0.774  10.285 -0.8420 -1.3059 -0.0224
  152SAPE   C2416860   6.407   0.901  10.123 -1.2607 -0.7088 -0.3680
  152SAPE   H4R16861   6.358   0.971  10.193  2.0591  0.9350  0.4014
  152SAPE   H4S16862   6.344   0.875  10.035 -1.0665  1.5838 -1.2140
  152SAPE   C2516863   6.515   0.984  10.048  0.6991 -0.6006 -0.6120
  152SAPE   H5R16864   6.572   1.051  10.114  3.3720  0.3589 -3.8041
  152SAPE   C2616865   6.554   0.964   9.920  0.0870  0.2422  0.2300
  152SAPE   H6R16866   6.635   1.030   9.888  1.9138 -1.1045  1.9859
  152SAPE   C2716867   6.499   0.877   9.814  0.7717  0.5158  0.1307
  152SAPE   H7R16868   6.401   0.834   9.845 -0.2874  2.1915 -0.8031
  152SAPE   H7S16869   6.578   0.805   9.786 -0.2035 -0.6627  0.3675
  152SAPE   C2816870   6.454   0.947   9.688  0.1479 -0.2122  0.1246
  152SAPE   H8R16871   6.345   0.963   9.681  0.2760  1.5888  1.6579
  152SAPE   C2916872   6.532   0.999   9.588  0.5524  0.5540  0.1941
  152SAPE   H9R16873   6.480   1.035   9.498  0.9359 -0.5352 -0.4803
  152SAPE  C21016874   6.679   0.998   9.576  0.5527 -0.5905  0.3797
  152SAPE  H10R16875   6.718   0.913   9.515 -1.2337 -1.3955  0.3162
  152SAPE  H10S16876   6.729   0.989   9.675  1.5230 -0.8193 -0.1192
  152SAPE  C21116877   6.729   1.127   9.519  0.1993 -0.8497 -0.2535
  152SAPE  H11R16878   6.697   1.213   9.579 -3.4422 -0.4219 -2.6470
  152SAPE  C21216879   6.798   1.137   9.402 -0.3730  0.3554 -0.3039
  152SAPE  H12R16880   6.821   1.236   9.360  1.3794  0.1403  0.1089
  152SAPE  C21316881   6.830   1.015   9.310  0.5805  0.3711  0.6175
  152SAPE  H13R16882   6.830   1.055   9.206 -0.8782 -0.6643  0.2049
  152SAPE  H13S16883   6.746   0.942   9.305  0.0534  0.8972  1.6840
  152SAPE  C21416884   6.957   0.950   9.349  0.1256 -0.6841  0.0363
  152SAPE  H14R16885   6.968   0.929   9.457 -1.9790  1.2484  0.6529
  152SAPE  C21516886   7.052   0.906   9.262  0.2522 -0.0234 -0.0640
  152SAPE  H15R16887   7.150   0.880   9.304 -0.0163 -0.5932  0.2178
  152SAPE  C21616888   7.051   0.918   9.113 -0.7097 -0.1650  0.1964
  152SAPE  H16R16889   7.131   0.988   9.080 -1.4123  0.2707 -0.6213
  152SAPE  H16S16890   6.963   0.969   9.068 -0.5123 -0.2578 -0.2964
  152SAPE  C21716891   7.091   0.788   9.038  0.9470  0.1986  0.2168
  152SAPE  H17R16892   7.015   0.708   9.055 -1.8348  2.5190 -0.8876
  152SAPE  H17S16893   7.190   0.751   9.072  0.4138 -1.3386  0.1629
  152SAPE  C21816894   7.096   0.801   8.887  0.1090 -0.7302 -0.1301
  152SAPE  H18R16895   7.157   0.890   8.860 -0.4392 -0.2928  0.0592
  152SAPE  H18S16896   6.993   0.819   8.849 -0.2710 -3.1419 -0.3334
  152SAPE  C21916897   7.132   0.679   8.796 -0.6154 -0.1566  0.0566
  152SAPE  H19R16898   7.046   0.611   8.815 -0.8416  0.5261  1.5891
  152SAPE  H19S16899   7.230   0.639   8.830 -0.6812 -0.1152  0.3015
  152SAPE  C22016900   7.141   0.704   8.643 -1.0735  0.1095 -0.0394
  152SAPE  H20R16901   7.170   0.606   8.599  0.4889 -0.0289  1.2078
  152SAPE  H20S16902   7.213   0.785   8.617 -0.4169 -0.8010 -1.1005
  152SAPE  H20T16903   7.047   0.740   8.598 -1.1145  0.2303  0.1422
  152SAPE   C3316904   6.273   0.029   9.653 -0.5178  0.4674  0.4171
  152SAPE   H3X16905   6.269  -0.080   9.676  0.8189  0.7377  2.0115
  152SAPE   H3Y16906   6.343   0.036   9.568 -0.1071 -2.4864  0.4565
  152SAPE   C3416907   6.135   0.075   9.608  0.9919  0.0267 -0.0172
  152SAPE   H4X16908   6.120   0.183   9.631 -1.3823 -0.0622 -0.9654
  152SAPE   H4Y16909   6.058   0.027   9.672  1.8701 -0.3908  0.7330
  152SAPE   C3516910   6.110   0.056   9.456  0.1332  0.2999 -0.1997
  152SAPE   H5X16911   6.177   0.126   9.404  0.5203 -0.0569 -0.1815
  152SAPE   H5Y16912   6.003   0.078   9.432  0.2039 -0.7773 -1.5705
  152SAPE   C3616913   6.137  -0.087   9.399 -0.3934  0.4015  0.6447
  152SAPE   H6X16914   6.068  -0.146   9.463  0.1915  0.3427  1.2312
  152SAPE   H6Y16915   6.241  -0.114   9.427 -0.1488 -1.4745 -1.8744
  152SAPE   C3716916   6.096  -0.103   9.254  0.0358 -0.0721  0.7771
  152SAPE   H7X16917   6.130  -0.014   9.196  0.7700 -1.0863 -0.3806
  152SAPE   H7Y16918   5.985  -0.100   9.244  0.0124 -0.7922  0.7836
  152SAPE   C3816919   6.150  -0.226   9.188 -0.2005  0.0690  0.0969
  152SAPE   H8X16920   6.135  -0.311   9.258 -1.9530  1.3804  1.3631
  152SAPE   H8Y16921   6.260  -0.213   9.178  0.1962 -2.7966  0.1566
  152SAPE   C3916922   6.088  -0.263   9.055  0.1871 -0.0293 -0.1825
  152SAPE   H9X16923   6.105  -0.166   9.005 -0.3558  0.1083 -0.0973
  152SAPE   H9Y16924   5.979  -0.280   9.067  0.3398 -0.0157  1.3429
  152SAPE  C31016925   6.157  -0.362   8.964 -0.3940  0.2816  0.6522
  152SAPE  H10X16926   6.171  -0.454   9.024  3.1043  1.4125  1.7216
  152SAPE  H10Y16927   6.262  -0.339   8.936  0.1827 -1.4645  1.3055
  152SAPE  C31116928   6.081  -0.402   8.840  0.1517  0.1471  0.3132
  152SAPE  H11X16929   6.055  -0.308   8.786 -0.3547 -1.2153 -1.9092
  152SAPE  H11Y16930   5.991  -0.453   8.882 -2.0750  3.2492 -0.5018
  152SAPE  C31216931   6.154  -0.492   8.733  0.4450 -0.2004 -0.3783
  152SAPE  H12X16932   6.257  -0.518   8.766 -0.1513 -1.6621  0.3752
  152SAPE  H12Y16933   6.160  -0.444   8.633  0.9021 -3.6387 -2.1068
  152SAPE  C31316934   6.080  -0.620   8.711  0.0068  0.5457 -0.5162
  152SAPE  H13X16935   5.977  -0.600   8.674  0.0226  1.8366  0.1111
  152SAPE  H13Y16936   6.051  -0.668   8.806 -2.2302 -1.2035 -2.0301
  152SAPE  C31416937   6.159  -0.702   8.606  0.0429  0.2970  0.4476
  152SAPE  H14X16938   6.268  -0.712   8.626  0.3308 -0.3615 -1.3901
  152SAPE  H14Y16939   6.152  -0.640   8.514 -0.2184 -1.7728 -0.9479
  152SAPE  C31516940   6.097  -0.837   8.583  0.5998  0.5100  0.2683
  152SAPE  H15X16941   5.991  -0.821   8.552  1.4350  1.2208 -2.3980
  152SAPE  H15Y16942   6.093  -0.901   8.673 -0.5844  1.4321  0.9031
  152SAPE  C31616943   6.159  -0.920   8.474 -0.2273  0.4731  0.6300
  152SAPE  H16X16944   6.102  -1.015   8.471  0.1956  0.2643 -1.2153
  152SAPE  H16Y16945   6.264  -0.950   8.495 -0.0998 -2.3551 -3.4820
  152SAPE  C31716946   6.136  -0.864   8.331 -0.4296  0.5805  0.3280
  152SAPE  H17X16947   6.212  -0.784   8.317  1.0513 -0.2846  3.0874
  152SAPE  H17Y16948   6.033  -0.820   8.332 -0.0447  1.5716 -1.1919
  152SAPE  C31816949   6.147  -0.965   8.217  0.1857  0.0373 -0.7769
  152SAPE  H18X16950   6.058  -1.028   8.199  0.8729 -0.9260 -0.8634
  152SAPE  H18Y16951   6.239  -1.028   8.220 -1.5021 -2.4771  3.0949
  152SAPE  H18Z16952   6.154  -0.914   8.118  1.3169  0.6525 -0.3883
  153SAPE     N16953   5.733   2.454  10.943 -0.8430  0.0344  0.2852
  153SAPE   HN116954   5.651   2.482  10.885 -0.1030  1.8616  0.1213
  153SAPE   HN216955   5.722   2.351  10.952  2.4837 -0.5053 -1.1475
  153SAPE   HN316956   5.733   2.503  11.035 -0.3244 -1.5963  1.1890
  153SAPE   C1216957   5.863   2.483  10.867  0.1923  0.4539 -0.0036
  153SAPE  H12A16958   5.952   2.450  10.926 -0.6957 -1.0853  0.4965
  153SAPE  H12B16959   5.868   2.591  10.842 -3.1129  1.0742  1.7386
  153SAPE   C1116960   5.862   2.404  10.735 -0.3174 -0.1270  0.4494
  153SAPE  H11A16961   5.927   2.456  10.661 -2.3610  0.3839 -1.0531
  153SAPE  H11B16962   5.760   2.413  10.691  0.1057 -3.3987 -1.3784
  153SAPE     P16963   6.037   2.210  10.759  0.0515 -0.2136 -0.2418
  153SAPE   O1316964   6.136   2.308  10.810 -0.0334 -0.1907 -0.1199
  153SAPE   O1416965   6.040   2.078  10.820  0.0923  0.4672  0.3224
  153SAPE   O1216966   5.891   2.271  10.753  0.2555  0.2293  0.4295
  153SAPE   O1116967   6.062   2.194  10.604 -0.1648  0.8150  0.1345
  153SAPE    C116968   5.969   2.109  10.525 -0.7983  0.6976 -0.3916
  153SAPE    HA16969   5.909   2.032  10.578  0.7752 -0.8743 -0.8570
  153SAPE    HB16970   5.889   2.176  10.484 -0.5484  0.1389 -1.8341
  153SAPE    C216971   6.044   2.059  10.401  0.1028 -0.2662  0.6330
  153SAPE    HS16972   6.119   2.138  10.377 -0.8650  0.0920 -1.3727
  153SAPE   O2116973   5.957   2.034  10.290 -0.0707  0.4504  0.0902
  153SAPE   C2116974   5.939   2.137  10.211  0.5825 -0.4887 -0.3489
  153SAPE   O2216975   5.996   2.245  10.211  0.1840  0.0849 -0.8420
  153SAPE   C2216976   5.817   2.106  10.128  0.0157  0.5373 -0.1174
  153SAPE   H2R16977   5.788   2.000  10.141  0.9927  0.5685  2.5302
  153SAPE   H2S16978   5.739   2.172  10.172  1.0694 -0.0038  2.6287
  153SAPE    C316979   6.138   1.941  10.436 -0.0395  0.8044  0.2805
  153SAPE    HX16980   6.074   1.856  10.468 -0.9591  1.1958 -0.4860
  153SAPE    HY16981   6.209   1.971  10.516  1.8216 -0.8043 -0.7157
  153SAPE   O3116982   6.215   1.910  10.319 -0.8685  0.0876 -0.3139
  153SAPE   C3116983   6.160   1.811  10.248  0.9082  0.9399 -0.3681
  153SAPE   O3216984   6.056   1.749  10.271  0.0581  0.3727 -0.1599
  153SAPE   C3216985   6.240   1.783  10.119  0.1517  0.4802  0.4014
  153SAPE   H2X16986   6.323   1.716  10.150 -0.1696 -0.2232 -0.2631
  153SAPE   H2Y16987   6.272   1.882  10.078 -1.9330  0.8394 -0.4132
  153SAPE   C2316988   5.838   2.134   9.981 -0.6084 -0.4465 -0.2530
  153SAPE   H3R16989   5.763   2.074   9.925 -1.6791  1.6460 -1.1500
  153SAPE   H3S16990   5.936   2.101   9.940 -0.0963  0.0258  0.5842
  153SAPE   C2416991   5.801   2.278   9.928 -0.0375 -0.5616 -0.2935
  153SAPE   H4R16992   5.725   2.324   9.994  0.3209 -0.2174 -0.1202
  153SAPE   H4S16993   5.756   2.267   9.827 -1.3786  2.5361 -0.0816
  153SAPE   C2516994   5.922   2.364   9.911 -0.5576 -0.4451 -0.0311
  153SAPE   H5R16995   5.987   2.366  10.000  0.6936 -3.0384 -0.8520
  153SAPE   C2616996   5.956   2.457   9.819  0.2105 -0.0061 -0.2980
  153SAPE   H6R16997   6.059   2.497   9.822 -0.6802  2.2477  2.1947
  153SAPE   C2716998   5.882   2.484   9.689  0.5911  0.0725  0.1090
  153SAPE   H7R16999   5.777   2.515   9.708  0.1877 -0.7830 -0.7197
  153SAPE   H7S17000   5.873   2.387   9.635 -2.0690  0.6548 -0.5947
  153SAPE   C2817001   5.949   2.573   9.595 -0.0755  0.3677  0.6829
  153SAPE   H8R17002   5.962   2.675   9.636 -2.0664  0.5569  0.8627
  153SAPE   C2917003   5.974   2.557   9.461 -0.5049 -0.0457  0.0191
  153SAPE   H9R17004   6.023   2.637   9.404 -2.3268  0.5257 -0.7767
  153SAPE  C21017005   5.947   2.435   9.376 -0.5720 -0.4269 -0.4778
  153SAPE  H10R17006   5.856   2.452   9.315 -0.4600 -1.1014 -0.8425
  153SAPE  H10S17007   5.926   2.354   9.449 -0.2773  0.7775  0.9473
  153SAPE  C21117008   6.050   2.397   9.271 -0.3149  0.4828 -0.3239
  153SAPE  H11R17009   6.119   2.325   9.317 -0.8444  0.5316  0.5728
  153SAPE  C21217010   6.059   2.426   9.141 -0.3991  0.0941  0.2855
  153SAPE  H12R17011   6.148   2.394   9.085 -0.9397  3.5930 -2.7087
  153SAPE  C21317012   5.962   2.510   9.067  0.4054 -0.1748 -0.5415
  153SAPE  H13R17013   5.908   2.579   9.136  1.9592 -0.3848  0.9113
  153SAPE  H13S17014   5.879   2.455   9.017  0.7128  0.1005 -1.3604
  153SAPE  C21417015   6.017   2.607   8.965  0.1207 -0.2816 -0.1769
  153SAPE  H14R17016   6.017   2.708   9.009 -1.9164 -0.9073  1.3386
  153SAPE  C21517017   6.062   2.592   8.841  0.2340 -0.1812  0.7820
  153SAPE  H15R17018   6.083   2.690   8.795 -0.2925 -1.6521 -2.7618
  153SAPE  C21617019   6.075   2.466   8.762 -0.3318 -0.2241  0.1093
  153SAPE  H16R17020   6.145   2.391   8.805  1.5659  1.3351 -0.1727
  153SAPE  H16S17021   6.126   2.490   8.666  0.8013  0.5328  0.8977
  153SAPE  C21717022   5.944   2.387   8.730  0.1300 -0.1023  0.6362
  153SAPE  H17R17023   5.869   2.454   8.684  0.5741 -0.7545 -1.0926
  153SAPE  H17S17024   5.912   2.343   8.827 -1.1531 -0.0553  0.2398
  153SAPE  C21817025   5.964   2.270   8.639 -0.6041 -0.6022 -0.2122
  153SAPE  H18R17026   6.003   2.311   8.543 -4.7475 -0.7869 -2.0611
  153SAPE  H18S17027   5.863   2.225   8.628 -1.1292  0.5583 -0.2107
  153SAPE  C21917028   6.063   2.166   8.687  0.1610 -0.3830  0.0483
  153SAPE  H19R17029   6.166   2.208   8.687  0.3638 -0.8534  1.0678
  153SAPE  H19S17030   6.074   2.083   8.614 -0.6317  0.1678 -0.7084
  153SAPE  C22017031   6.038   2.118   8.831  0.0740  0.2608  0.2461
  153SAPE  H20R17032   6.104   2.033   8.856  0.0925  0.0910 -0.3631
  153SAPE  H20S17033   5.931   2.087   8.835  0.3075 -0.3731  2.4749
  153SAPE  H20T17034   6.051   2.195   8.909 -0.0977  0.9923 -0.4366
  153SAPE   C3317035   6.154   1.713  10.013  0.0453  0.8488  0.2092
  153SAPE   H3X17036   6.129   1.607  10.033  0.5157  0.5236 -0.8975
  153SAPE   H3Y17037   6.229   1.693   9.933 -0.8653  1.3836 -0.8006
  153SAPE   C3417038   6.049   1.803   9.948  0.2901  0.7610 -0.2377
  153SAPE   H4X17039   6.087   1.898   9.904 -0.5315  1.9773  1.5652
  153SAPE   H4Y17040   5.978   1.835  10.027 -1.6977  0.2169 -1.7776
  153SAPE   C3517041   5.968   1.728   9.844 -0.4258  0.3381 -0.6468
  153SAPE   H5X17042   5.898   1.659   9.896 -0.8764  0.2292 -1.3898
  153SAPE   H5Y17043   6.030   1.655   9.787 -0.3492 -0.0060 -0.1206
  153SAPE   C3617044   5.897   1.825   9.746  0.5192  0.2554  0.1259
  153SAPE   H6X17045   5.838   1.898   9.805  0.5358 -1.7193  2.6619
  153SAPE   H6Y17046   5.822   1.759   9.697  0.4430 -0.6213  1.3957
  153SAPE   C3717047   5.984   1.890   9.645 -0.3822  0.0474  0.5175
  153SAPE   H7X17048   6.008   1.809   9.572 -2.0053  0.7769 -0.8557
  153SAPE   H7Y17049   6.080   1.920   9.693  0.5732 -0.2885 -1.1329
  153SAPE   C3817050   5.924   2.003   9.566 -0.4249  0.1916 -0.5028
  153SAPE   H8X17051   5.918   2.095   9.628 -1.0638  0.3347 -0.7786
  153SAPE   H8Y17052   5.817   1.983   9.544 -0.6106  0.7828 -0.1452
  153SAPE   C3917053   5.986   2.034   9.433 -0.5489 -0.4346 -0.5496
  153SAPE   H9X17054   6.073   2.101   9.452 -1.6605  1.7649 -2.8301
  153SAPE   H9Y17055   5.908   2.097   9.385  0.2918  2.1111  1.2836
  153SAPE  C31017056   6.013   1.914   9.342  0.0518 -0.8970 -0.1676
  153SAPE  H10X17057   5.923   1.851   9.328  0.0315 -1.5165  2.5198
  153SAPE  H10Y17058   6.089   1.845   9.384  0.6250 -1.2419 -1.7363
  153SAPE  C31117059   6.073   1.966   9.204 -0.1529  0.1453 -0.3012
  153SAPE  H11X17060   6.165   2.023   9.226  1.3395 -0.8088 -3.7299
  153SAPE  H11Y17061   6.002   2.040   9.161 -0.1681  0.7127  0.6858
  153SAPE  C31217062   6.109   1.849   9.105  0.0107 -0.3161 -1.3517
  153SAPE  H12X17063   6.140   1.757   9.158  0.5199 -0.1636 -1.3836
  153SAPE  H12Y17064   6.188   1.892   9.040  2.3477 -0.4550  1.3380
  153SAPE  C31317065   5.990   1.821   9.018  0.1922  0.6836  0.8629
  153SAPE  H13X17066   5.959   1.911   8.960  0.6985  1.2529  1.4602
  153SAPE  H13Y17067   5.905   1.803   9.087 -0.6008 -1.0426 -0.5299
  153SAPE  C31417068   6.008   1.702   8.920 -0.0514 -0.1729 -0.0438
  153SAPE  H14X17069   5.919   1.699   8.854  0.1254  2.0015 -0.4290
  153SAPE  H14Y17070   6.027   1.607   8.974  2.7200  1.1414  1.3971
  153SAPE  C31517071   6.137   1.721   8.841  0.5248 -0.3615  0.4282
  153SAPE  H15X17072   6.233   1.717   8.898  0.5842  0.2205  0.3702
  153SAPE  H15Y17073   6.142   1.826   8.804 -1.8264 -1.0984 -2.1516
  153SAPE  C31617074   6.143   1.626   8.716 -0.2077  0.1356 -0.6507
  153SAPE  H16X17075   6.138   1.521   8.750 -1.5618  0.5035  0.3155
  153SAPE  H16Y17076   6.241   1.642   8.666 -0.3269  0.6587 -0.7227
  153SAPE  C31717077   6.029   1.645   8.616  0.3285  0.2375  0.0247
  153SAPE  H17X17078   6.035   1.754   8.594  3.5161  0.1897  0.4337
  153SAPE  H17Y17079   5.931   1.621   8.662 -0.3231  1.5328 -0.6450
  153SAPE  C31817080   6.050   1.564   8.488  0.2599  0.3361 -0.4770
  153SAPE  H18X17081   5.981   1.576   8.402 -1.2544 -0.4222  0.6161
  153SAPE  H18Y17082   6.066   1.458   8.515 -0.0424  0.4947  0.3528
  153SAPE  H18Z17083   6.149   1.592   8.446  1.1121  0.4793  1.5838
  154SAPE     N17084   1.020   1.058  10.623  0.2061  0.1125 -0.1603
  154SAPE   HN117085   1.001   1.117  10.706  1.0012 -1.3430  1.0763
  154SAPE   HN217086   1.064   0.974  10.665  0.5415  0.5324  0.3180
  154SAPE   HN317087   1.085   1.105  10.557 -0.5583 -0.8756 -1.6666
  154SAPE   C1217088   0.893   1.014  10.542 -0.3995  1.0359  0.1980
  154SAPE  H12A17089   0.925   0.973  10.444  0.7878  0.7550  0.6844
  154SAPE  H12B17090   0.826   1.101  10.523 -2.6242 -0.4959  0.9154
  154SAPE   C1117091   0.811   0.910  10.618 -0.0695 -0.0491  0.1432
  154SAPE  H11A17092   0.877   0.821  10.631  2.9971  2.0693 -0.1678
  154SAPE  H11B17093   0.730   0.872  10.553  1.9381 -1.8712 -1.3891
  154SAPE     P17094   0.623   0.961  10.807 -0.1437 -0.5430  0.4336
  154SAPE   O1317095   0.575   0.829  10.849  0.0188 -0.1360 -0.8539
  154SAPE   O1417096   0.634   1.063  10.911 -0.0549  0.4080  0.1675
  154SAPE   O1217097   0.768   0.955  10.742  0.2827 -0.3115  0.0708
  154SAPE   O1117098   0.532   1.012  10.690  0.1946 -0.2220  0.5686
  154SAPE    C117099   0.551   1.149  10.649 -0.1058  0.3846  0.6827
  154SAPE    HA17100   0.496   1.217  10.717 -0.3379 -0.3550  1.2408
  154SAPE    HB17101   0.657   1.177  10.663  0.5351 -1.4838 -0.2155
  154SAPE    C217102   0.506   1.170  10.502  0.0912  0.0378 -0.1293
  154SAPE    HS17103   0.398   1.147  10.505  0.3145 -0.8358  2.8401
  154SAPE   O2117104   0.574   1.074  10.422 -0.1496  0.0654 -0.2249
  154SAPE   C2117105   0.508   1.025  10.317 -0.0116  0.1200  0.2932
  154SAPE   O2217106   0.401   1.062  10.279  0.0186  0.5597  0.7779
  154SAPE   C2217107   0.589   0.918  10.250  0.5161  0.3530 -0.1171
  154SAPE   H2R17108   0.691   0.955  10.230  0.8372 -0.0318  0.7856
  154SAPE   H2S17109   0.594   0.825  10.311  0.9670  0.1934 -0.3968
  154SAPE    C317110   0.533   1.307  10.442  0.5690 -0.5616  0.2171
  154SAPE    HX17111   0.642   1.324  10.451  0.7774 -0.5671 -1.8593
  154SAPE    HY17112   0.480   1.382  10.505 -1.5897 -1.5835 -0.3083
  154SAPE   O3117113   0.503   1.319  10.300 -0.4669  0.0356 -0.2997
  154SAPE   C3117114   0.514   1.446  10.257  0.4036  0.1480 -0.1169
  154SAPE   O3217115   0.537   1.544  10.328  0.2972 -0.5529 -0.2385
  154SAPE   C3217116   0.475   1.459  10.108 -0.5467  0.4643  0.6344
  154SAPE   H2X17117   0.459   1.568  10.092 -1.7063  0.2228  0.0610
  154SAPE   H2Y17118   0.383   1.403  10.079  0.6084 -0.7419 -0.7816
  154SAPE   C2317119   0.537   0.883  10.114  1.1203  0.8218  0.2723
  154SAPE   H3R17120   0.551   0.966  10.042 -0.7761  0.6982 -0.2650
  154SAPE   H3S17121   0.432   0.847  10.118  1.6846 -0.7574  1.7964
  154SAPE   C2417122   0.629   0.775  10.057 -0.9271  0.2473 -0.1317
  154SAPE   H4R17123   0.582   0.698   9.992 -0.6210  0.4873 -0.6419
  154SAPE   H4S17124   0.668   0.707  10.135  0.4993 -1.6895 -2.4387
  154SAPE   C2517125   0.761   0.837   9.986  0.5150  1.4032 -0.3865
  154SAPE   H5R17126   0.825   0.899  10.051 -0.4706  1.8300  0.1944
  154SAPE   C2617127   0.782   0.821   9.852  0.1154 -0.6612 -0.0527
  154SAPE   H6R17128   0.861   0.880   9.803 -1.2939 -0.6505 -2.3535
  154SAPE   C2717129   0.697   0.752   9.750 -0.3173  0.3095 -0.6239
  154SAPE   H7R17130   0.636   0.674   9.801  1.4454 -0.8437 -0.2621
  154SAPE   H7S17131   0.747   0.705   9.663 -0.5062  1.4777 -1.3817
  154SAPE   C2817132   0.595   0.859   9.702 -0.7345  0.1225 -0.1049
  154SAPE   H8R17133   0.523   0.890   9.779 -0.0729  0.1861  0.5009
  154SAPE   C2917134   0.595   0.928   9.590 -0.6935  0.5481 -0.2356
  154SAPE   H9R17135   0.510   0.994   9.566 -0.2090  1.0797 -0.4848
  154SAPE  C21017136   0.699   0.919   9.481 -0.0692  0.5137 -0.4273
  154SAPE  H10R17137   0.799   0.910   9.529 -0.3937  1.0626  0.3638
  154SAPE  H10S17138   0.681   1.011   9.421  2.3183  1.8868  0.8932
  154SAPE  C21117139   0.692   0.795   9.390 -0.0317  0.1743 -0.5614
  154SAPE  H11R17140   0.662   0.708   9.450 -0.3639  1.4732  1.2097
  154SAPE  C21217141   0.709   0.792   9.260 -0.3242 -0.3271  0.3017
  154SAPE  H12R17142   0.697   0.699   9.203  0.1757  0.1254 -0.5462
  154SAPE  C21317143   0.751   0.905   9.184 -0.9594 -0.2576  0.5902
  154SAPE  H13R17144   0.811   0.858   9.103 -0.3543  0.5331  0.5705
  154SAPE  H13S17145   0.814   0.967   9.252 -1.6519  3.1197 -1.6697
  154SAPE  C21417146   0.630   0.984   9.138  0.0553  0.0194 -1.3106
  154SAPE  H14R17147   0.567   1.010   9.225  0.4122 -4.1144  0.3068
  154SAPE  C21517148   0.598   1.022   9.019  0.3067  0.2054 -0.9473
  154SAPE  H15R17149   0.508   1.084   9.006 -0.7890 -1.4175 -1.2189
  154SAPE  C21617150   0.676   1.003   8.889 -1.1786 -0.5184  0.2646
  154SAPE  H16R17151   0.678   0.903   8.841  0.7614 -0.7520  0.8089
  154SAPE  H16S17152   0.780   1.037   8.906 -0.1341 -2.9169 -1.1864
  154SAPE  C21717153   0.614   1.095   8.777  0.3701  0.1751 -0.3185
  154SAPE  H17R17154   0.593   1.196   8.818  1.0242  0.3271 -0.3418
  154SAPE  H17S17155   0.522   1.044   8.743  0.7743  0.3386 -1.6905
  154SAPE  C21817156   0.699   1.109   8.647 -0.0872 -0.1013  0.9355
  154SAPE  H18R17157   0.698   1.004   8.608  0.5042  0.3177 -0.2609
  154SAPE  H18S17158   0.804   1.134   8.674  0.4026 -0.5121 -0.5067
  154SAPE  C21917159   0.632   1.205   8.539  0.4160 -0.0314  0.5119
  154SAPE  H19R17160   0.613   1.303   8.589  0.3518 -0.8757  2.1675
  154SAPE  H19S17161   0.552   1.145   8.491  3.3625 -3.5770 -0.2142
  154SAPE  C22017162   0.725   1.231   8.424  0.1991  0.0248 -0.4593
  154SAPE  H20R17163   0.819   1.279   8.457  0.1914  0.6903 -1.3981
  154SAPE  H20S17164   0.688   1.314   8.360 -1.3418  0.4454  0.9521
  154SAPE  H20T17165   0.731   1.134   8.369  1.0314 -0.5028  0.5323
  154SAPE   C3317166   0.584   1.411  10.004  0.2151  0.4394  0.1906
  154SAPE   H3X17167   0.661   1.490  10.007  0.4517  0.2188 -0.0305
  154SAPE   H3Y17168   0.537   1.420   9.904 -0.9022 -0.4305  0.6298
  154SAPE   C3417169   0.633   1.268  10.024 -0.2835 -1.0334 -0.1055
  154SAPE   H4X17170   0.546   1.199  10.031 -2.2986  1.4175 -0.2396
  154SAPE   H4Y17171   0.689   1.257  10.119  0.4176  3.1177  0.0720
  154SAPE   C3517172   0.719   1.221   9.905  0.7360  0.6287  0.1140
  154SAPE   H5X17173   0.652   1.214   9.817  0.0319 -0.0125  0.6932
  154SAPE   H5Y17174   0.758   1.121   9.931 -0.4860 -0.0900 -0.7682
  154SAPE   C3617175   0.827   1.316   9.855 -0.4222  0.1301  0.0464
  154SAPE   H6X17176   0.908   1.315   9.932  1.4588 -1.8748 -1.8906
  154SAPE   H6Y17177   0.792   1.420   9.843 -2.5751 -0.4115  1.3755
  154SAPE   C3717178   0.906   1.267   9.735  0.4154  0.0132 -0.0266
  154SAPE   H7X17179   0.946   1.165   9.752 -1.7352 -1.0765 -1.3466
  154SAPE   H7Y17180   1.004   1.320   9.727  2.0761 -3.2237 -2.3828
  154SAPE   C3817181   0.828   1.271   9.599  0.0675 -0.4460  0.1816
  154SAPE   H8X17182   0.774   1.368   9.594  0.3534 -0.3851 -2.2059
  154SAPE   H8Y17183   0.752   1.193   9.623 -0.0742 -0.0767  0.9368
  154SAPE   C3917184   0.911   1.226   9.480 -0.1235 -0.4389 -0.5731
  154SAPE   H9X17185   0.931   1.119   9.500  1.0149 -0.0075  0.6220
  154SAPE   H9Y17186   1.008   1.281   9.484 -0.4532  0.2146 -1.2508
  154SAPE  C31017187   0.836   1.258   9.349 -0.2581 -0.4390 -0.0855
  154SAPE  H10X17188   0.800   1.361   9.372 -0.7073 -0.2590 -1.5343
  154SAPE  H10Y17189   0.736   1.211   9.340 -0.2597 -0.2552 -1.2033
  154SAPE  C31117190   0.920   1.257   9.216  0.1669 -0.2218  0.1281
  154SAPE  H11X17191   0.935   1.154   9.179 -1.0387 -0.4571  0.2819
  154SAPE  H11Y17192   1.011   1.319   9.236 -0.4242  0.9544 -0.8104
  154SAPE  C31217193   0.834   1.324   9.107  0.1434  0.3155  0.1509
  154SAPE  H12X17194   0.816   1.432   9.128  1.6685  0.8015 -0.9385
  154SAPE  H12Y17195   0.737   1.272   9.097  0.8405 -0.6871 -1.6767
  154SAPE  C31317196   0.908   1.342   8.972 -0.2573  0.2487 -0.2709
  154SAPE  H13X17197   0.907   1.239   8.929 -1.9287  0.4312 -0.7043
  154SAPE  H13Y17198   1.010   1.379   8.997 -1.4713  2.4044  1.6172
  154SAPE  C31417199   0.833   1.434   8.872  0.2299  0.5633  0.2001
  154SAPE  H14X17200   0.825   1.532   8.923  0.7875  0.0564  1.2617
  154SAPE  H14Y17201   0.728   1.402   8.859  0.5298  0.0129 -0.9347
  154SAPE  C31517202   0.914   1.441   8.739  0.2044 -0.2248  0.9453
  154SAPE  H15X17203   0.912   1.339   8.696 -3.4607 -0.1092  0.6814
  154SAPE  H15Y17204   1.021   1.463   8.757  0.6536 -3.4025  2.4545
  154SAPE  C31617205   0.842   1.538   8.642  0.2285  0.3998 -1.1379
  154SAPE  H16X17206   0.822   1.627   8.705  0.7219 -1.6399  1.9774
  154SAPE  H16Y17207   0.748   1.489   8.609  1.0013 -1.2777 -0.9276
  154SAPE  C31717208   0.915   1.587   8.522  0.2413  0.1789  0.3083
  154SAPE  H17X17209   0.950   1.501   8.461 -1.4356 -0.2396 -0.0725
  154SAPE  H17Y17210   1.007   1.642   8.554 -0.0665  1.7323 -1.3901
  154SAPE  C31817211   0.834   1.675   8.426 -0.1509 -0.2608  0.1482
  154SAPE  H18X17212   0.902   1.693   8.341 -1.1844  0.6034 -0.4973
  154SAPE  H18Y17213   0.793   1.770   8.466 -0.5241 -0.0657 -0.6915
  154SAPE  H18Z17214   0.752   1.617   8.379  0.6610 -1.9744  0.7723
  155SAPE     N17215   1.046   2.889  11.068 -0.1700  0.0021 -0.1421
  155SAPE   HN117216   1.077   2.845  10.979 -0.9901 -0.5224 -0.1802
  155SAPE   HN217217   0.976   2.962  11.045  0.0740  0.3428  0.1926
  155SAPE   HN317218   1.131   2.932  11.109 -0.1108 -1.5282  1.4008
  155SAPE   C1217219   0.992   2.768  11.143  0.3693 -0.3800 -0.5627
  155SAPE  H12A17220   0.955   2.799  11.243  2.0282  0.3484 -0.1600
  155SAPE  H12B17221   1.085   2.709  11.157 -1.8249 -3.6963  0.4883
  155SAPE   C1117222   0.889   2.691  11.061  0.5675  0.9154  0.2214
  155SAPE  H11A17223   0.792   2.723  11.105 -0.4840 -0.8719 -0.7360
  155SAPE  H11B17224   0.895   2.584  11.089  3.5388  0.8278 -0.5530
  155SAPE     P17225   0.995   2.597  10.836  0.0335  0.6133 -0.3420
  155SAPE   O1317226   1.133   2.652  10.853  0.2716  0.1063  0.3075
  155SAPE   O1417227   0.968   2.456  10.878 -0.4279 -0.1533 -0.3873
  155SAPE   O1217228   0.897   2.700  10.916 -0.1376 -0.2300  0.7831
  155SAPE   O1117229   0.939   2.611  10.689 -0.6291  0.1051  0.3236
  155SAPE    C117230   0.801   2.599  10.663 -0.6317 -0.0970  0.4332
  155SAPE    HA17231   0.743   2.574  10.754  0.3149  1.4382  1.4815
  155SAPE    HB17232   0.776   2.705  10.644 -1.5329 -0.6454 -1.6313
  155SAPE    C217233   0.775   2.497  10.553  0.3607  0.5973  0.3120
  155SAPE    HS17234   0.814   2.401  10.594  1.9450  1.8549  1.8606
  155SAPE   O2117235   0.850   2.547  10.439  0.5381 -0.3936 -0.3187
  155SAPE   C2117236   0.906   2.456  10.356 -0.3010 -0.6386  0.0420
  155SAPE   O2217237   0.874   2.336  10.361  0.0550  0.3514 -0.4184
  155SAPE   C2217238   1.002   2.515  10.250 -0.3541  0.4031 -0.6811
  155SAPE   H2R17239   0.966   2.616  10.223 -1.0890  0.3605  0.1223
  155SAPE   H2S17240   1.106   2.524  10.290 -0.2774 -1.0977 -0.5235
  155SAPE    C317241   0.626   2.484  10.524 -0.5752  0.1208 -0.3325
  155SAPE    HX17242   0.593   2.590  10.518  1.3400  0.7552  0.1592
  155SAPE    HY17243   0.579   2.445  10.616  1.1303  0.7698  0.8320
  155SAPE   O3117244   0.597   2.407  10.410 -0.1025 -0.5414  0.8283
  155SAPE   C3117245   0.589   2.275  10.424 -0.4523 -0.1972 -0.4396
  155SAPE   O3217246   0.606   2.207  10.523 -0.7716 -0.0838 -0.0786
  155SAPE   C3217247   0.553   2.216  10.284  0.0066 -0.2043 -0.0242
  155SAPE   H2X17248   0.444   2.225  10.265  0.1453 -1.8907 -1.8998
  155SAPE   H2Y17249   0.568   2.106  10.283  1.2261 -0.0486 -0.1435
  155SAPE   C2317250   0.988   2.430  10.120  0.4165  0.3994 -0.2913
  155SAPE   H3R17251   0.893   2.457  10.069 -0.4597  0.3591  1.2832
  155SAPE   H3S17252   0.967   2.323  10.143 -0.1193  0.3311 -1.0812
  155SAPE   C2417253   1.114   2.452  10.026 -0.0998  0.0209 -0.5588
  155SAPE   H4R17254   1.128   2.562  10.016 -1.1547  0.4403  2.1970
  155SAPE   H4S17255   1.068   2.418   9.930 -1.4556 -1.4637  0.6011
  155SAPE   C2517256   1.234   2.385  10.086  0.5905 -0.6058  0.4949
  155SAPE   H5R17257   1.239   2.380  10.196 -0.2687  4.4756  0.8719
  155SAPE   C2617258   1.312   2.311  10.011 -0.2078 -0.4050  0.0307
  155SAPE   H6R17259   1.389   2.252  10.063  0.4232 -1.1806 -1.7328
  155SAPE   C2717260   1.292   2.296   9.865 -0.6100  0.0382  0.1200
  155SAPE   H7R17261   1.264   2.399   9.831 -0.9092  0.8923  2.8056
  155SAPE   H7S17262   1.202   2.235   9.842 -1.3266  1.2121 -0.2794
  155SAPE   C2817263   1.403   2.253   9.781 -0.1529  0.0231  0.1141
  155SAPE   H8R17264   1.383   2.159   9.727  0.2014 -0.7643  1.3289
  155SAPE   C2917265   1.525   2.307   9.774 -0.1353  0.0751  0.5239
  155SAPE   H9R17266   1.594   2.248   9.711 -0.2374  0.6266 -0.1075
  155SAPE  C21017267   1.583   2.427   9.846  0.6835 -0.0924  0.0242
  155SAPE  H10R17268   1.538   2.436   9.947 -0.2448 -3.3535 -0.0617
  155SAPE  H10S17269   1.545   2.511   9.784  0.5429  0.2251  0.5299
  155SAPE  C21117270   1.733   2.439   9.846 -0.1891 -0.2034  0.2796
  155SAPE  H11R17271   1.778   2.437   9.947  0.7647 -0.4816 -0.1462
  155SAPE  C21217272   1.809   2.464   9.739  0.0512  0.5272 -0.0093
  155SAPE  H12R17273   1.918   2.455   9.743 -0.3274 -4.4178  1.5238
  155SAPE  C21317274   1.738   2.481   9.602 -0.2762 -0.4666 -0.6869
  155SAPE  H13R17275   1.647   2.545   9.601  0.5944  0.7714 -0.7719
  155SAPE  H13S17276   1.711   2.385   9.554 -0.9060 -1.0079  0.7215
  155SAPE  C21417277   1.833   2.545   9.508 -0.2972 -0.4990  0.6045
  155SAPE  H14R17278   1.928   2.573   9.557  0.9517 -1.7951 -0.9927
  155SAPE  C21517279   1.819   2.583   9.381 -0.8577 -0.8564 -0.1702
  155SAPE  H15R17280   1.913   2.626   9.344 -1.4750  1.8502  1.2771
  155SAPE  C21617281   1.693   2.561   9.297 -0.2536  0.4431  0.3702
  155SAPE  H16R17282   1.650   2.663   9.300 -1.8016 -0.2195  1.4061
  155SAPE  H16S17283   1.626   2.487   9.346 -0.2154  0.9041  1.1264
  155SAPE  C21717284   1.738   2.508   9.159 -0.3175  0.4208  0.0360
  155SAPE  H17R17285   1.650   2.500   9.092 -0.7714 -2.7733  0.9170
  155SAPE  H17S17286   1.792   2.412   9.175  0.8886  1.1629  0.4996
  155SAPE  C21817287   1.835   2.608   9.087  0.3497 -0.6035 -0.0013
  155SAPE  H18R17288   1.933   2.613   9.139  0.1184 -1.3710  0.5252
  155SAPE  H18S17289   1.790   2.709   9.092  3.5353  1.0014 -2.1252
  155SAPE  C21917290   1.866   2.572   8.944 -0.3516 -0.2828  0.2141
  155SAPE  H19R17291   1.904   2.468   8.944  0.6157  0.0724  0.3771
  155SAPE  H19S17292   1.940   2.634   8.890  1.4451  0.8579  3.8894
  155SAPE  C22017293   1.739   2.560   8.855 -0.8579  0.4975  0.1040
  155SAPE  H20R17294   1.747   2.528   8.749  0.3071 -3.3342  1.2874
  155SAPE  H20S17295   1.698   2.663   8.848  1.0600  1.2193 -0.9824
  155SAPE  H20T17296   1.664   2.490   8.898 -1.0730 -0.8675 -2.4066
  155SAPE   C3317297   0.626   2.278  10.165  0.1141 -0.1081  0.2483
  155SAPE   H3X17298   0.731   2.243  10.176  0.6400  1.2355 -0.4446
  155SAPE   H3Y17299   0.631   2.389  10.169 -2.2796 -0.0106  1.1469
  155SAPE   C3417300   0.572   2.235  10.032  0.0812 -0.1364 -0.1677
  155SAPE   H4X17301   0.473   2.280  10.014  0.9253  1.3260 -1.3002
  155SAPE   H4Y17302   0.579   2.124  10.020 -0.3747 -0.0828 -0.9963
  155SAPE   C3517303   0.651   2.296   9.909  0.6087  0.1385  0.1178
  155SAPE   H5X17304   0.756   2.282   9.943  0.9086  1.4900 -0.2272
  155SAPE   H5Y17305   0.642   2.406   9.895  1.2894  0.0946 -0.7020
  155SAPE   C3617306   0.614   2.207   9.779 -0.0088 -0.5232 -0.4927
  155SAPE   H6X17307   0.522   2.248   9.734 -0.4648 -1.6464 -0.6145
  155SAPE   H6Y17308   0.587   2.100   9.795 -1.9212  0.3188  2.1790
  155SAPE   C3717309   0.740   2.214   9.688 -0.2575  0.0604  0.6601
  155SAPE   H7X17310   0.762   2.321   9.667 -0.6979  0.2046  0.9427
  155SAPE   H7Y17311   0.698   2.166   9.596  1.6698 -2.6210  1.1011
  155SAPE   C3817312   0.869   2.140   9.734  0.2460  0.6854 -0.0419
  155SAPE   H8X17313   0.846   2.042   9.780  1.8204  0.7338  0.8886
  155SAPE   H8Y17314   0.926   2.189   9.816  0.0248 -1.4074  1.3958
  155SAPE   C3917315   0.967   2.105   9.625  0.0374  0.3951  0.3460
  155SAPE   H9X17316   0.913   2.046   9.548 -0.2009  0.0026  0.8170
  155SAPE   H9Y17317   1.039   2.029   9.662 -0.0994 -0.6622 -1.5031
  155SAPE  C31017318   1.026   2.229   9.554  0.8190  0.2899 -0.3588
  155SAPE  H10X17319   1.055   2.300   9.635  0.8853 -0.9988  0.7482
  155SAPE  H10Y17320   0.944   2.271   9.492 -2.1197 -1.9558  1.8910
  155SAPE  C31117321   1.138   2.193   9.461 -0.2761  0.4263  0.0523
  155SAPE  H11X17322   1.092   2.133   9.380  0.5434  1.0859 -0.9186
  155SAPE  H11Y17323   1.207   2.128   9.518 -0.4375  1.7638  1.8204
  155SAPE  C31217324   1.213   2.309   9.392 -0.4038 -0.0632  0.5720
  155SAPE  H12X17325   1.247   2.378   9.472 -1.4050 -0.5120  1.3879
  155SAPE  H12Y17326   1.148   2.369   9.325  1.2559 -0.1552 -1.1524
  155SAPE  C31317327   1.321   2.258   9.297  0.2512  0.1518  0.3442
  155SAPE  H13X17328   1.340   2.342   9.227 -1.3100  0.6760  0.5306
  155SAPE  H13Y17329   1.289   2.172   9.233 -3.2325  0.7990  1.1245
  155SAPE  C31417330   1.456   2.238   9.373  0.3986 -0.1920  0.2528
  155SAPE  H14X17331   1.444   2.155   9.446 -0.1361  0.0029  0.3926
  155SAPE  H14Y17332   1.480   2.335   9.421  2.5808  1.2174 -3.4716
  155SAPE  C31517333   1.562   2.208   9.268  0.2306 -0.4850 -0.7265
  155SAPE  H15X17334   1.580   2.297   9.205  1.0154 -2.3519 -3.2239
  155SAPE  H15Y17335   1.520   2.133   9.197  1.9979 -1.5001 -0.7147
  155SAPE  C31617336   1.699   2.154   9.326  0.3983 -0.0688  0.3663
  155SAPE  H16X17337   1.669   2.077   9.400  0.3363  0.4546  0.8866
  155SAPE  H16Y17338   1.740   2.238   9.386 -1.3592  0.8046  0.3796
  155SAPE  C31717339   1.808   2.101   9.234  0.3554 -0.8623 -0.2992
  155SAPE  H17X17340   1.885   2.053   9.297  0.9376  0.0785 -0.2768
  155SAPE  H17Y17341   1.856   2.184   9.177 -0.6771 -0.1424 -0.1338
  155SAPE  C31817342   1.752   2.005   9.135  0.3042 -0.1324 -0.6289
  155SAPE  H18X17343   1.839   1.978   9.071  0.9022 -0.2299  0.2131
  155SAPE  H18Y17344   1.667   2.049   9.077  1.6654  1.1695 -1.6816
  155SAPE  H18Z17345   1.718   1.912   9.186 -3.9054  0.9758 -1.2368
  156SAPE     N17346   5.242   0.794  10.373  0.1495  0.0314 -0.3550
  156SAPE   HN117347   5.316   0.810  10.444 -0.5801  0.4418  0.3191
  156SAPE   HN217348   5.260   0.842  10.283 -0.7368  1.2479  0.1047
  156SAPE   HN317349   5.160   0.837  10.421  2.0383  1.6843  1.5060
  156SAPE   C1217350   5.221   0.645  10.347  0.9643 -0.2275  0.7944
  156SAPE  H12A17351   5.157   0.630  10.257 -1.7026 -3.6734  3.1599
  156SAPE  H12B17352   5.159   0.610  10.432 -0.2289  0.9137  0.4228
  156SAPE   C1117353   5.346   0.558  10.350  0.0038 -0.0098  0.2138
  156SAPE  H11A17354   5.423   0.612  10.290  1.4287 -0.3120  1.7574
  156SAPE  H11B17355   5.316   0.467  10.295 -1.2782  1.9786 -2.5246
  156SAPE     P17356   5.373   0.400  10.559  0.3159  0.1167 -0.2673
  156SAPE   O1317357   5.476   0.384  10.666  0.1004  0.2843  0.5079
  156SAPE   O1417358   5.232   0.385  10.607  0.6435  0.4691  0.0232
  156SAPE   O1217359   5.389   0.543  10.487 -0.0929  0.7041  0.3573
  156SAPE   O1117360   5.398   0.298  10.442 -0.3941  0.0616 -0.0171
  156SAPE    C117361   5.522   0.230  10.430  0.3587 -0.3173 -0.0792
  156SAPE    HA17362   5.565   0.202  10.529  0.3305 -2.1978 -0.5749
  156SAPE    HB17363   5.508   0.138  10.370 -2.3637 -2.2638  3.2834
  156SAPE    C217364   5.631   0.317  10.361  0.2226 -0.0182 -0.5617
  156SAPE    HS17365   5.662   0.390  10.439 -0.1130 -0.2137 -0.2429
  156SAPE   O2117366   5.571   0.380  10.247  0.5804  0.2174 -0.5251
  156SAPE   C2117367   5.644   0.481  10.199  0.2005 -0.3261 -0.0470
  156SAPE   O2217368   5.743   0.530  10.252 -0.5991  0.1081  0.4565
  156SAPE   C2217369   5.588   0.508  10.060 -0.1134 -0.8736  0.7069
  156SAPE   H2R17370   5.616   0.434   9.983  1.8708 -1.2933  1.7840
  156SAPE   H2S17371   5.478   0.496  10.072 -0.3416 -0.6829 -1.1213
  156SAPE    C317372   5.768   0.241  10.322  0.0922 -1.0490  0.3995
  156SAPE    HX17373   5.810   0.198  10.415  2.6866 -1.7286 -1.0548
  156SAPE    HY17374   5.842   0.312  10.279 -0.1662 -0.1333  1.4392
  156SAPE   O3117375   5.740   0.123  10.242  0.3055 -0.6965 -0.1923
  156SAPE   C3117376   5.733   0.135  10.118  0.2596  0.0129 -0.1938
  156SAPE   O3217377   5.766   0.231  10.052 -0.0861 -0.1171  0.1435
  156SAPE   C3217378   5.665   0.014  10.060  0.0360 -0.3180 -0.0811
  156SAPE   H2X17379   5.583  -0.024  10.125  0.1734 -3.5088 -1.6813
  156SAPE   H2Y17380   5.735  -0.072  10.054  1.0712  0.4829  0.2880
  156SAPE   C2317381   5.624   0.649  10.011  0.4707  0.6136 -0.2177
  156SAPE   H3R17382   5.701   0.642   9.931 -1.8152 -0.3264 -2.4026
  156SAPE   H3S17383   5.670   0.701  10.098 -1.0868  0.5004  0.6865
  156SAPE   C2417384   5.507   0.739   9.957 -0.5790  0.3413  0.8615
  156SAPE   H4R17385   5.417   0.748  10.022  0.0688  0.4343  1.7499
  156SAPE   H4S17386   5.459   0.696   9.867  1.8381 -0.7159  0.0475
  156SAPE   C2517387   5.557   0.879   9.924 -0.2196 -0.0601 -0.4678
  156SAPE   H5R17388   5.545   0.954  10.004  0.2412 -1.1345  0.6245
  156SAPE   C2617389   5.603   0.919   9.802  0.6143 -0.5823 -1.2881
  156SAPE   H6R17390   5.641   1.020   9.779 -0.4636  0.2974  0.6740
  156SAPE   C2717391   5.635   0.834   9.683  0.2230 -0.2458  0.2305
  156SAPE   H7R17392   5.557   0.757   9.665 -1.5054  1.1914  1.4406
  156SAPE   H7S17393   5.737   0.793   9.700  1.9206  3.1663 -1.1548
  156SAPE   C2817394   5.645   0.901   9.546  0.0055 -0.5343  0.4212
  156SAPE   H8R17395   5.547   0.910   9.499 -1.1941  0.9674  3.0816
  156SAPE   C2917396   5.750   0.962   9.482 -0.0982 -0.9142 -0.6211
  156SAPE   H9R17397   5.734   1.013   9.386 -0.6773 -0.9663 -0.5557
  156SAPE  C21017398   5.888   0.968   9.546  0.3707 -0.0083 -0.2082
  156SAPE  H10R17399   5.884   0.953   9.656 -3.1735 -0.6806 -0.3556
  156SAPE  H10S17400   5.926   1.072   9.532  0.4559 -0.1564 -1.1095
  156SAPE  C21117401   5.984   0.857   9.498 -0.0603 -0.1814  0.3017
  156SAPE  H11R17402   5.967   0.751   9.525 -1.7889  0.6270  2.5602
  156SAPE  C21217403   6.095   0.873   9.427  0.2975  0.1599 -0.1102
  156SAPE  H12R17404   6.159   0.783   9.420  0.2123  0.0375  0.6288
  156SAPE  C21317405   6.145   1.001   9.374 -0.4472 -0.0373 -0.1508
  156SAPE  H13R17406   6.148   1.080   9.452  1.0997 -0.1483 -0.0670
  156SAPE  H13S17407   6.071   1.038   9.301  1.4789  1.6971 -1.2955
  156SAPE  C21417408   6.277   0.996   9.305 -0.1665  0.0703 -0.6687
  156SAPE  H14R17409   6.353   0.933   9.354 -0.4685 -0.8748 -1.4215
  156SAPE  C21517410   6.301   1.036   9.177 -0.4007  0.0356 -0.7911
  156SAPE  H15R17411   6.399   1.012   9.134 -0.9314 -2.8653 -0.4871
  156SAPE  C21617412   6.197   1.099   9.088  0.7198  0.9850  0.4439
  156SAPE  H16R17413   6.152   1.189   9.135  1.1807  0.0132  2.8372
  156SAPE  H16S17414   6.115   1.027   9.070  1.4306  0.5061 -0.9139
  156SAPE  C21717415   6.266   1.130   8.950  0.4563 -0.7887 -0.1330
  156SAPE  H17R17416   6.333   1.217   8.965 -0.2316 -0.5440  1.6887
  156SAPE  H17S17417   6.178   1.175   8.900  1.6077  0.9873 -0.6018
  156SAPE  C21817418   6.335   1.016   8.869 -0.5840  0.3307 -0.3193
  156SAPE  H18R17419   6.270   0.929   8.843 -2.9734  2.1081 -0.5054
  156SAPE  H18S17420   6.421   0.981   8.930 -0.8881  2.5803  1.4876
  156SAPE  C21917421   6.369   1.073   8.730  0.1284 -0.1167 -0.3569
  156SAPE  H19R17422   6.273   1.096   8.680  0.6865  1.1247 -0.8973
  156SAPE  H19S17423   6.418   0.989   8.676 -1.9594 -1.5764 -0.0393
  156SAPE  C22017424   6.468   1.190   8.731 -0.7534  0.2621  0.1093
  156SAPE  H20R17425   6.433   1.281   8.785  1.5602 -0.5104  3.0133
  156SAPE  H20S17426   6.503   1.222   8.630 -1.2265  0.7815  0.1032
  156SAPE  H20T17427   6.554   1.158   8.793 -2.1290 -1.3476  1.2211
  156SAPE   C3317428   5.601   0.046   9.919  0.0904 -0.1041 -0.0117
  156SAPE   H3X17429   5.544   0.141   9.915 -1.1072 -0.8407 -1.2212
  156SAPE   H3Y17430   5.529  -0.033   9.886 -2.6794  0.9136  3.3319
  156SAPE   C3417431   5.706   0.067   9.812 -0.2723  0.1041  0.0801
  156SAPE   H4X17432   5.802   0.013   9.830  0.2522  1.4078  1.2714
  156SAPE   H4Y17433   5.727   0.176   9.819 -0.1016  0.0706  0.1030
  156SAPE   C3517434   5.655   0.013   9.675  0.2305 -0.4262 -0.8248
  156SAPE   H5X17435   5.563   0.072   9.654  0.4944  0.2122 -0.2223
  156SAPE   H5Y17436   5.630  -0.095   9.684 -1.2242 -0.2490 -2.5044
  156SAPE   C3617437   5.749   0.059   9.573 -0.4988  0.1359  0.6026
  156SAPE   H6X17438   5.840  -0.002   9.591 -0.1121  0.4883 -0.1167
  156SAPE   H6Y17439   5.781   0.162   9.600 -0.0469  0.3007 -0.5314
  156SAPE   C3717440   5.695   0.055   9.425 -0.0657  0.6382  0.1587
  156SAPE   H7X17441   5.763   0.114   9.359 -3.8913  2.9613 -1.8816
  156SAPE   H7Y17442   5.591   0.093   9.428 -0.0914  0.6352 -0.7005
  156SAPE   C3817443   5.694  -0.087   9.367 -0.2009  0.6311  0.0363
  156SAPE   H8X17444   5.614  -0.149   9.414  1.2148 -0.7380  0.6781
  156SAPE   H8Y17445   5.793  -0.133   9.385 -1.3718 -1.8659  0.2487
  156SAPE   C3917446   5.675  -0.095   9.215  0.3307  0.1186  0.5782
  156SAPE   H9X17447   5.762  -0.034   9.182 -1.6689  0.8631 -3.6633
  156SAPE   H9Y17448   5.583  -0.041   9.184  0.7577 -0.1375 -1.1948
  156SAPE  C31017449   5.681  -0.229   9.155 -0.2700  0.3252  0.0781
  156SAPE  H10X17450   5.587  -0.286   9.170 -1.0638  1.5256 -0.2519
  156SAPE  H10Y17451   5.764  -0.280   9.209 -1.1747  0.3141  1.4983
  156SAPE  C31117452   5.715  -0.232   9.002 -0.1889  0.4789 -0.8201
  156SAPE  H11X17453   5.764  -0.324   8.965  1.8026  1.9128 -1.7760
  156SAPE  H11Y17454   5.789  -0.152   8.982  1.5903 -0.1531  2.7865
  156SAPE  C31217455   5.584  -0.205   8.930  0.4438 -0.3735 -0.0166
  156SAPE  H12X17456   5.526  -0.134   8.993  0.8217 -0.6757  0.6737
  156SAPE  H12Y17457   5.530  -0.302   8.919 -1.2330  0.7527 -2.3651
  156SAPE  C31317458   5.613  -0.145   8.791  0.7026 -0.3665  0.5957
  156SAPE  H13X17459   5.696  -0.073   8.801  0.2550  0.2864 -0.3585
  156SAPE  H13Y17460   5.530  -0.086   8.747  0.2969  0.3754  2.2880
  156SAPE  C31417461   5.652  -0.250   8.682  0.1578 -0.1715  0.0487
  156SAPE  H14X17462   5.749  -0.296   8.709  1.5436  1.5731 -1.8078
  156SAPE  H14Y17463   5.646  -0.178   8.598 -3.1884  0.6375  0.8877
  156SAPE  C31517464   5.543  -0.358   8.658 -0.5093 -0.2140  0.2048
  156SAPE  H15X17465   5.448  -0.304   8.640 -0.6935 -0.9109 -0.9619
  156SAPE  H15Y17466   5.524  -0.424   8.745 -0.2550  0.3440  0.6848
  156SAPE  C31617467   5.547  -0.438   8.530  0.2182 -0.6013 -0.2396
  156SAPE  H16X17468   5.645  -0.492   8.528 -0.8230 -2.5094 -0.6726
  156SAPE  H16Y17469   5.540  -0.357   8.454  0.1934  1.6514  2.1338
  156SAPE  C31717470   5.428  -0.531   8.505 -0.3315  0.4623  0.2137
  156SAPE  H17X17471   5.418  -0.553   8.396  1.3132 -2.0267  0.5355
  156SAPE  H17Y17472   5.335  -0.479   8.538 -1.3589 -2.0570  1.3950
  156SAPE  C31817473   5.433  -0.667   8.581 -0.1437  0.2272  0.0979
  156SAPE  H18X17474   5.337  -0.722   8.570  0.6573 -1.1339 -0.1365
  156SAPE  H18Y17475   5.448  -0.662   8.691 -0.3425 -0.0786  0.1395
  156SAPE  H18Z17476   5.516  -0.725   8.535 -1.0037  0.2870 -1.5591
  157SAPE     N17477   4.749   0.145  11.058 -0.4757  0.4597  0.5068
  157SAPE   HN117478   4.747   0.087  11.144  3.6507  0.4724  0.7170
  157SAPE   HN217479   4.728   0.075  10.984  0.3642  2.2235 -1.4754
  157SAPE   HN317480   4.832   0.200  11.029 -0.8118  0.3706 -0.6584
  157SAPE   C1217481   4.642   0.247  11.050 -0.3271 -0.8574  0.2252
  157SAPE  H12A17482   4.651   0.314  11.139 -0.1851  0.5582 -0.8433
  157SAPE  H12B17483   4.542   0.199  11.047 -1.1786  0.9819 -2.7200
  157SAPE   C1117484   4.648   0.321  10.923  0.4541 -0.3088  0.5959
  157SAPE  H11A17485   4.742   0.380  10.928  0.4990 -0.1265 -1.7488
  157SAPE  H11B17486   4.567   0.395  10.905  0.8332  0.0272  0.2482
  157SAPE     P17487   4.582   0.252  10.684  0.0272 -0.0684  0.3391
  157SAPE   O1317488   4.437   0.246  10.707  0.0518 -0.3285  0.5318
  157SAPE   O1417489   4.626   0.381  10.633  0.4447 -0.2188 -0.1213
  157SAPE   O1217490   4.664   0.228  10.816 -0.7430  0.8790 -0.8063
  157SAPE   O1117491   4.630   0.138  10.584 -0.2889 -0.3851 -0.3121
  157SAPE    C117492   4.546   0.108  10.470  0.5568 -0.0778 -0.1526
  157SAPE    HA17493   4.550  -0.002  10.455  0.0447 -0.4723  2.4407
  157SAPE    HB17494   4.438   0.121  10.492  0.9053  1.2608  0.8362
  157SAPE    C217495   4.597   0.177  10.346 -0.9520  0.9835  0.2599
  157SAPE    HS17496   4.708   0.189  10.347 -0.7517 -0.5984 -1.1276
  157SAPE   O2117497   4.526   0.307  10.339  0.4567 -0.0576  0.2001
  157SAPE   C2117498   4.594   0.411  10.281  0.4367 -0.2532  0.1445
  157SAPE   O2217499   4.699   0.395  10.219 -0.0893 -0.1025 -0.0533
  157SAPE   C2217500   4.521   0.533  10.323  0.5400 -0.3784 -0.1561
  157SAPE   H2R17501   4.411   0.521  10.335 -0.1751  3.5067 -1.8874
  157SAPE   H2S17502   4.567   0.561  10.420  2.3444 -1.3992 -0.6855
  157SAPE    C317503   4.562   0.090  10.222 -0.6179  0.0981 -0.0115
  157SAPE    HX17504   4.453   0.069  10.224 -0.6294  0.1847  0.2456
  157SAPE    HY17505   4.614  -0.007  10.233  0.6076  0.5493 -1.5842
  157SAPE   O3117506   4.593   0.147  10.094 -0.2572 -0.2546  0.2019
  157SAPE   C3117507   4.724   0.145  10.055 -0.5698  0.1593  0.0968
  157SAPE   O3217508   4.809   0.078  10.111 -0.0386 -0.3515 -0.5053
  157SAPE   C3217509   4.739   0.235   9.928 -0.0524  0.1515 -0.1686
  157SAPE   H2X17510   4.803   0.322   9.955  0.1838 -0.2519  0.5886
  157SAPE   H2Y17511   4.639   0.281   9.911  1.0679  2.1692 -1.4489
  157SAPE   C2317512   4.547   0.652  10.225  0.2397 -0.1166  0.1589
  157SAPE   H3R17513   4.653   0.679  10.240  0.2115 -1.0215  2.1673
  157SAPE   H3S17514   4.488   0.740  10.258  0.6907 -0.3564  1.6386
  157SAPE   C2417515   4.521   0.624  10.076  0.0907 -0.2546 -0.4438
  157SAPE   H4R17516   4.419   0.581  10.071 -0.6656  1.3230  0.7927
  157SAPE   H4S17517   4.591   0.544  10.044  2.7664  1.7304  0.2036
  157SAPE   C2517518   4.538   0.741   9.979 -0.3777  0.5290  0.0513
  157SAPE   H5R17519   4.485   0.832  10.013 -0.4774  1.6553 -3.0242
  157SAPE   C2617520   4.598   0.743   9.858 -0.6136 -0.1540  0.3701
  157SAPE   H6R17521   4.608   0.836   9.799  1.1667  1.7195  3.4863
  157SAPE   C2717522   4.661   0.630   9.783  0.1768  0.4148 -0.1177
  157SAPE   H7R17523   4.593   0.617   9.696  0.8723 -0.9123 -0.4867
  157SAPE   H7S17524   4.659   0.531   9.835  1.3277 -0.1624 -1.1383
  157SAPE   C2817525   4.807   0.638   9.740  0.8593  0.1522 -0.1491
  157SAPE   H8R17526   4.872   0.645   9.829 -0.8656  2.5039  0.9986
  157SAPE   C2917527   4.860   0.652   9.616 -0.4114  0.0711 -0.3214
  157SAPE   H9R17528   4.970   0.660   9.609 -0.3107  0.2677  1.3530
  157SAPE  C21017529   4.794   0.652   9.478  0.1260 -0.5875  0.5098
  157SAPE  H10R17530   4.685   0.663   9.494  0.5220  1.4339  2.0577
  157SAPE  H10S17531   4.820   0.553   9.435  1.6813  0.0693 -0.1160
  157SAPE  C21117532   4.831   0.773   9.395  0.2622 -0.0473 -0.2563
  157SAPE  H11R17533   4.809   0.871   9.440  1.6300  0.8584 -1.4968
  157SAPE  C21217534   4.881   0.771   9.270  0.2871  0.0593  0.4842
  157SAPE  H12R17535   4.894   0.870   9.223 -1.1128  0.0015 -0.0260
  157SAPE  C21317536   4.920   0.655   9.186  0.1316  0.0968 -0.4970
  157SAPE  H13R17537   4.894   0.562   9.242 -3.2833  1.9733  1.1509
  157SAPE  H13S17538   5.027   0.658   9.155  1.0082 -0.6804  2.2796
  157SAPE  C21417539   4.836   0.635   9.062  0.0585  0.8575 -0.5498
  157SAPE  H14R17540   4.728   0.643   9.084  0.1199 -0.0434  0.1440
  157SAPE  C21517541   4.857   0.615   8.933  0.2682  0.1356  0.3710
  157SAPE  H15R17542   4.775   0.591   8.865 -0.2952 -0.3238  1.2037
  157SAPE  C21617543   4.997   0.600   8.872 -0.6447  0.0905  0.4281
  157SAPE  H16R17544   5.020   0.493   8.849 -1.9460  0.1385 -1.2205
  157SAPE  H16S17545   5.078   0.648   8.931 -0.1541  0.2353 -0.3592
  157SAPE  C21717546   4.996   0.695   8.741  0.0103  0.0051  0.8820
  157SAPE  H17R17547   5.101   0.725   8.726 -0.1422  1.8433  3.1649
  157SAPE  H17S17548   4.945   0.792   8.757 -0.0568 -0.0590  1.0517
  157SAPE  C21817549   4.937   0.616   8.623 -0.3118  0.1722 -0.4744
  157SAPE  H18R17550   4.918   0.686   8.539  0.1535 -0.9921 -1.5791
  157SAPE  H18S17551   4.850   0.559   8.663 -1.2049  1.3682 -0.7049
  157SAPE  C21917552   5.040   0.515   8.576  0.4208  0.4736  0.0052
  157SAPE  H19R17553   5.080   0.454   8.660 -1.5206 -1.6073 -0.5154
  157SAPE  H19S17554   5.128   0.572   8.539  0.1240  2.1340  1.7668
  157SAPE  C22017555   4.996   0.421   8.468  0.2373  0.3770  0.3210
  157SAPE  H20R17556   5.077   0.362   8.419 -0.1684 -0.7237  0.9493
  157SAPE  H20S17557   4.937   0.483   8.397  0.5038 -0.0948 -0.3160
  157SAPE  H20T17558   4.923   0.355   8.520  0.6800 -1.2875 -1.1186
  157SAPE   C3317559   4.777   0.157   9.802 -0.7052  0.4957 -0.1468
  157SAPE   H3X17560   4.697   0.085   9.774 -0.1512 -0.9861  1.9637
  157SAPE   H3Y17561   4.873   0.101   9.814 -2.1789 -1.9258  0.7985
  157SAPE   C3417562   4.803   0.260   9.684  0.1741  0.8427 -0.2034
  157SAPE   H4X17563   4.900   0.313   9.686 -0.2806  1.7325 -1.0856
  157SAPE   H4Y17564   4.720   0.333   9.695 -0.7857 -0.1077 -0.9405
  157SAPE   C3517565   4.792   0.184   9.553 -0.8524 -0.6237  0.7326
  157SAPE   H5X17566   4.686   0.148   9.550 -0.7236 -0.9071 -3.0377
  157SAPE   H5Y17567   4.848   0.088   9.557  0.7965  0.1815 -1.8393
  157SAPE   C3617568   4.833   0.260   9.424  0.6229 -0.4255  0.0088
  157SAPE   H6X17569   4.938   0.298   9.423  0.8922 -1.1395 -1.8689
  157SAPE   H6Y17570   4.776   0.353   9.404  1.0740 -0.4470 -1.4572
  157SAPE   C3717571   4.835   0.168   9.307  0.3597  0.0493 -0.3098
  157SAPE   H7X17572   4.756   0.091   9.304  0.3652  0.1306 -3.1157
  157SAPE   H7Y17573   4.926   0.105   9.308  0.0339 -0.4221  0.6429
  157SAPE   C3817574   4.827   0.234   9.166  0.1866 -0.3394  0.5189
  157SAPE   H8X17575   4.910   0.307   9.156 -2.9821  3.2174 -0.9200
  157SAPE   H8Y17576   4.734   0.291   9.148 -0.2089 -0.6088  1.6471
  157SAPE   C3917577   4.849   0.118   9.062  0.4735 -0.4429  0.2222
  157SAPE   H9X17578   4.748   0.072   9.053 -1.4446  3.7651 -1.0341
  157SAPE   H9Y17579   4.907   0.042   9.118  2.0008  1.9964  2.0973
  157SAPE  C31017580   4.912   0.182   8.936  0.8482 -0.1815 -0.6662
  157SAPE  H10X17581   5.022   0.177   8.947  0.6804  1.9052  2.8428
  157SAPE  H10Y17582   4.851   0.274   8.923 -1.2999 -1.5089 -0.3209
  157SAPE  C31117583   4.885   0.090   8.811  0.0354  0.2020  0.5742
  157SAPE  H11X17584   4.875   0.162   8.727  0.8425 -1.4763 -0.9593
  157SAPE  H11Y17585   4.781   0.050   8.811 -0.2596  0.9565  0.5398
  157SAPE  C31217586   4.992  -0.012   8.771  0.2452  0.0290  0.1127
  157SAPE  H12X17587   4.934  -0.072   8.697  0.5533 -1.9163  1.4103
  157SAPE  H12Y17588   5.021  -0.068   8.863  2.3924  1.5035  0.3386
  157SAPE  C31317589   5.108   0.043   8.692 -0.7915  0.9440  0.2955
  157SAPE  H13X17590   5.168   0.123   8.739 -0.1111 -0.5472  2.0302
  157SAPE  H13Y17591   5.076   0.091   8.598 -1.4492  0.8595  0.4718
  157SAPE  C31417592   5.194  -0.075   8.647 -0.3977  0.5612 -0.2732
  157SAPE  H14X17593   5.129  -0.147   8.593  1.2945  0.9523 -2.9093
  157SAPE  H14Y17594   5.249  -0.111   8.736  1.3372  2.5195 -0.5241
  157SAPE  C31517595   5.301  -0.039   8.542  0.1724  0.1348 -0.1291
  157SAPE  H15X17596   5.384  -0.113   8.548 -1.4398 -1.5482  2.1961
  157SAPE  H15Y17597   5.347   0.056   8.577  0.6250  0.5430 -1.7949
  157SAPE  C31617598   5.252  -0.013   8.398  0.0187 -0.1941  0.1143
  157SAPE  H16X17599   5.178   0.069   8.404  1.7231  1.2528  2.2426
  157SAPE  H16Y17600   5.200  -0.106   8.367 -2.3789  1.0701  0.2008
  157SAPE  C31717601   5.371   0.024   8.307  0.2849 -0.4640 -0.1085
  157SAPE  H17X17602   5.434   0.103   8.352  1.7903 -0.3671 -2.3251
  157SAPE  H17Y17603   5.330   0.086   8.225  1.0208  0.7577  0.4436
  157SAPE  C31817604   5.464  -0.087   8.276 -0.2457 -0.2663 -0.3129
  157SAPE  H18X17605   5.409  -0.168   8.222 -0.4727 -0.8784  0.8214
  157SAPE  H18Y17606   5.503  -0.141   8.364  0.9906 -1.4929 -1.5759
  157SAPE  H18Z17607   5.548  -0.056   8.209 -1.9956 -0.6483 -2.7713
  158SAPE     N17608   6.334   1.413  10.598  0.2427  0.2365  0.1077
  158SAPE   HN117609   6.393   1.499  10.596  2.1181 -0.9877  1.1620
  158SAPE   HN217610   6.376   1.350  10.526 -1.8728 -0.2456 -0.7345
  158SAPE   HN317611   6.239   1.443  10.570  0.0980 -0.4929 -0.1891
  158SAPE   C1217612   6.349   1.365  10.741 -1.0589  0.0239  0.7516
  158SAPE  H12A17613   6.340   1.453  10.808  1.8168  3.2417 -2.9203
  158SAPE  H12B17614   6.449   1.321  10.756 -0.6062  0.6480 -0.4416
  158SAPE   C1117615   6.246   1.252  10.770  0.2698  0.0936  0.4822
  158SAPE  H11A17616   6.147   1.294  10.743  0.9236  0.1134 -2.0282
  158SAPE  H11B17617   6.244   1.226  10.878  0.3304 -1.5428  0.1010
  158SAPE     P17618   6.219   1.001  10.708 -0.0781 -0.0579  0.2483
  158SAPE   O1317619   6.336   0.912  10.738  0.9962  0.3075  0.2868
  158SAPE   O1417620   6.112   1.011  10.818  0.0190 -0.0886 -0.0485
  158SAPE   O1217621   6.266   1.148  10.679 -0.0184  0.8825  0.6139
  158SAPE   O1117622   6.151   0.961  10.570 -0.0981  0.2995  0.2151
  158SAPE    C117623   6.024   1.012  10.523 -0.5588  1.0799  0.1435
  158SAPE    HA17624   5.950   0.933  10.546 -0.4732  1.4135  1.6387
  158SAPE    HB17625   5.995   1.101  10.583 -1.1379  1.6174 -0.9180
  158SAPE    C217626   6.017   1.044  10.374 -0.2930  0.0359  0.1771
  158SAPE    HS17627   5.923   1.100  10.354  0.9486  2.5157  0.9847
  158SAPE   O2117628   6.027   0.928  10.295  1.1356  0.4897 -0.4937
  158SAPE   C2117629   5.964   0.932  10.177  0.2894 -0.1075 -0.7085
  158SAPE   O2217630   5.890   1.025  10.139 -0.7556 -0.3825 -0.5543
  158SAPE   C2217631   5.997   0.806  10.096 -0.1933 -0.0265  0.0068
  158SAPE   H2R17632   6.108   0.806  10.098 -0.2146 -0.8698  2.1681
  158SAPE   H2S17633   5.947   0.722  10.148 -2.6777  1.9943  1.0389
  158SAPE    C317634   6.123   1.148  10.329  0.4379  0.6119  0.0920
  158SAPE    HX17635   6.218   1.094  10.349  0.2092  1.3164  3.4638
  158SAPE    HY17636   6.138   1.233  10.399  1.6784  0.2987  0.2308
  158SAPE   O3117637   6.103   1.196  10.197  0.2077 -0.7731  0.1106
  158SAPE   C3117638   6.209   1.240  10.124 -0.1655 -0.3681 -0.2338
  158SAPE   O3217639   6.320   1.255  10.167  0.5572  0.2802  0.7659
  158SAPE   C3217640   6.158   1.284   9.986  0.0418 -1.1111 -0.4699
  158SAPE   H2X17641   6.062   1.334  10.009  1.0060 -0.3000  1.9563
  158SAPE   H2Y17642   6.129   1.192   9.930 -2.1346  0.1233 -1.4104
  158SAPE   C2317643   5.956   0.812   9.946  0.0430  0.8859  0.4713
  158SAPE   H3R17644   5.984   0.910   9.903  0.0114  0.5147 -0.4187
  158SAPE   H3S17645   5.845   0.810   9.950  0.0825  1.4468  1.9769
  158SAPE   C2417646   6.009   0.693   9.851 -0.2711  0.2596 -0.6783
  158SAPE   H4R17647   6.120   0.703   9.854 -0.4532  2.3670 -0.5473
  158SAPE   H4S17648   5.988   0.727   9.748  0.0439 -1.0417 -1.1779
  158SAPE   C2517649   5.963   0.554   9.900 -0.3303  0.7852 -0.0992
  158SAPE   H5R17650   6.002   0.531  10.000 -0.8833 -1.1211 -0.2947
  158SAPE   C2617651   5.900   0.456   9.838 -0.1279  0.0361 -1.2735
  158SAPE   H6R17652   5.876   0.363   9.892  2.3285 -0.4938 -1.0026
  158SAPE   C2717653   5.838   0.470   9.706 -0.0760  0.0883  0.0203
  158SAPE   H7R17654   5.823   0.577   9.683  1.5815  0.7866  2.1092
  158SAPE   H7S17655   5.744   0.411   9.692  1.0493 -1.9309  0.6574
  158SAPE   C2817656   5.935   0.427   9.601 -0.2949  0.6803  0.4618
  158SAPE   H8R17657   6.035   0.395   9.635 -0.2035 -0.6650 -1.0259
  158SAPE   C2917658   5.900   0.435   9.465  0.2298 -0.1210  0.1770
  158SAPE   H9R17659   5.967   0.407   9.383  2.1097 -0.6247  1.8572
  158SAPE  C21017660   5.761   0.478   9.417 -0.7856  0.9483  1.0713
  158SAPE  H10R17661   5.683   0.473   9.496 -2.2099  0.9926 -0.3103
  158SAPE  H10S17662   5.727   0.408   9.338  2.5268  0.2432  0.1790
  158SAPE  C21117663   5.743   0.619   9.362  0.3166  0.5467 -0.9877
  158SAPE  H11R17664   5.652   0.665   9.402 -0.4305 -2.6563  1.1565
  158SAPE  C21217665   5.807   0.684   9.262 -0.7981  0.1583 -0.1745
  158SAPE  H12R17666   5.796   0.793   9.251 -1.8813 -0.1033 -1.9664
  158SAPE  C21317667   5.927   0.629   9.186 -0.2006  0.1950  0.3606
  158SAPE  H13R17668   5.979   0.540   9.225 -0.1964  0.1251  0.1962
  158SAPE  H13S17669   5.995   0.717   9.191 -0.2722  0.3027 -0.3647
  158SAPE  C21417670   5.868   0.611   9.042 -0.1052  0.2990 -0.1221
  158SAPE  H14R17671   5.773   0.557   9.029 -0.2425  1.1002 -2.8380
  158SAPE  C21517672   5.939   0.647   8.933  0.0566 -0.6280 -0.3088
  158SAPE  H15R17673   5.889   0.622   8.838  2.8488 -2.5799 -1.3291
  158SAPE  C21617674   6.080   0.707   8.933 -0.7880  0.4280  0.1475
  158SAPE  H16R17675   6.123   0.699   9.035  1.3362 -1.3088 -0.8596
  158SAPE  H16S17676   6.083   0.806   8.882  1.1880 -0.3682 -1.3552
  158SAPE  C21717677   6.185   0.621   8.848  0.3841 -0.8341 -0.0847
  158SAPE  H17R17678   6.210   0.527   8.901 -1.6273 -0.2139  2.0445
  158SAPE  H17S17679   6.279   0.680   8.851 -0.5010  0.5920  0.1793
  158SAPE  C21817680   6.141   0.609   8.697 -0.0208  0.7346  0.4113
  158SAPE  H18R17681   6.097   0.705   8.665  0.9049  1.3109  0.8591
  158SAPE  H18S17682   6.071   0.525   8.676  0.3560  0.4711  0.2002
  158SAPE  C21917683   6.263   0.593   8.599  0.6330 -0.2320 -0.4379
  158SAPE  H19R17684   6.299   0.490   8.621  0.7554  0.1150  1.0280
  158SAPE  H19S17685   6.345   0.660   8.632  0.0247  0.4185 -0.2300
  158SAPE  C22017686   6.223   0.623   8.453 -0.1122  0.6161  0.9060
  158SAPE  H20R17687   6.313   0.630   8.389  0.1340 -2.0746  0.9171
  158SAPE  H20S17688   6.178   0.724   8.441  1.1302  1.2243  1.2899
  158SAPE  H20T17689   6.157   0.539   8.421 -1.1946  1.1654  1.6587
  158SAPE   C3317690   6.251   1.365   9.892 -0.3158  0.1540  0.9847
  158SAPE   H3X17691   6.335   1.410   9.949  0.8461 -0.9328  0.1547
  158SAPE   H3Y17692   6.196   1.447   9.839  0.2916 -1.0647 -1.6027
  158SAPE   C3417693   6.308   1.274   9.783  0.1961 -0.2098 -0.1591
  158SAPE   H4X17694   6.230   1.211   9.736  0.5479 -1.5707  1.0368
  158SAPE   H4Y17695   6.369   1.204   9.844 -0.2644  0.3799  0.9927
  158SAPE   C3517696   6.404   1.335   9.681  0.3719  0.0979 -0.2312
  158SAPE   H5X17697   6.473   1.260   9.636  2.5063  1.8828 -0.0219
  158SAPE   H5Y17698   6.468   1.396   9.748 -0.2832 -0.6196  1.0890
  158SAPE   C3617699   6.346   1.416   9.569  0.8520 -0.5611  0.6567
  158SAPE   H6X17700   6.297   1.511   9.600  2.1483  0.0552  0.8735
  158SAPE   H6Y17701   6.266   1.351   9.529  0.5175 -0.7729  1.6404
  158SAPE   C3717702   6.450   1.449   9.463 -0.1752  0.3515  0.4533
  158SAPE   H7X17703   6.482   1.349   9.427 -1.7460 -0.6458  1.7202
  158SAPE   H7Y17704   6.528   1.510   9.513  0.0092  2.2678 -2.0672
  158SAPE   C3817705   6.391   1.539   9.354  0.2800 -0.7027 -0.3608
  158SAPE   H8X17706   6.366   1.639   9.397  2.8780 -0.3632  0.4483
  158SAPE   H8Y17707   6.295   1.499   9.315  0.1121 -2.9689  2.2956
  158SAPE   C3917708   6.495   1.558   9.242  0.2248 -0.6711 -0.0260
  158SAPE   H9X17709   6.523   1.457   9.206 -1.1878 -1.2483  0.4619
  158SAPE   H9Y17710   6.581   1.618   9.280  1.3828 -1.2147 -1.7438
  158SAPE  C31017711   6.441   1.635   9.120  0.7271  0.0438 -1.1220
  158SAPE  H10X17712   6.388   1.727   9.152 -0.0463 -0.5314 -0.7210
  158SAPE  H10Y17713   6.358   1.580   9.070  0.6261  1.1420 -2.1725
  158SAPE  C31117714   6.544   1.672   9.011  0.0883 -0.1930 -0.5599
  158SAPE  H11X17715   6.628   1.729   9.058 -0.5268 -0.4830  0.9156
  158SAPE  H11Y17716   6.494   1.744   8.943  1.3419  1.5516  0.3204
  158SAPE  C31217717   6.599   1.544   8.944  0.2936  0.1925  0.3709
  158SAPE  H12X17718   6.520   1.488   8.889 -0.8637 -0.1512  2.3087
  158SAPE  H12Y17719   6.631   1.471   9.022  2.2341  0.9486  0.3069
  158SAPE  C31317720   6.710   1.588   8.851 -0.2541  0.5380  0.2302
  158SAPE  H13X17721   6.798   1.606   8.916  0.0334 -2.1146  0.6201
  158SAPE  H13Y17722   6.680   1.682   8.801  0.4371  0.7952  0.2897
  158SAPE  C31417723   6.749   1.497   8.735 -0.2485 -0.6797  0.0092
  158SAPE  H14X17724   6.666   1.456   8.674 -0.6340 -1.6708  1.1813
  158SAPE  H14Y17725   6.783   1.404   8.785 -1.8225 -0.3551  1.7622
  158SAPE  C31517726   6.858   1.560   8.651  0.2723 -0.0569 -0.4552
  158SAPE  H15X17727   6.892   1.481   8.581 -0.0909 -1.4893  0.9771
  158SAPE  H15Y17728   6.946   1.590   8.712 -0.5859 -0.7702  1.1768
  158SAPE  C31617729   6.823   1.686   8.571  0.0577 -0.5144  0.3148
  158SAPE  H16X17730   6.910   1.704   8.505 -0.9715 -0.5849 -1.0669
  158SAPE  H16Y17731   6.808   1.766   8.647 -2.2170  1.1754 -1.8250
  158SAPE  C31717732   6.695   1.661   8.482 -0.3789 -0.7342  0.1026
  158SAPE  H17X17733   6.672   1.763   8.443  1.7334 -0.4761 -0.5371
  158SAPE  H17Y17734   6.604   1.637   8.540 -2.4104  2.7364 -1.5006
  158SAPE  C31817735   6.722   1.567   8.369  0.6511 -0.7109 -0.0268
  158SAPE  H18X17736   6.661   1.598   8.281  1.7054  0.3242 -0.3990
  158SAPE  H18Y17737   6.689   1.465   8.401  2.4710 -1.8703 -1.7445
  158SAPE  H18Z17738   6.832   1.565   8.359  0.6033  0.5316 -0.9280
  159SAPE     N17739   5.099   4.637   6.561 -0.1567  0.1675  0.4251
  159SAPE   HN117740   5.140   4.718   6.612  1.4535 -0.2719 -0.1534
  159SAPE   HN217741   5.070   4.575   6.639  0.8581 -1.1995 -0.2663
  159SAPE   HN317742   5.172   4.584   6.510 -2.0640 -0.3289 -1.8600
  159SAPE   C1217743   4.988   4.661   6.460  0.2014 -0.3133 -0.2678
  159SAPE  H12A17744   4.952   4.564   6.420 -0.0394 -1.0947  1.7860
  159SAPE  H12B17745   5.035   4.724   6.382  0.8321 -1.2783 -0.6717
  159SAPE   C1117746   4.875   4.733   6.536 -1.0973 -0.3922  0.0061
  159SAPE  H11A17747   4.858   4.671   6.627  1.5475 -0.9719  0.1347
  159SAPE  H11B17748   4.793   4.730   6.461 -0.7712  0.7096 -0.4086
  159SAPE     P17749   4.817   4.964   6.651 -0.2383 -0.2503  0.6584
  159SAPE   O1317750   4.891   5.086   6.674  0.3832  0.0813  0.2950
  159SAPE   O1417751   4.685   4.972   6.583 -0.0002  0.3621 -0.0946
  159SAPE   O1217752   4.914   4.862   6.574 -0.3719  0.3709  0.3430
  159SAPE   O1117753   4.792   4.901   6.792  0.5751 -0.0304 -0.1195
  159SAPE    C117754   4.902   4.827   6.843  0.4733 -0.1030 -0.0171
  159SAPE    HA17755   4.921   4.728   6.796  2.5315  1.3160 -2.2885
  159SAPE    HB17756   4.993   4.890   6.849 -0.5845  1.5435 -1.0023
  159SAPE    C217757   4.871   4.800   6.991 -0.2087 -1.1459  0.1036
  159SAPE    HS17758   4.778   4.739   6.992 -0.0716 -1.3526  1.1147
  159SAPE   O2117759   4.852   4.929   7.056 -0.4481 -0.3692  0.0153
  159SAPE   C2117760   4.777   4.923   7.161 -0.3793 -0.1630  0.0681
  159SAPE   O2217761   4.719   4.827   7.204  0.0354  0.3117 -0.1736
  159SAPE   C2217762   4.756   5.060   7.223  0.3035 -0.4810 -0.5499
  159SAPE   H2R17763   4.851   5.115   7.239 -0.0934 -0.0961  0.5019
  159SAPE   H2S17764   4.711   5.124   7.145  2.6355 -0.1346 -1.6546
  159SAPE    C317765   4.981   4.710   7.062 -0.0736 -0.4015 -0.7392
  159SAPE    HX17766   5.055   4.790   7.079 -0.5069 -0.2429  0.4121
  159SAPE    HY17767   5.019   4.633   6.991  0.5390 -0.5174 -0.2863
  159SAPE   O3117768   4.921   4.646   7.175  0.0967 -0.4005 -0.7238
  159SAPE   C3117769   5.003   4.639   7.286  0.1399  0.1125 -1.0695
  159SAPE   O3217770   5.113   4.688   7.288  0.5739 -0.4266 -0.2949
  159SAPE   C3217771   4.917   4.588   7.401  0.5738 -0.2033  0.2076
  159SAPE   H2X17772   4.937   4.479   7.391  0.4040 -0.2770  0.7004
  159SAPE   H2Y17773   4.809   4.605   7.381 -0.0389 -2.4562  1.4512
  159SAPE   C2317774   4.664   5.061   7.353 -0.0951  0.0545 -0.3599
  159SAPE   H3R17775   4.585   4.986   7.335 -0.4102 -0.4901  2.9420
  159SAPE   H3S17776   4.613   5.159   7.347 -1.9012 -0.7464  1.5566
  159SAPE   C2417777   4.738   5.025   7.481  0.6244 -0.0182 -0.2322
  159SAPE   H4R17778   4.828   4.963   7.460 -0.4568 -0.3244 -4.2540
  159SAPE   H4S17779   4.673   4.967   7.550  1.0885 -1.7152 -1.2053
  159SAPE   C2517780   4.772   5.150   7.554  0.5667  0.5174  0.2645
  159SAPE   H5R17781   4.861   5.204   7.517  0.0231  1.0242 -0.3105
  159SAPE   C2617782   4.719   5.200   7.669 -0.4031  0.5828 -0.1757
  159SAPE   H6R17783   4.769   5.291   7.705  2.2022 -0.9316  0.1274
  159SAPE   C2717784   4.618   5.120   7.754 -0.1930  0.7690 -0.5624
  159SAPE   H7R17785   4.558   5.047   7.697 -0.7153 -1.8092  3.1607
  159SAPE   H7S17786   4.543   5.190   7.798  0.8817  0.7090  1.4329
  159SAPE   C2817787   4.694   5.034   7.857  0.3446  0.0421 -0.2379
  159SAPE   H8R17788   4.731   4.932   7.836  0.2314  0.0502 -0.4713
  159SAPE   C2917789   4.722   5.085   7.983  0.5747  0.2577 -0.3710
  159SAPE   H9R17790   4.771   5.017   8.054 -0.6362  0.4679  0.6936
  159SAPE  C21017791   4.687   5.223   8.040 -0.3927 -0.2005 -0.0719
  159SAPE  H10R17792   4.600   5.226   8.110 -0.0198 -0.0019  0.3844
  159SAPE  H10S17793   4.656   5.295   7.961 -0.5514 -0.3772 -0.1703
  159SAPE  C21117794   4.805   5.285   8.108  0.4956 -0.7548  0.4520
  159SAPE  H11R17795   4.852   5.370   8.056  0.3343  0.0255  1.5793
  159SAPE  C21217796   4.840   5.256   8.234  0.0316 -0.0659 -0.3688
  159SAPE  H12R17797   4.927   5.303   8.281 -0.9974 -1.3771  3.0491
  159SAPE  C21317798   4.763   5.158   8.333  0.1143  0.0741 -0.1296
  159SAPE  H13R17799   4.829   5.071   8.353  1.7391  1.3867  0.4522
  159SAPE  H13S17800   4.667   5.117   8.296  0.2167  0.0477 -0.3684
  159SAPE  C21417801   4.731   5.214   8.470  0.3516 -0.1702 -0.0120
  159SAPE  H14R17802   4.739   5.324   8.475 -0.3735 -0.0495 -1.2740
  159SAPE  C21517803   4.705   5.137   8.577 -0.4052 -0.5578  0.3430
  159SAPE  H15R17804   4.677   5.179   8.675  3.2520  0.9166  0.8206
  159SAPE  C21617805   4.703   4.989   8.578 -0.3868  0.1096  0.1629
  159SAPE  H16R17806   4.690   4.955   8.473  1.8135 -0.3884  0.0343
  159SAPE  H16S17807   4.622   4.946   8.641  0.8559 -0.4107  1.4330
  159SAPE  C21717808   4.835   4.927   8.637  0.3419 -0.5260 -0.8882
  159SAPE  H17R17809   4.859   4.950   8.743  0.9545 -1.8521 -0.7208
  159SAPE  H17S17810   4.915   4.979   8.581  0.4179  0.1185 -0.1875
  159SAPE  C21817811   4.834   4.773   8.615  0.4084  0.5349  0.4143
  159SAPE  H18R17812   4.837   4.749   8.507  0.7539  0.8845  0.3451
  159SAPE  H18S17813   4.751   4.714   8.659  0.8086 -1.3068 -1.2773
  159SAPE  C21917814   4.954   4.714   8.698 -0.1371 -0.3513  0.6297
  159SAPE  H19R17815   4.966   4.773   8.792 -3.0605  0.9848  0.2349
  159SAPE  H19S17816   5.046   4.720   8.638 -0.1726  0.3170  0.6367
  159SAPE  C22017817   4.919   4.569   8.736 -0.2041  0.7681  0.1219
  159SAPE  H20R17818   4.831   4.568   8.803 -1.5272 -0.0190 -1.6044
  159SAPE  H20S17819   5.000   4.537   8.805  0.6689 -0.8972 -1.6145
  159SAPE  H20T17820   4.909   4.489   8.660 -1.2464 -0.5422  1.6076
  159SAPE   C3317821   4.975   4.656   7.535  0.2125  0.4703 -0.2196
  159SAPE   H3X17822   4.948   4.764   7.539  1.1377  0.7105 -0.4045
  159SAPE   H3Y17823   5.084   4.640   7.549 -0.1674 -1.2954  0.8902
  159SAPE   C3417824   4.910   4.604   7.669  0.0989 -0.1181  0.3877
  159SAPE   H4X17825   4.932   4.497   7.690 -0.3068 -0.0879  0.9861
  159SAPE   H4Y17826   4.800   4.610   7.655  0.3263  1.2087 -1.0675
  159SAPE   C3517827   4.957   4.678   7.795  0.0883  0.1479 -0.6416
  159SAPE   H5X17828   4.918   4.781   7.799  0.4880  0.2438  1.1655
  159SAPE   H5Y17829   5.067   4.679   7.811  0.0795 -0.9368 -0.4648
  159SAPE   C3617830   4.899   4.613   7.919  0.4740  0.5720 -0.6135
  159SAPE   H6X17831   4.954   4.652   8.008 -1.2507 -2.0227  1.7050
  159SAPE   H6Y17832   4.906   4.502   7.910 -0.5353  0.4712 -0.1941
  159SAPE   C3717833   4.751   4.654   7.944  0.1895 -0.0839 -0.2583
  159SAPE   H7X17834   4.689   4.623   7.856 -1.0265 -0.5682  0.7505
  159SAPE   H7Y17835   4.750   4.764   7.957  0.5568 -0.2771  1.4828
  159SAPE   C3817836   4.681   4.579   8.058  0.5453  0.3914  0.1166
  159SAPE   H8X17837   4.681   4.469   8.043  0.6199  0.2742  0.9527
  159SAPE   H8Y17838   4.576   4.613   8.066  0.0567 -0.5482 -2.0551
  159SAPE   C3917839   4.744   4.613   8.192  0.4080  0.3395  0.5463
  159SAPE   H9X17840   4.771   4.717   8.219 -0.4910  0.8257 -0.3940
  159SAPE   H9Y17841   4.841   4.559   8.195 -0.7173 -1.7141  0.9395
  159SAPE  C31017842   4.664   4.550   8.315  0.1429 -0.7011 -0.5861
  159SAPE  H10X17843   4.733   4.562   8.402 -2.5050 -0.8169  1.5812
  159SAPE  H10Y17844   4.650   4.440   8.309  0.6969 -0.9329  1.7704
  159SAPE  C31117845   4.531   4.628   8.365  0.3255  0.3168 -0.4139
  159SAPE  H11X17846   4.466   4.619   8.275 -0.8026  0.3062  0.3861
  159SAPE  H11Y17847   4.553   4.736   8.378 -1.2432  0.6789 -0.7053
  159SAPE  C31217848   4.461   4.573   8.488  0.5892 -0.5786 -0.0319
  159SAPE  H12X17849   4.524   4.590   8.578  0.2503  1.5433 -0.1662
  159SAPE  H12Y17850   4.441   4.467   8.460  0.3277  0.1439 -2.7061
  159SAPE  C31317851   4.328   4.640   8.518 -0.2519  0.2806  0.0557
  159SAPE  H13X17852   4.258   4.578   8.457  0.1502  1.9729 -2.2079
  159SAPE  H13Y17853   4.318   4.743   8.477  0.8174  0.1273 -0.6228
  159SAPE  C31417854   4.295   4.648   8.668  0.6705 -0.9890 -0.8300
  159SAPE  H14X17855   4.359   4.729   8.711 -1.4701  0.3705 -0.0989
  159SAPE  H14Y17856   4.330   4.552   8.712  0.0496 -0.6977  0.3259
  159SAPE  C31517857   4.144   4.688   8.684  0.8040  0.4783 -0.4992
  159SAPE  H15X17858   4.085   4.597   8.659  2.9879 -0.6538 -1.6704
  159SAPE  H15Y17859   4.121   4.771   8.614  3.4361  1.1025 -0.6676
  159SAPE  C31617860   4.120   4.731   8.839  0.7347  0.4354  0.2584
  159SAPE  H16X17861   4.155   4.836   8.847  0.6810  0.6199 -1.7119
  159SAPE  H16Y17862   4.181   4.662   8.900 -0.7101 -2.0277 -1.0165
  159SAPE  C31717863   3.972   4.704   8.884 -0.4248  0.8172 -0.0991
  159SAPE  H17X17864   3.957   4.595   8.896  0.2792  0.8181  0.9042
  159SAPE  H17Y17865   3.904   4.745   8.806  0.0144 -0.1368 -0.9967
  159SAPE  C31817866   3.941   4.783   9.011 -0.1615 -0.0419 -0.4791
  159SAPE  H18X17867   3.860   4.739   9.073 -1.3643  2.3900 -0.2815
  159SAPE  H18Y17868   3.898   4.881   8.981  0.3501  0.8414  1.6092
  159SAPE  H18Z17869   4.024   4.813   9.078  1.2867 -0.0575 -2.2145
  160SAPE     N17870   3.615   4.743   6.793 -0.4946  0.1410 -0.7010
  160SAPE   HN117871   3.695   4.738   6.727  0.2008  0.1690  0.1407
  160SAPE   HN217872   3.654   4.788   6.877 -1.1437 -0.3294 -0.1386
  160SAPE   HN317873   3.589   4.642   6.799 -0.8831  0.1822 -1.5981
  160SAPE   C1217874   3.503   4.819   6.735 -0.5702 -0.3589  0.5800
  160SAPE  H12A17875   3.488   4.903   6.807 -0.8780  1.1430 -1.2170
  160SAPE  H12B17876   3.409   4.761   6.726 -1.2161  0.9070 -1.1062
  160SAPE   C1117877   3.538   4.888   6.600  0.3687 -0.3411 -0.1431
  160SAPE  H11A17878   3.458   4.960   6.573  1.7902  0.7521 -1.5898
  160SAPE  H11B17879   3.538   4.807   6.523 -2.9104  0.0741 -0.6272
  160SAPE     P17880   3.698   5.085   6.525  0.5150  0.0164 -0.0925
  160SAPE   O1317881   3.837   5.117   6.557  0.2136  0.0824  0.0185
  160SAPE   O1417882   3.650   5.085   6.388 -0.0578 -0.2523 -0.6178
  160SAPE   O1217883   3.664   4.955   6.605  0.2751 -0.1679 -0.1490
  160SAPE   O1117884   3.603   5.190   6.595 -0.4205 -0.0619 -0.2669
  160SAPE    C117885   3.599   5.213   6.737 -0.4798 -0.9892  0.0708
  160SAPE    HA17886   3.506   5.164   6.773 -1.0064  2.3199  3.5677
  160SAPE    HB17887   3.688   5.166   6.784 -0.5005  0.1994  1.3438
  160SAPE    C217888   3.597   5.364   6.780 -1.1701  0.4655 -0.2153
  160SAPE    HS17889   3.611   5.371   6.890  1.1948  0.1439 -0.4815
  160SAPE   O2117890   3.477   5.433   6.740 -0.0985 -0.2116  0.1026
  160SAPE   C2117891   3.369   5.404   6.817  0.4132  0.1537  0.7624
  160SAPE   O2217892   3.374   5.323   6.908  0.2663 -0.2309 -0.1028
  160SAPE   C2217893   3.246   5.483   6.767 -0.3621  0.6773  0.7446
  160SAPE   H2R17894   3.279   5.536   6.675  0.7646 -1.2196  0.0280
  160SAPE   H2S17895   3.171   5.406   6.738 -0.6559  1.0288  0.5672
  160SAPE    C317896   3.722   5.432   6.719 -0.6765  0.2378 -0.3985
  160SAPE    HX17897   3.721   5.541   6.745  0.7925 -0.4369  2.7526
  160SAPE    HY17898   3.723   5.419   6.609  2.9455 -0.6155 -0.3185
  160SAPE   O3117899   3.843   5.370   6.774 -0.7364 -0.6423  0.3646
  160SAPE   C3117900   3.956   5.400   6.707 -0.1848  0.0208 -0.7911
  160SAPE   O3217901   3.966   5.475   6.611 -0.2572 -0.2084 -0.0698
  160SAPE   C3217902   4.074   5.332   6.776  0.0761  0.3718 -0.2726
  160SAPE   H2X17903   4.165   5.324   6.711  0.8319 -2.8615  1.0816
  160SAPE   H2Y17904   4.046   5.231   6.812  2.2318 -0.1739 -0.0234
  160SAPE   C2317905   3.191   5.591   6.866  0.0367 -0.3057  0.4805
  160SAPE   H3R17906   3.112   5.652   6.817  0.6702 -0.6543 -1.0030
  160SAPE   H3S17907   3.278   5.659   6.881  1.8846 -2.4580 -0.2772
  160SAPE   C2417908   3.132   5.542   7.004 -0.5129  0.9451 -0.3559
  160SAPE   H4R17909   3.203   5.480   7.064 -0.6732  0.9471 -0.1679
  160SAPE   H4S17910   3.043   5.477   6.990 -0.4673  0.4496  1.5466
  160SAPE   C2517911   3.091   5.659   7.088 -0.0753 -0.4282  0.0697
  160SAPE   H5R17912   3.005   5.714   7.047 -2.1653 -3.0033  0.8639
  160SAPE   C2617913   3.149   5.704   7.209  0.3044  0.8272 -0.4669
  160SAPE   H6R17914   3.109   5.797   7.252  0.0999  0.7482 -0.4851
  160SAPE   C2717915   3.260   5.647   7.293 -0.5150 -0.5392  0.1104
  160SAPE   H7R17916   3.334   5.728   7.308 -0.3124 -1.0228  1.8807
  160SAPE   H7S17917   3.310   5.564   7.238  0.2010 -0.2272  0.2818
  160SAPE   C2817918   3.202   5.610   7.432  0.2298 -0.0181 -0.9171
  160SAPE   H8R17919   3.092   5.612   7.433  0.2363  0.8519 -1.6070
  160SAPE   C2917920   3.269   5.586   7.543  0.3332  0.8210 -0.1742
  160SAPE   H9R17921   3.215   5.553   7.633 -0.9253  0.1562 -1.1549
  160SAPE  C21017922   3.419   5.580   7.543  0.4938 -0.5537 -0.0149
  160SAPE  H10R17923   3.458   5.683   7.528  0.1960 -0.2445  1.2607
  160SAPE  H10S17924   3.466   5.530   7.456  0.1751 -2.2362  0.7588
  160SAPE  C21117925   3.468   5.516   7.668  0.0990 -0.5291  0.7878
  160SAPE  H11R17926   3.477   5.407   7.655  0.7449 -0.4233  0.3099
  160SAPE  C21217927   3.489   5.584   7.785  0.2064 -0.0702  0.1844
  160SAPE  H12R17928   3.516   5.534   7.878 -1.1555 -0.0787  0.5864
  160SAPE  C21317929   3.472   5.732   7.806 -0.3701 -0.1251 -0.6926
  160SAPE  H13R17930   3.365   5.744   7.833 -0.6926  1.3691 -2.5094
  160SAPE  H13S17931   3.472   5.784   7.708 -0.9806 -1.3714 -1.3683
  160SAPE  C21417932   3.569   5.801   7.905  0.4520  0.1612 -0.4282
  160SAPE  H14R17933   3.666   5.824   7.858  0.0818  1.0731 -0.7559
  160SAPE  C21517934   3.534   5.847   8.028  0.4266  0.1983  0.2881
  160SAPE  H15R17935   3.615   5.894   8.087  0.6522  1.8948 -1.3474
  160SAPE  C21617936   3.399   5.844   8.094 -0.4586  0.0445 -0.4291
  160SAPE  H16R17937   3.315   5.823   8.025 -0.1108  0.1385 -0.8870
  160SAPE  H16S17938   3.381   5.939   8.149  0.1571 -0.3196  0.4249
  160SAPE  C21717939   3.390   5.729   8.189 -0.0920 -0.2970  0.5467
  160SAPE  H17R17940   3.296   5.758   8.241  0.8917  0.4364  1.9372
  160SAPE  H17S17941   3.465   5.741   8.270 -0.2301 -0.4953  0.7046
  160SAPE  C21817942   3.412   5.585   8.133  0.8983  0.1605  0.5428
  160SAPE  H18R17943   3.517   5.580   8.097  0.3911  0.0465 -0.9448
  160SAPE  H18S17944   3.341   5.573   8.049 -0.7833 -0.8584  2.0830
  160SAPE  C21917945   3.369   5.478   8.241 -0.2764 -0.7586 -0.1589
  160SAPE  H19R17946   3.368   5.381   8.187  1.3056 -0.5165 -0.6788
  160SAPE  H19S17947   3.266   5.502   8.275  0.2673  1.5044 -0.0318
  160SAPE  C22017948   3.461   5.469   8.369 -1.1682  0.3734  0.4793
  160SAPE  H20R17949   3.466   5.562   8.430 -1.3574  0.9118 -0.3205
  160SAPE  H20S17950   3.564   5.444   8.337 -0.6233  0.4899  2.1239
  160SAPE  H20T17951   3.420   5.398   8.443  0.6545 -0.7834  0.4134
  160SAPE   C3317952   4.132   5.415   6.888 -0.1155 -1.2460 -1.2087
  160SAPE   H3X17953   4.155   5.520   6.861 -2.4664 -0.1886  0.6924
  160SAPE   H3Y17954   4.227   5.367   6.918  0.9393  0.7337 -1.2876
  160SAPE   C3417955   4.035   5.425   7.002  0.3236 -0.1289 -0.5170
  160SAPE   H4X17956   3.992   5.327   7.033  0.0695  0.9667  2.8471
  160SAPE   H4Y17957   3.945   5.476   6.961 -0.7484 -0.9289  0.8150
  160SAPE   C3517958   4.094   5.495   7.124  0.4881 -0.2437  0.1002
  160SAPE   H5X17959   4.008   5.519   7.190  1.2382  0.4460  0.8381
  160SAPE   H5Y17960   4.145   5.585   7.084 -1.5631  0.5492 -0.7828
  160SAPE   C3617961   4.196   5.417   7.204  0.0727  0.2642  0.2250
  160SAPE   H6X17962   4.279   5.379   7.141 -0.8451  0.7213 -1.3062
  160SAPE   H6Y17963   4.150   5.323   7.239  1.0565  0.0208  0.8802
  160SAPE   C3717964   4.242   5.516   7.312  0.6587  0.1948 -0.2005
  160SAPE   H7X17965   4.156   5.537   7.379 -0.4712 -1.9647 -0.9225
  160SAPE   H7Y17966   4.271   5.617   7.277  0.2257  0.6651  0.7747
  160SAPE   C3817967   4.353   5.451   7.398 -0.3908  0.0589  0.5773
  160SAPE   H8X17968   4.445   5.470   7.339  0.5915 -3.2068  0.9596
  160SAPE   H8Y17969   4.329   5.344   7.382  1.4149  0.0483 -2.4246
  160SAPE   C3917970   4.358   5.510   7.542  0.3466 -0.5210 -0.3580
  160SAPE   H9X17971   4.257   5.529   7.585 -0.1532 -3.0440 -0.3178
  160SAPE   H9Y17972   4.400   5.613   7.544  0.7604 -0.6981  1.4670
  160SAPE  C31017973   4.443   5.427   7.646  0.6732  0.1542  0.0734
  160SAPE  H10X17974   4.547   5.452   7.616  0.8445  0.4104  0.8714
  160SAPE  H10Y17975   4.414   5.320   7.638 -1.9774  0.8445  0.0635
  160SAPE  C31117976   4.414   5.468   7.791 -0.1337  0.6813 -0.3536
  160SAPE  H11X17977   4.473   5.399   7.855  1.0790  1.1150 -0.9660
  160SAPE  H11Y17978   4.306   5.456   7.811 -0.0828  0.2880 -0.3145
  160SAPE  C31217979   4.463   5.612   7.824 -0.2573 -0.4151  0.3307
  160SAPE  H12X17980   4.430   5.683   7.746  1.2980 -0.8385 -0.7303
  160SAPE  H12Y17981   4.573   5.602   7.817 -0.4962 -1.4309 -2.4233
  160SAPE  C31317982   4.419   5.665   7.963  0.0063  0.4779  0.1561
  160SAPE  H13X17983   4.314   5.700   7.967 -0.7787 -1.8480  0.5478
  160SAPE  H13Y17984   4.467   5.764   7.982 -0.3875  0.7414 -0.2120
  160SAPE  C31417985   4.444   5.571   8.083  0.4986 -0.2012 -1.3017
  160SAPE  H14X17986   4.553   5.551   8.083  0.8802  1.7592 -0.3344
  160SAPE  H14Y17987   4.393   5.475   8.058  0.9185 -0.4410 -1.2391
  160SAPE  C31517988   4.398   5.622   8.222  0.5084  0.3744 -0.3210
  160SAPE  H15X17989   4.288   5.607   8.223  0.2812  1.8747 -0.5889
  160SAPE  H15Y17990   4.401   5.733   8.224 -2.0536  0.4550  0.1513
  160SAPE  C31617991   4.475   5.566   8.343 -0.6345 -0.0089  0.4390
  160SAPE  H16X17992   4.566   5.629   8.354  0.0116 -0.6826 -0.8571
  160SAPE  H16Y17993   4.496   5.463   8.308 -1.7934  0.1708 -0.8269
  160SAPE  C31717994   4.376   5.593   8.463 -0.0133 -0.0284  0.3537
  160SAPE  H17X17995   4.282   5.540   8.436  0.7338 -1.1444 -0.0712
  160SAPE  H17Y17996   4.356   5.702   8.471  0.2480 -0.0363  1.1169
  160SAPE  C31817997   4.441   5.537   8.587 -0.3589 -0.4701  0.3805
  160SAPE  H18X17998   4.389   5.583   8.674 -1.6002  1.2662 -1.2407
  160SAPE  H18Y17999   4.546   5.571   8.597 -1.0544  1.5695  0.9317
  160SAPE  H18Z18000   4.436   5.426   8.593 -2.5138 -0.3292  1.9979
  161SAPE     N18001   5.247   4.435   6.135  0.0983  0.0609  0.0702
  161SAPE   HN118002   5.198   4.345   6.150  1.1642 -0.0995  2.9599
  161SAPE   HN218003   5.272   4.479   6.226 -2.4972 -1.2129  1.4557
  161SAPE   HN318004   5.170   4.487   6.087  1.1186  0.8182 -0.7532
  161SAPE   C1218005   5.368   4.411   6.041  0.6641  0.2207 -0.2040
  161SAPE  H12A18006   5.404   4.504   5.992 -2.0710 -0.1430 -3.0860
  161SAPE  H12B18007   5.337   4.344   5.958 -1.0333 -0.9989  1.3620
  161SAPE   C1118008   5.475   4.356   6.134 -0.2398  0.0131  0.8360
  161SAPE  H11A18009   5.488   4.405   6.233 -0.0471  1.7438 -0.0206
  161SAPE  H11B18010   5.569   4.390   6.085 -0.3348 -2.0211 -0.7986
  161SAPE     P18011   5.424   4.142   6.271  0.4450 -0.2309 -0.3671
  161SAPE   O1318012   5.297   4.206   6.306  0.0690  0.0795 -0.1249
  161SAPE   O1418013   5.417   3.997   6.238  0.2410 -0.2925  0.3266
  161SAPE   O1218014   5.466   4.214   6.138 -0.2965  0.0724 -0.8772
  161SAPE   O1118015   5.531   4.168   6.377 -0.3545 -0.1067 -0.2202
  161SAPE    C118016   5.674   4.142   6.373 -0.0752  0.4702  0.7482
  161SAPE    HA18017   5.706   4.148   6.266 -1.7962  1.3986  0.2610
  161SAPE    HB18018   5.732   4.215   6.433  1.4465  0.4380 -0.6262
  161SAPE    C218019   5.723   4.011   6.432 -0.2591  0.2573  0.1643
  161SAPE    HS18020   5.685   3.922   6.377 -0.5268  1.3245 -1.4255
  161SAPE   O2118021   5.683   4.016   6.570  0.6130  0.1193  0.2958
  161SAPE   C2118022   5.571   3.949   6.596  0.3928  0.9419 -0.1337
  161SAPE   O2218023   5.524   3.875   6.512 -0.2587  0.0069  0.0638
  161SAPE   C2218024   5.526   3.978   6.738  0.4487 -0.4251  0.1829
  161SAPE   H2R18025   5.619   3.995   6.797  0.5519  1.8756 -0.5880
  161SAPE   H2S18026   5.466   4.072   6.739  2.0438  0.6206 -0.5703
  161SAPE    C318027   5.879   3.991   6.417  0.1287 -0.4082 -0.0496
  161SAPE    HX18028   5.926   4.091   6.423  1.0250 -0.7914 -0.4772
  161SAPE    HY18029   5.896   3.953   6.313 -1.3925  0.6133 -0.6889
  161SAPE   O3118030   5.943   3.910   6.515 -0.0130  0.8022 -0.1280
  161SAPE   C3118031   5.930   3.775   6.503  0.4509  0.4610 -0.5181
  161SAPE   O3218032   5.854   3.723   6.424  0.1273 -0.2966  0.4830
  161SAPE   C3218033   6.030   3.700   6.595 -0.1642 -0.4026 -0.2889
  161SAPE   H2X18034   6.120   3.764   6.609 -0.1494 -0.7586  1.3041
  161SAPE   H2Y18035   6.043   3.600   6.548  0.1893 -0.6333  0.2914
  161SAPE   C2318036   5.430   3.871   6.792  0.3514  0.0510 -0.7589
  161SAPE   H3R18037   5.484   3.781   6.828 -0.3490  0.2488  0.7869
  161SAPE   H3S18038   5.348   3.852   6.719 -0.2152 -2.7601  0.5323
  161SAPE   C2418039   5.350   3.919   6.914  0.2382 -0.8771  0.5719
  161SAPE   H4R18040   5.291   4.004   6.874 -0.5624 -0.9823  1.4966
  161SAPE   H4S18041   5.426   3.954   6.987 -0.0047  0.0667  0.3788
  161SAPE   C2518042   5.251   3.821   6.972  0.5689  0.2827 -0.2538
  161SAPE   H5R18043   5.152   3.822   6.925  0.4275 -1.4085 -0.0238
  161SAPE   C2618044   5.267   3.755   7.091 -0.6366 -0.4787 -0.1547
  161SAPE   H6R18045   5.192   3.695   7.143 -0.5045  0.5934  1.2939
  161SAPE   C2718046   5.395   3.777   7.174 -0.2216 -0.4176  0.3792
  161SAPE   H7R18047   5.487   3.786   7.112  0.5777 -0.9129  1.4871
  161SAPE   H7S18048   5.422   3.684   7.227 -1.1661 -0.1626  1.3232
  161SAPE   C2818049   5.405   3.899   7.271  0.1809 -0.1769  0.0188
  161SAPE   H8R18050   5.452   3.986   7.222  0.9450 -0.6930 -0.1717
  161SAPE   C2918051   5.342   3.892   7.388  0.6958  0.0431  0.0133
  161SAPE   H9R18052   5.343   3.988   7.443 -3.2140 -0.0302  0.3488
  161SAPE  C21018053   5.273   3.769   7.452  0.3641 -0.2368  0.0495
  161SAPE  H10R18054   5.250   3.681   7.388  0.8610 -2.0324  2.2774
  161SAPE  H10S18055   5.177   3.807   7.491  0.6006  0.3030  0.1109
  161SAPE  C21118056   5.364   3.712   7.560  0.0834  0.2353 -0.3738
  161SAPE  H11R18057   5.465   3.688   7.524  0.2375  0.9204 -0.3980
  161SAPE  C21218058   5.330   3.694   7.690 -0.2539 -0.2012 -0.8589
  161SAPE  H12R18059   5.398   3.641   7.758 -2.0388  1.0788  2.0253
  161SAPE  C21318060   5.193   3.728   7.743  0.0554 -0.0756  0.8857
  161SAPE  H13R18061   5.173   3.671   7.837 -2.5162  0.1845  0.5195
  161SAPE  H13S18062   5.109   3.713   7.673  0.0167  1.4159  0.6087
  161SAPE  C21418063   5.199   3.870   7.790  0.4603  0.0337  0.2994
  161SAPE  H14R18064   5.173   3.926   7.699  2.3441 -0.5847 -0.6397
  161SAPE  C21518065   5.236   3.930   7.896 -0.2856  0.6409  0.1483
  161SAPE  H15R18066   5.248   4.040   7.892 -2.3983  0.8644 -0.3787
  161SAPE  C21618067   5.300   3.870   8.020  0.4587  0.2093  0.5324
  161SAPE  H16R18068   5.394   3.928   8.035 -0.7379  2.0784  0.9711
  161SAPE  H16S18069   5.342   3.768   8.003 -1.2760 -0.3262 -0.6813
  161SAPE  C21718070   5.206   3.875   8.146 -0.0826 -0.3684 -0.3128
  161SAPE  H17R18071   5.133   3.792   8.141 -1.9633  1.1988  0.5846
  161SAPE  H17S18072   5.151   3.972   8.146 -1.4281 -1.1146 -1.4405
  161SAPE  C21818073   5.285   3.861   8.281  0.2786  0.8611  0.3376
  161SAPE  H18R18074   5.374   3.928   8.280  1.1572 -0.2674  1.0591
  161SAPE  H18S18075   5.323   3.758   8.294 -1.4174 -0.0188 -1.4201
  161SAPE  C21918076   5.190   3.878   8.403  0.3031  0.1315 -0.2794
  161SAPE  H19R18077   5.108   3.805   8.384  0.4728 -0.4379  1.0936
  161SAPE  H19S18078   5.146   3.979   8.388  2.4251  1.0592 -0.3337
  161SAPE  C22018079   5.249   3.874   8.537  0.4769 -0.1071 -0.4192
  161SAPE  H20R18080   5.164   3.857   8.606 -1.4047 -0.0867 -2.6563
  161SAPE  H20S18081   5.315   3.960   8.563  2.0273 -1.2677 -0.4100
  161SAPE  H20T18082   5.309   3.782   8.555  0.0279 -0.0390  1.4219
  161SAPE   C3318083   5.965   3.687   6.739 -0.3911  0.1906  0.4887
  161SAPE   H3X18084   6.041   3.638   6.803  0.5554 -2.3501 -2.4269
  161SAPE   H3Y18085   5.870   3.628   6.736 -0.6754  0.7371 -1.9445
  161SAPE   C3418086   5.947   3.819   6.811  0.8273  0.1256 -0.4719
  161SAPE   H4X18087   5.900   3.892   6.741  2.6087  0.4029 -1.4023
  161SAPE   H4Y18088   6.044   3.871   6.826  0.3701  0.5053  1.2375
  161SAPE   C3518089   5.867   3.825   6.939 -0.6753 -0.0099 -0.8672
  161SAPE   H5X18090   5.900   3.747   7.010  1.1977 -0.6440 -2.3966
  161SAPE   H5Y18091   5.759   3.801   6.924 -0.9611  0.4657  0.3489
  161SAPE   C3618092   5.863   3.963   7.007 -1.1305  0.3734  0.0780
  161SAPE   H6X18093   5.815   4.031   6.933  0.7428  2.3069  0.5991
  161SAPE   H6Y18094   5.967   3.997   7.024 -1.1751  0.8692 -0.6240
  161SAPE   C3718095   5.783   3.983   7.138  0.1116  0.8822  0.1193
  161SAPE   H7X18096   5.803   3.907   7.216  1.1950  0.2645 -0.7370
  161SAPE   H7Y18097   5.674   3.971   7.119  0.4047 -0.9191 -0.5331
  161SAPE   C3818098   5.795   4.121   7.197  0.2628  0.0916  0.2495
  161SAPE   H8X18099   5.759   4.199   7.126  0.3186 -1.3586 -1.4284
  161SAPE   H8Y18100   5.902   4.130   7.225  0.6379 -0.0542 -1.0957
  161SAPE   C3918101   5.705   4.132   7.319  0.3165  0.4860  0.0944
  161SAPE   H9X18102   5.605   4.104   7.281  0.0029  1.0904  0.4556
  161SAPE   H9Y18103   5.704   4.238   7.353  1.2606  0.1320  1.2826
  161SAPE  C31018104   5.751   4.056   7.444  0.0606 -0.3338 -0.5915
  161SAPE  H10X18105   5.858   4.079   7.459  0.0595 -0.5150 -0.3103
  161SAPE  H10Y18106   5.743   3.946   7.427 -0.1205 -0.3289 -0.5374
  161SAPE  C31118107   5.671   4.094   7.566 -0.3065  0.1189  0.4333
  161SAPE  H11X18108   5.563   4.093   7.541 -0.3137 -1.0019  0.5179
  161SAPE  H11Y18109   5.699   4.191   7.613  2.6973 -1.1576  1.3905
  161SAPE  C31218110   5.690   3.991   7.675  0.1383 -0.6441  0.7996
  161SAPE  H12X18111   5.795   3.988   7.712  0.6125  1.4936 -0.2810
  161SAPE  H12Y18112   5.653   3.891   7.644  0.0353 -0.3694  0.0264
  161SAPE  C31318113   5.599   4.024   7.797 -0.2317  0.0062  0.4604
  161SAPE  H13X18114   5.544   3.933   7.829  0.0028 -0.8858 -1.5912
  161SAPE  H13Y18115   5.514   4.085   7.760 -0.5053 -1.4134 -1.3242
  161SAPE  C31418116   5.675   4.107   7.904  0.1373 -0.4029 -0.4269
  161SAPE  H14X18117   5.680   4.210   7.864 -3.1949  0.3215  0.7867
  161SAPE  H14Y18118   5.778   4.066   7.914 -0.3891 -2.0289 -1.4249
  161SAPE  C31518119   5.629   4.111   8.049  0.1046  0.0749  0.0520
  161SAPE  H15X18120   5.671   4.018   8.092 -1.3227  0.5951  2.6643
  161SAPE  H15Y18121   5.520   4.093   8.064  0.5437  0.0310  3.7803
  161SAPE  C31618122   5.681   4.227   8.127  0.7692  0.0016 -0.0898
  161SAPE  H16X18123   5.632   4.315   8.079 -0.6371 -1.2556 -0.9897
  161SAPE  H16Y18124   5.792   4.238   8.121  0.9005  1.0481  3.2580
  161SAPE  C31718125   5.632   4.231   8.269  0.1643  0.9851  0.4604
  161SAPE  H17X18126   5.669   4.144   8.327 -2.2719  1.1447  2.3178
  161SAPE  H17Y18127   5.523   4.211   8.262  0.6063 -1.3315 -0.1881
  161SAPE  C31818128   5.664   4.369   8.345 -0.2581 -0.2758 -0.1014
  161SAPE  H18X18129   5.773   4.388   8.337 -0.5517  1.7367  0.3626
  161SAPE  H18Y18130   5.632   4.360   8.451 -1.2885 -0.1218 -0.3964
  161SAPE  H18Z18131   5.624   4.462   8.299 -0.8396  0.5802  2.0776
  162SAPE     N18132   5.380   0.335   5.640 -0.4887  0.1300 -0.0377
  162SAPE   HN118133   5.300   0.269   5.633  0.8475 -1.4950 -0.1782
  162SAPE   HN218134   5.362   0.409   5.711 -2.3546 -0.1410 -0.1907
  162SAPE   HN318135   5.386   0.380   5.546 -0.2275 -2.3323 -1.2436
  162SAPE   C1218136   5.501   0.254   5.669  0.3236 -0.1062 -0.5674
  162SAPE  H12A18137   5.598   0.305   5.649 -0.1479  1.3233  0.7290
  162SAPE  H12B18138   5.493   0.168   5.599 -2.8110  0.1553 -0.5662
  162SAPE   C1118139   5.487   0.183   5.802 -0.1223  0.2772 -0.0364
  162SAPE  H11A18140   5.517   0.243   5.890 -0.1040 -0.5824  0.5588
  162SAPE  H11B18141   5.563   0.101   5.807  1.2298  1.5011 -0.3362
  162SAPE     P18142   5.319   0.034   5.944  0.0886  0.4312 -0.2783
  162SAPE   O1318143   5.172   0.025   5.959 -0.1919  0.0014 -0.1352
  162SAPE   O1418144   5.385  -0.090   5.914 -0.2017  0.3339 -0.3041
  162SAPE   O1218145   5.350   0.138   5.826 -0.1780  0.1749 -0.1420
  162SAPE   O1118146   5.369   0.101   6.070 -0.0412 -0.1055 -0.2612
  162SAPE    C118147   5.325   0.233   6.106 -0.2493 -0.1183  0.0407
  162SAPE    HA18148   5.387   0.312   6.059 -1.6111  2.0477  1.7992
  162SAPE    HB18149   5.220   0.248   6.075  0.1068  1.0434 -0.6276
  162SAPE    C218150   5.316   0.249   6.256  0.0891  0.6593  0.9147
  162SAPE    HS18151   5.249   0.334   6.281  0.8498  2.4062 -2.6432
  162SAPE   O2118152   5.443   0.259   6.315 -0.2258 -0.2883 -0.4582
  162SAPE   C2118153   5.511   0.382   6.298  0.6781 -0.0487 -0.5538
  162SAPE   O2218154   5.479   0.465   6.221 -0.0857 -0.0873 -0.1594
  162SAPE   C2218155   5.604   0.407   6.421 -0.4494  0.0925  0.0971
  162SAPE   H2R18156   5.694   0.349   6.390 -0.2555 -0.2678  1.2753
  162SAPE   H2S18157   5.621   0.517   6.419  1.0152 -0.1155  0.0286
  162SAPE    C318158   5.247   0.115   6.305 -0.4068  0.2986  0.1584
  162SAPE    HX18159   5.324   0.036   6.297 -2.2898 -1.7124  1.4107
  162SAPE    HY18160   5.165   0.073   6.243  0.1855 -2.7358  1.3762
  162SAPE   O3118161   5.195   0.136   6.435  1.2491  0.3717  0.4125
  162SAPE   C3118162   5.254   0.068   6.534 -0.0129 -0.3388 -0.1527
  162SAPE   O3218163   5.341  -0.011   6.518 -0.4898 -0.5355  0.2353
  162SAPE   C3218164   5.199   0.121   6.662 -0.4280 -0.0864 -0.1642
  162SAPE   H2X18165   5.095   0.084   6.674 -0.6680 -0.5474 -3.2428
  162SAPE   H2Y18166   5.196   0.232   6.664  3.1420  0.1225 -1.6826
  162SAPE   C2318167   5.534   0.367   6.557  0.3135 -0.1334 -0.8855
  162SAPE   H3R18168   5.497   0.263   6.550  0.0462 -0.0114 -1.3024
  162SAPE   H3S18169   5.446   0.434   6.569 -0.7290 -1.2983 -1.8887
  162SAPE   C2418170   5.626   0.375   6.680 -0.0621 -0.0044  0.8683
  162SAPE   H4R18171   5.674   0.475   6.678  2.7099 -1.2953  0.8593
  162SAPE   H4S18172   5.713   0.307   6.669 -0.4301 -0.2553 -0.5366
  162SAPE   C2518173   5.559   0.351   6.816 -0.2167  0.0286 -0.2824
  162SAPE   H5R18174   5.472   0.285   6.825 -1.3368  1.0294 -3.0555
  162SAPE   C2618175   5.586   0.401   6.938 -0.7238 -0.1132  0.3021
  162SAPE   H6R18176   5.541   0.362   7.031 -0.7164  2.2753  1.3452
  162SAPE   C2718177   5.696   0.504   6.969  0.0661 -0.0822 -0.2609
  162SAPE   H7R18178   5.658   0.604   6.939 -0.4447  0.2893  1.5435
  162SAPE   H7S18179   5.781   0.492   6.899  0.0973  1.9577 -0.5994
  162SAPE   C2818180   5.738   0.496   7.110  0.4612  0.2183  0.4886
  162SAPE   H8R18181   5.772   0.400   7.152  0.3176 -0.3074 -0.5804
  162SAPE   C2918182   5.724   0.593   7.202 -0.4156  0.6167 -0.4008
  162SAPE   H9R18183   5.771   0.568   7.298  1.3960 -0.0705 -1.4514
  162SAPE  C21018184   5.665   0.725   7.190  0.2772  0.5640 -1.0037
  162SAPE  H10R18185   5.576   0.723   7.124 -1.0218 -0.5183  0.7384
  162SAPE  H10S18186   5.744   0.784   7.139  2.7832 -0.0571  1.9494
  162SAPE  C21118187   5.638   0.786   7.329  0.4077  0.3741 -0.2663
  162SAPE  H11R18188   5.683   0.734   7.415  0.6098  1.3418  0.2231
  162SAPE  C21218189   5.580   0.908   7.351 -0.2793  0.0454 -0.2759
  162SAPE  H12R18190   5.558   0.937   7.455  1.0165 -0.7847  0.2443
  162SAPE  C21318191   5.539   1.007   7.246  0.0761 -0.3465  0.3697
  162SAPE  H13R18192   5.558   0.963   7.146  1.9100 -1.3034  1.1204
  162SAPE  H13S18193   5.593   1.102   7.263 -0.7585 -0.1234  1.9057
  162SAPE  C21418194   5.395   1.033   7.245  0.5824 -0.5503  0.0889
  162SAPE  H14R18195   5.323   0.952   7.266 -0.2839 -0.2529 -1.5989
  162SAPE  C21518196   5.331   1.148   7.223 -0.1503 -0.2948  0.3334
  162SAPE  H15R18197   5.221   1.151   7.210 -0.5045 -2.8577  2.3004
  162SAPE  C21618198   5.402   1.280   7.199 -0.8456 -0.1548 -0.2464
  162SAPE  H16R18199   5.506   1.292   7.234 -1.2932 -1.4320  1.6285
  162SAPE  H16S18200   5.357   1.354   7.269  1.5480  1.1928 -0.1023
  162SAPE  C21718201   5.393   1.356   7.061  0.0151  0.2824 -0.6743
  162SAPE  H17R18202   5.436   1.459   7.058 -0.2983  0.4958  1.6139
  162SAPE  H17S18203   5.285   1.377   7.049  0.0653  1.3818  0.6522
  162SAPE  C21818204   5.432   1.281   6.930  0.5438  0.7672 -0.1361
  162SAPE  H18R18205   5.380   1.182   6.936  1.7602 -0.0078 -1.6940
  162SAPE  H18S18206   5.541   1.263   6.940  0.3647  0.3134  1.1022
  162SAPE  C21918207   5.394   1.339   6.795 -0.0273  0.2608 -0.1062
  162SAPE  H19R18208   5.430   1.442   6.776 -0.7696  0.2197 -1.7743
  162SAPE  H19S18209   5.285   1.352   6.777 -0.1887  1.3579  1.5488
  162SAPE  C22018210   5.460   1.258   6.685  0.2805  0.2057 -0.5277
  162SAPE  H20R18211   5.428   1.284   6.582 -0.6493  0.2080 -0.2490
  162SAPE  H20S18212   5.431   1.151   6.692  0.1345  0.0135 -3.4018
  162SAPE  H20T18213   5.571   1.251   6.681  0.3178  1.1326 -1.4195
  162SAPE   C3318214   5.282   0.061   6.771 -0.0525 -0.1113  0.7696
  162SAPE   H3X18215   5.389   0.052   6.740 -0.5056 -0.9378 -0.5835
  162SAPE   H3Y18216   5.257  -0.045   6.790 -2.1114  0.8960  4.2405
  162SAPE   C3418217   5.252   0.128   6.908 -0.3266  0.6707 -0.3798
  162SAPE   H4X18218   5.143   0.144   6.923 -0.4845 -1.2434  0.6895
  162SAPE   H4Y18219   5.290   0.230   6.927 -0.7988  1.0758 -1.6071
  162SAPE   C3518220   5.305   0.031   7.004 -0.3266 -0.1112  0.2461
  162SAPE   H5X18221   5.410   0.000   6.983 -0.3921 -0.1983  0.0426
  162SAPE   H5Y18222   5.243  -0.061   7.003  0.8325 -0.9106 -0.5084
  162SAPE   C3618223   5.297   0.084   7.149  0.5010 -0.0090  0.1042
  162SAPE   H6X18224   5.195   0.068   7.190  0.2651 -2.7735 -1.4198
  162SAPE   H6Y18225   5.303   0.195   7.147  0.1367  0.0096 -0.0506
  162SAPE   C3718226   5.398   0.027   7.262  0.1634 -0.7117  0.6187
  162SAPE   H7X18227   5.500   0.002   7.226  0.2830 -0.7648  0.9991
  162SAPE   H7Y18228   5.342  -0.062   7.297  2.1306 -0.8753  3.5437
  162SAPE   C3818229   5.427   0.129   7.386  0.2045 -0.2600  0.0592
  162SAPE   H8X18230   5.467   0.068   7.470  1.3420 -0.7985 -0.8563
  162SAPE   H8Y18231   5.334   0.165   7.435  0.7601  3.0640 -1.1679
  162SAPE   C3918232   5.521   0.243   7.332  0.3405 -0.0657 -0.8357
  162SAPE   H9X18233   5.467   0.308   7.259  0.0480 -0.8781 -1.3509
  162SAPE   H9Y18234   5.605   0.191   7.281 -2.0197 -3.8864 -1.0406
  162SAPE  C31018235   5.590   0.337   7.443 -0.1712  0.3055  0.4954
  162SAPE  H10X18236   5.646   0.416   7.388  0.9489 -1.6239 -1.2431
  162SAPE  H10Y18237   5.659   0.279   7.508  0.9380 -1.9608 -2.5765
  162SAPE  C31118238   5.494   0.415   7.535  0.4153  0.6621 -0.3455
  162SAPE  H11X18239   5.445   0.337   7.598  4.5121 -0.3607  1.7845
  162SAPE  H11Y18240   5.413   0.455   7.472 -1.2379 -0.7789  0.8230
  162SAPE  C31218241   5.565   0.532   7.609 -0.4064 -0.2837  0.2594
  162SAPE  H12X18242   5.615   0.606   7.543  0.5387 -1.0442  0.1071
  162SAPE  H12Y18243   5.646   0.501   7.678  0.7904  0.6647 -0.7017
  162SAPE  C31318244   5.457   0.608   7.690  0.2124  0.2430 -0.0631
  162SAPE  H13X18245   5.417   0.552   7.777 -0.0208  0.0059 -0.3241
  162SAPE  H13Y18246   5.366   0.632   7.631 -0.0799  0.2930  0.4004
  162SAPE  C31418247   5.505   0.739   7.760 -0.5609  0.6632 -0.3599
  162SAPE  H14X18248   5.520   0.815   7.680 -1.7666  1.7869  0.4473
  162SAPE  H14Y18249   5.602   0.706   7.801  0.4670  1.4961 -2.0742
  162SAPE  C31518250   5.419   0.804   7.870  0.0873 -0.4056  0.4240
  162SAPE  H15X18251   5.476   0.890   7.911  0.4360  0.3346 -1.5555
  162SAPE  H15Y18252   5.402   0.721   7.942 -0.2442 -0.1670  0.6217
  162SAPE  C31618253   5.279   0.842   7.819  0.1368 -0.1234 -0.0908
  162SAPE  H16X18254   5.223   0.878   7.908  1.8305  1.3537  0.4078
  162SAPE  H16Y18255   5.230   0.745   7.798 -0.1374  0.3601 -1.7825
  162SAPE  C31718256   5.273   0.947   7.710 -0.0708 -0.2778 -0.8811
  162SAPE  H17X18257   5.166   0.951   7.679  0.0090 -1.3612 -1.3145
  162SAPE  H17Y18258   5.324   0.902   7.622  1.7118  0.6214 -0.3200
  162SAPE  C31818259   5.328   1.085   7.727  0.4662 -0.3011 -0.3467
  162SAPE  H18X18260   5.436   1.076   7.753  0.2897  0.1343  0.5581
  162SAPE  H18Y18261   5.294   1.148   7.812 -2.6297  1.0766 -2.5366
  162SAPE  H18Z18262   5.309   1.136   7.631 -0.4284  2.1184  1.0839
  163SAPE     N18263   3.163   4.022   6.431 -0.1909 -0.0734 -0.1683
  163SAPE   HN118264   3.084   4.064   6.483 -0.4355 -0.3992 -0.2808
  163SAPE   HN218265   3.150   3.924   6.399 -4.2109 -0.4209  2.2526
  163SAPE   HN318266   3.253   4.032   6.484  0.4094 -0.3360 -1.1207
  163SAPE   C1218267   3.165   4.112   6.314  0.3078 -0.1804  0.1235
  163SAPE  H12A18268   3.059   4.114   6.280  0.4993  0.1002 -0.4575
  163SAPE  H12B18269   3.230   4.082   6.228 -0.1369  1.8717 -0.9533
  163SAPE   C1118270   3.193   4.255   6.361 -0.0450  0.4618  0.0710
  163SAPE  H11A18271   3.106   4.286   6.424  0.2304  1.5353 -0.0669
  163SAPE  H11B18272   3.193   4.320   6.271  0.5827  1.4426  0.7651
  163SAPE     P18273   3.347   4.373   6.540  0.1712  0.1742 -0.3332
  163SAPE   O1318274   3.494   4.395   6.550  0.3513  0.3668 -0.2606
  163SAPE   O1418275   3.267   4.492   6.524  0.0052 -0.5487 -0.8297
  163SAPE   O1218276   3.325   4.265   6.426 -0.3226  0.0778 -0.0413
  163SAPE   O1118277   3.302   4.295   6.671  0.1923  0.7060 -0.4786
  163SAPE    C118278   3.168   4.264   6.712 -0.1668  0.4825 -0.1358
  163SAPE    HA18279   3.087   4.293   6.642  1.5158  2.7013 -1.1989
  163SAPE    HB18280   3.159   4.154   6.729  0.5380  0.4577  0.1222
  163SAPE    C218281   3.150   4.335   6.853  0.4852  0.7539 -0.1015
  163SAPE    HS18282   3.132   4.444   6.835  0.5301  0.4475 -2.0820
  163SAPE   O2118283   3.257   4.297   6.939 -0.5254 -0.4644  0.1662
  163SAPE   C2118284   3.337   4.409   6.960  0.3442  0.0142  0.4141
  163SAPE   O2218285   3.320   4.516   6.904  0.6316  0.2659 -0.4471
  163SAPE   C2218286   3.443   4.381   7.060  0.3816 -0.0972  0.1164
  163SAPE   H2R18287   3.397   4.311   7.133 -0.2013 -0.7925 -0.8936
  163SAPE   H2S18288   3.527   4.318   7.022  0.9790  1.5567 -1.3704
  163SAPE    C318289   3.016   4.287   6.920  0.2984 -0.4443  0.0941
  163SAPE    HX18290   3.029   4.187   6.965  0.0734 -1.6166 -2.3696
  163SAPE    HY18291   2.938   4.280   6.841  1.2723 -2.2775 -0.7258
  163SAPE   O3118292   2.976   4.392   7.013 -0.1462  0.3475  0.1564
  163SAPE   C3118293   3.013   4.368   7.146 -0.5406  0.3042 -0.1070
  163SAPE   O3218294   3.081   4.280   7.183 -0.2158  0.0309  0.1051
  163SAPE   C3218295   2.971   4.485   7.228 -0.9089  0.0074  0.0068
  163SAPE   H2X18296   2.923   4.446   7.320  1.7957 -1.5602  0.8199
  163SAPE   H2Y18297   2.898   4.547   7.171 -2.3225  0.7519  2.5540
  163SAPE   C2318298   3.504   4.503   7.133 -0.1825  0.6799 -0.0912
  163SAPE   H3R18299   3.422   4.560   7.181  1.1279  1.6257  1.0453
  163SAPE   H3S18300   3.538   4.569   7.051  0.3964 -1.7735 -1.8961
  163SAPE   C2418301   3.618   4.483   7.241 -0.2931  0.3624 -0.1990
  163SAPE   H4R18302   3.688   4.411   7.193 -0.5107 -0.5755  0.8780
  163SAPE   H4S18303   3.567   4.436   7.328  2.3886 -1.8051  0.2690
  163SAPE   C2518304   3.680   4.614   7.292  0.3555 -0.3015 -0.6066
  163SAPE   H5R18305   3.767   4.631   7.227 -0.9716 -0.4886 -2.4454
  163SAPE   C2618306   3.645   4.690   7.396 -0.0373  0.6022 -0.6214
  163SAPE   H6R18307   3.707   4.777   7.419  1.4675 -1.0545  1.8467
  163SAPE   C2718308   3.534   4.680   7.498  0.6823  0.3329 -0.1998
  163SAPE   H7R18309   3.473   4.587   7.498 -0.0764  0.8215  1.2410
  163SAPE   H7S18310   3.462   4.759   7.467 -1.9471 -1.4200  1.1896
  163SAPE   C2818311   3.575   4.713   7.636 -0.0797 -0.7873  0.0599
  163SAPE   H8R18312   3.602   4.626   7.697  0.0865 -1.0903 -0.4396
  163SAPE   C2918313   3.591   4.835   7.688  0.1302 -0.0716  0.2465
  163SAPE   H9R18314   3.605   4.843   7.797  0.9161 -1.7088  0.2759
  163SAPE  C21018315   3.577   4.970   7.629  1.0295  0.1106  0.1333
  163SAPE  H10R18316   3.474   5.006   7.651  0.0038 -1.1951 -2.3257
  163SAPE  H10S18317   3.585   4.976   7.518  0.3481 -2.2155 -0.0870
  163SAPE  C21118318   3.668   5.068   7.697  0.0622 -1.2050 -0.0281
  163SAPE  H11R18319   3.760   5.082   7.639  0.8657 -0.1084  1.4610
  163SAPE  C21218320   3.642   5.150   7.803 -0.4395  1.0707  0.1965
  163SAPE  H12R18321   3.733   5.200   7.841  0.3737 -0.0163 -0.2869
  163SAPE  C21318322   3.514   5.153   7.885 -0.1161  0.0078  0.0991
  163SAPE  H13R18323   3.428   5.175   7.819  1.4508 -0.4205 -2.1387
  163SAPE  H13S18324   3.520   5.232   7.963 -3.0007 -0.7030  1.0953
  163SAPE  C21418325   3.484   5.035   7.973 -0.1377 -0.5538  0.5489
  163SAPE  H14R18326   3.448   4.947   7.916 -2.4300 -0.1033  1.2469
  163SAPE  C21518327   3.498   5.034   8.111  0.2462  0.2707 -0.0223
  163SAPE  H15R18328   3.493   4.934   8.157  0.8491 -1.5177 -3.5968
  163SAPE  C21618329   3.531   5.152   8.200 -0.2362  0.4649  0.2733
  163SAPE  H16R18330   3.450   5.171   8.274 -0.2700  1.1340  0.0686
  163SAPE  H16S18331   3.550   5.246   8.143 -0.8072  0.5464  0.2190
  163SAPE  C21718332   3.663   5.110   8.265  0.1388  0.4297 -0.1998
  163SAPE  H17R18333   3.748   5.102   8.195 -0.6870 -0.8226 -1.0621
  163SAPE  H17S18334   3.645   5.011   8.312 -0.4258  1.3591  1.5970
  163SAPE  C21818335   3.704   5.201   8.377 -0.2137 -0.0965  0.0968
  163SAPE  H18R18336   3.617   5.233   8.439 -0.3153 -1.4621  0.6892
  163SAPE  H18S18337   3.739   5.297   8.335 -1.6090  0.4698  0.2001
  163SAPE  C21918338   3.812   5.139   8.469  0.8152  0.6044  0.0333
  163SAPE  H19R18339   3.898   5.113   8.403  0.5892 -1.4650  0.5477
  163SAPE  H19S18340   3.767   5.052   8.521  0.0651  1.0987  0.2257
  163SAPE  C22018341   3.862   5.234   8.581 -0.0407 -0.1816  0.2303
  163SAPE  H20R18342   3.775   5.284   8.628  0.9542  0.5225  1.3618
  163SAPE  H20S18343   3.925   5.311   8.532 -1.2740  0.3856 -0.4928
  163SAPE  H20T18344   3.919   5.185   8.664 -0.2814  0.3115  0.6912
  163SAPE   C3318345   3.077   4.589   7.265 -0.1890 -0.3579  0.0000
  163SAPE   H3X18346   3.025   4.668   7.323  0.3226 -0.7038  0.9388
  163SAPE   H3Y18347   3.106   4.646   7.175  0.4862  0.9795  1.0614
  163SAPE   C3418348   3.194   4.535   7.340  0.0430  0.0868  0.5552
  163SAPE   H4X18349   3.275   4.611   7.338  1.8198 -1.7642 -0.5494
  163SAPE   H4Y18350   3.239   4.441   7.300  1.4715 -0.2417  2.8507
  163SAPE   C3518351   3.156   4.505   7.488 -0.6460  0.6637  0.3610
  163SAPE   H5X18352   3.254   4.472   7.529 -0.0220  1.3678 -0.5147
  163SAPE   H5Y18353   3.086   4.420   7.494  0.3356 -0.3035 -1.5773
  163SAPE   C3618354   3.114   4.623   7.571 -0.4156 -0.2560  0.1954
  163SAPE   H6X18355   3.007   4.640   7.548 -0.2176  0.7184 -0.0076
  163SAPE   H6Y18356   3.179   4.711   7.550 -0.1842 -0.3219  0.6142
  163SAPE   C3718357   3.115   4.597   7.721  0.2185  0.0355 -0.5626
  163SAPE   H7X18358   3.060   4.503   7.740  1.1449 -0.3151  0.3908
  163SAPE   H7Y18359   3.052   4.666   7.782  0.2613 -0.6256  0.2332
  163SAPE   C3818360   3.252   4.600   7.782  1.3143  0.8640  0.1286
  163SAPE   H8X18361   3.298   4.701   7.784  0.8589  1.0691  0.2228
  163SAPE   H8Y18362   3.325   4.539   7.724  1.5472  1.5791 -0.3446
  163SAPE   C3918363   3.262   4.550   7.926  0.5168  0.1951  0.2866
  163SAPE   H9X18364   3.366   4.551   7.963  0.4260 -1.5589  0.6444
  163SAPE   H9Y18365   3.234   4.442   7.924  0.6910  0.1598 -1.1564
  163SAPE  C31018366   3.174   4.620   8.026  0.5064  0.3715 -0.0350
  163SAPE  H10X18367   3.071   4.605   7.988  1.9802 -1.7538 -3.3996
  163SAPE  H10Y18368   3.187   4.730   8.034 -1.1688  0.5402  0.7678
  163SAPE  C31118369   3.167   4.556   8.162 -0.0762 -0.4068 -0.2914
  163SAPE  H11X18370   3.188   4.449   8.142 -1.1705 -0.4264 -1.4452
  163SAPE  H11Y18371   3.063   4.553   8.201  0.7270 -2.0054  1.8002
  163SAPE  C31218372   3.276   4.623   8.260 -0.7483  0.2957 -0.9660
  163SAPE  H12X18373   3.375   4.632   8.210  1.1137 -0.0268  2.5112
  163SAPE  H12Y18374   3.287   4.560   8.351 -1.1830 -0.7015 -1.5906
  163SAPE  C31318375   3.226   4.760   8.299  0.2654 -0.0212 -0.3107
  163SAPE  H13X18376   3.117   4.778   8.295  0.2400 -0.2787 -0.7982
  163SAPE  H13Y18377   3.265   4.834   8.226 -0.0151 -0.2649 -0.7043
  163SAPE  C31418378   3.272   4.822   8.431  0.1891  0.5975  0.1712
  163SAPE  H14X18379   3.380   4.805   8.449 -0.0294 -0.2968  0.6778
  163SAPE  H14Y18380   3.212   4.776   8.512  0.4202 -1.5710 -0.8713
  163SAPE  C31518381   3.261   4.978   8.438  0.2531 -0.4738 -0.3494
  163SAPE  H15X18382   3.157   5.010   8.413  0.3795  1.8037  1.8528
  163SAPE  H15Y18383   3.341   5.021   8.375 -0.4302  3.5297  1.3236
  163SAPE  C31618384   3.287   5.029   8.581 -0.7028  0.4113 -0.1758
  163SAPE  H16X18385   3.366   4.963   8.623 -0.6155  0.1476 -0.7368
  163SAPE  H16Y18386   3.195   5.019   8.641  0.7786 -0.8835  1.9472
  163SAPE  C31718387   3.342   5.173   8.588  0.1138 -0.0203  0.1797
  163SAPE  H17X18388   3.276   5.243   8.532 -2.3660 -0.1492  2.8306
  163SAPE  H17Y18389   3.439   5.163   8.534  0.0546 -0.6531  0.1803
  163SAPE  C31818390   3.359   5.221   8.730  1.0814 -0.3082  0.6866
  163SAPE  H18X18391   3.260   5.227   8.780  0.9368 -0.2844  0.4035
  163SAPE  H18Y18392   3.396   5.326   8.729 -1.0359  0.4846  2.0122
  163SAPE  H18Z18393   3.441   5.163   8.777  1.1068  0.9841  2.2694
  164SAPE     N18394   0.308   0.995   6.304  0.6312  0.0192 -0.3135
  164SAPE   HN118395   0.285   0.902   6.263 -1.0263 -0.5762  1.8600
  164SAPE   HN218396   0.269   1.000   6.400 -0.3372  1.3309 -0.7585
  164SAPE   HN318397   0.254   1.062   6.245  1.2225 -2.0718 -3.3334
  164SAPE   C1218398   0.455   1.018   6.292  0.4410  0.5994  0.3899
  164SAPE  H12A18399   0.499   0.938   6.355  0.1619  0.2039  0.0804
  164SAPE  H12B18400   0.487   1.115   6.337  0.8548  0.9474 -0.6376
  164SAPE   C1118401   0.495   1.002   6.144  0.1700  0.1374  0.4155
  164SAPE  H11A18402   0.436   0.917   6.103  0.3764 -0.1174  0.6524
  164SAPE  H11B18403   0.603   0.981   6.130  0.4238  1.1995  0.7180
  164SAPE     P18404   0.546   1.247   6.068 -0.1284 -0.0572 -0.1666
  164SAPE   O1318405   0.688   1.222   6.041 -0.5255 -0.2937 -0.4521
  164SAPE   O1418406   0.487   1.336   5.967 -0.2246 -0.1559  0.1838
  164SAPE   O1218407   0.463   1.110   6.071  0.0373  0.4887 -0.5252
  164SAPE   O1118408   0.534   1.311   6.212 -0.1991 -0.6970 -0.5977
  164SAPE    C118409   0.410   1.380   6.250 -0.2546  0.5099 -0.3360
  164SAPE    HA18410   0.391   1.465   6.180  1.0688  2.5993  1.7581
  164SAPE    HB18411   0.329   1.305   6.255  0.1199  0.1712  0.8311
  164SAPE    C218412   0.420   1.446   6.392  0.3423  0.1913 -0.3453
  164SAPE    HS18413   0.499   1.524   6.393 -1.0249  1.6105 -0.6426
  164SAPE   O2118414   0.425   1.348   6.489 -0.0877 -0.3345  0.7214
  164SAPE   C2118415   0.505   1.376   6.595  0.5341  0.0791 -0.5218
  164SAPE   O2218416   0.578   1.472   6.599  0.1152  0.6348  0.1908
  164SAPE   C2218417   0.485   1.282   6.709  0.5150  0.3604  0.2202
  164SAPE   H2R18418   0.378   1.252   6.707  0.1083  1.7238 -3.8801
  164SAPE   H2S18419   0.541   1.188   6.690  2.4372  1.4426  0.4555
  164SAPE    C318420   0.293   1.531   6.426  0.5255 -0.9912 -0.5512
  164SAPE    HX18421   0.216   1.468   6.476 -1.1370  2.5947  1.6392
  164SAPE    HY18422   0.256   1.575   6.331  1.8658  0.9130 -0.2148
  164SAPE   O3118423   0.334   1.633   6.524 -0.0852  0.3426  0.5240
  164SAPE   C3118424   0.234   1.707   6.558  0.3934  0.6275 -0.2570
  164SAPE   O3218425   0.115   1.679   6.534  0.4886 -0.7019 -0.0133
  164SAPE   C3218426   0.279   1.828   6.641  0.3574  0.3585 -0.4840
  164SAPE   H2X18427   0.183   1.883   6.654  0.9447  1.3914 -0.4856
  164SAPE   H2Y18428   0.343   1.877   6.564  2.8224 -3.2465 -0.8297
  164SAPE   C2318429   0.516   1.356   6.843 -0.0511 -0.7500 -0.5003
  164SAPE   H3R18430   0.473   1.458   6.845 -0.3731 -0.8913  0.8542
  164SAPE   H3S18431   0.627   1.360   6.846 -0.1319  0.6249  1.3415
  164SAPE   C2418432   0.472   1.270   6.965 -0.4239  0.1374  0.5456
  164SAPE   H4R18433   0.362   1.258   6.971 -0.7412  2.8165  0.6679
  164SAPE   H4S18434   0.509   1.326   7.054 -0.9715  0.0645  0.8164
  164SAPE   C2518435   0.547   1.143   6.961 -0.4813 -0.0603 -0.3951
  164SAPE   H5R18436   0.552   1.092   6.863 -0.6674  2.5249 -1.7895
  164SAPE   C2618437   0.589   1.082   7.070  0.0343 -0.3467 -0.9984
  164SAPE   H6R18438   0.644   0.988   7.060 -0.2530 -0.9280  2.4251
  164SAPE   C2718439   0.574   1.142   7.208  0.0778  0.2693  0.0085
  164SAPE   H7R18440   0.468   1.137   7.239 -0.1321  2.3090 -0.3055
  164SAPE   H7S18441   0.602   1.250   7.201  1.2216 -0.0111  0.0935
  164SAPE   C2818442   0.652   1.076   7.317 -0.5352 -0.0739 -0.1625
  164SAPE   H8R18443   0.744   1.026   7.283 -0.7935 -0.5171 -0.2234
  164SAPE   C2918444   0.623   1.072   7.449  0.5112 -0.4483 -0.6234
  164SAPE   H9R18445   0.689   1.021   7.520  2.7370  3.6214  0.4137
  164SAPE  C21018446   0.498   1.132   7.516 -0.0925 -0.1669  0.0902
  164SAPE  H10R18447   0.432   1.174   7.438 -1.5943  0.5022  1.6949
  164SAPE  H10S18448   0.531   1.204   7.594 -0.6314 -0.0048  0.1689
  164SAPE  C21118449   0.434   1.018   7.593 -0.0478 -0.4105 -0.0030
  164SAPE  H11R18450   0.407   0.927   7.537  0.1801  0.3609 -1.4120
  164SAPE  C21218451   0.427   1.004   7.726 -0.2135 -0.1260  0.3557
  164SAPE  H12R18452   0.368   0.922   7.770 -1.4528  1.0071  0.8583
  164SAPE  C21318453   0.470   1.105   7.830  0.4536  0.1282 -0.3285
  164SAPE  H13R18454   0.577   1.130   7.809  0.4498  1.0918  0.7628
  164SAPE  H13S18455   0.480   1.053   7.928 -1.0269 -0.4179 -0.4561
  164SAPE  C21418456   0.379   1.227   7.859  0.3055  0.3652 -0.0787
  164SAPE  H14R18457   0.305   1.246   7.780 -0.3279  0.2411  0.4841
  164SAPE  C21518458   0.395   1.308   7.966  0.2563 -0.3698 -0.0364
  164SAPE  H15R18459   0.329   1.396   7.953  1.5497  0.8196  1.2592
  164SAPE  C21618460   0.497   1.295   8.079 -0.3382  0.4394 -1.1163
  164SAPE  H16R18461   0.538   1.397   8.099  0.9745 -0.6229  1.8568
  164SAPE  H16S18462   0.583   1.230   8.052  0.8483  1.8586 -0.8057
  164SAPE  C21718463   0.425   1.244   8.200 -0.0700  0.1138  0.5864
  164SAPE  H17R18464   0.499   1.215   8.278 -2.6231 -1.3908  2.5358
  164SAPE  H17S18465   0.371   1.150   8.179  0.6880 -0.2440  0.2167
  164SAPE  C21818466   0.343   1.354   8.270  0.2443 -0.4111  0.1652
  164SAPE  H18R18467   0.346   1.453   8.218 -2.9105 -1.3902 -2.0760
  164SAPE  H18S18468   0.390   1.365   8.369  0.1467  3.3131 -0.0959
  164SAPE  C21918469   0.206   1.303   8.305  0.6995 -0.3052  0.1090
  164SAPE  H19R18470   0.181   1.378   8.383  0.8249  0.0874 -0.2258
  164SAPE  H19S18471   0.206   1.202   8.352 -2.4014 -0.2791  0.2531
  164SAPE  C22018472   0.104   1.310   8.191  0.1448  0.3892  0.3531
  164SAPE  H20R18473   0.005   1.277   8.229 -0.5319 -0.8967 -2.4068
  164SAPE  H20S18474   0.132   1.239   8.110 -1.6252 -0.3081  0.3454
  164SAPE  H20T18475   0.083   1.412   8.152 -1.4755 -0.4190 -0.9519
  164SAPE   C3318476   0.371   1.790   6.764  0.4274 -0.4387 -0.1193
  164SAPE   H3X18477   0.404   1.883   6.816  0.2525  0.0313 -0.8386
  164SAPE   H3Y18478   0.459   1.736   6.723  1.2204  2.0370 -1.7995
  164SAPE   C3418479   0.303   1.700   6.870  0.0227 -0.6246  0.3681
  164SAPE   H4X18480   0.276   1.599   6.833  0.4528 -0.1244 -1.3760
  164SAPE   H4Y18481   0.204   1.745   6.891  1.2426  2.8650 -0.9473
  164SAPE   C3518482   0.396   1.688   6.999  0.0827  0.3774 -0.4430
  164SAPE   H5X18483   0.397   1.789   7.046  2.3481 -1.3367  3.3877
  164SAPE   H5Y18484   0.496   1.657   6.963 -0.7323 -2.0618 -0.6538
  164SAPE   C3618485   0.348   1.606   7.112  0.4464 -0.5559  0.3832
  164SAPE   H6X18486   0.337   1.498   7.086 -1.4540 -0.3114  0.1161
  164SAPE   H6Y18487   0.254   1.643   7.157 -0.4457 -2.4950  0.1626
  164SAPE   C3718488   0.459   1.607   7.220 -0.9340 -0.4098  0.6476
  164SAPE   H7X18489   0.483   1.711   7.251 -0.4786 -0.4470  0.4315
  164SAPE   H7Y18490   0.548   1.561   7.172 -0.4930  0.4349  0.6504
  164SAPE   C3818491   0.428   1.525   7.341 -1.1046  0.0123 -0.2966
  164SAPE   H8X18492   0.517   1.506   7.405 -1.0842  3.0604  0.6764
  164SAPE   H8Y18493   0.389   1.424   7.318 -0.8589 -0.1901  0.1885
  164SAPE   C3918494   0.332   1.598   7.434 -0.0522 -0.3410  0.3452
  164SAPE   H9X18495   0.242   1.634   7.378  0.3651  0.7628  0.3733
  164SAPE   H9Y18496   0.398   1.684   7.458  0.8535 -1.0122  0.2533
  164SAPE  C31018497   0.313   1.522   7.564  0.1335  0.1147  0.4798
  164SAPE  H10X18498   0.414   1.513   7.609  0.0139 -2.4743  0.3310
  164SAPE  H10Y18499   0.280   1.419   7.539 -3.1727  0.8461  1.6746
  164SAPE  C31118500   0.209   1.577   7.658  0.5214  0.4659  0.8473
  164SAPE  H11X18501   0.236   1.532   7.757  1.2779 -3.2721 -0.9716
  164SAPE  H11Y18502   0.109   1.552   7.617  1.5706 -2.6405  0.0636
  164SAPE  C31218503   0.208   1.736   7.673 -0.9146 -0.5079 -0.1406
  164SAPE  H12X18504   0.209   1.769   7.567  0.0632  1.3588  0.4158
  164SAPE  H12Y18505   0.300   1.776   7.721 -0.5983 -3.0903  1.5438
  164SAPE  C31318506   0.081   1.798   7.741  0.3875 -0.5274  0.1472
  164SAPE  H13X18507  -0.009   1.776   7.681 -0.1462  1.2150  0.2868
  164SAPE  H13Y18508   0.091   1.906   7.765 -0.1417  0.2829 -2.9373
  164SAPE  C31418509   0.061   1.736   7.876  0.4058 -0.1953 -0.0839
  164SAPE  H14X18510   0.160   1.751   7.925 -0.6597  1.9860  1.5286
  164SAPE  H14Y18511   0.050   1.626   7.876  1.9307 -0.3574 -0.1779
  164SAPE  C31518512  -0.038   1.818   7.957 -0.1543  0.6011 -0.4664
  164SAPE  H15X18513  -0.025   1.925   7.928  2.3941  1.1877  2.4752
  164SAPE  H15Y18514  -0.015   1.791   8.062  3.1279 -2.1762 -1.8059
  164SAPE  C31618515  -0.190   1.788   7.925  0.8545  0.7383  0.6258
  164SAPE  H16X18516  -0.222   1.691   7.969 -0.5775 -0.5713 -3.1181
  164SAPE  H16Y18517  -0.194   1.762   7.817 -2.0322 -0.7932  1.0477
  164SAPE  C31718518  -0.295   1.894   7.963  0.0281 -0.3524  0.1096
  164SAPE  H17X18519  -0.391   1.871   7.912  1.1026 -0.2966 -1.9911
  164SAPE  H17Y18520  -0.254   1.991   7.928 -1.2883  0.2173  0.0865
  164SAPE  C31818521  -0.327   1.895   8.115  0.1918 -0.3486  0.4363
  164SAPE  H18X18522  -0.393   1.983   8.131  2.3995  1.4746 -0.1476
  164SAPE  H18Y18523  -0.240   1.910   8.182  1.5051 -2.7202 -0.6848
  164SAPE  H18Z18524  -0.383   1.804   8.145  1.3132 -2.0908 -2.5154
  165SAPE     N18525   0.026   4.318   6.369 -0.3206  0.4446 -0.6305
  165SAPE   HN118526  -0.058   4.291   6.424  0.3225 -0.8127 -0.2510
  165SAPE   HN218527   0.075   4.226   6.366 -1.7746 -0.3378 -1.0977
  165SAPE   HN318528   0.075   4.383   6.434  0.3381 -0.3397 -0.3313
  165SAPE   C1218529  -0.019   4.372   6.231  0.9836  0.6423  0.5061
  165SAPE  H12A18530  -0.038   4.292   6.157 -1.9719  0.8189  1.0106
  165SAPE  H12B18531   0.060   4.445   6.203 -0.5812  2.6900  1.3289
  165SAPE   C1118532  -0.157   4.445   6.249 -0.4578 -1.2361  0.5359
  165SAPE  H11A18533  -0.173   4.498   6.152  0.4881  2.4679  2.3220
  165SAPE  H11B18534  -0.149   4.524   6.326  0.2290 -0.4478 -0.3330
  165SAPE     P18535  -0.404   4.406   6.288  0.2675 -0.3213 -0.1472
  165SAPE   O1318536  -0.443   4.467   6.157  0.3100  0.1294  0.1279
  165SAPE   O1418537  -0.493   4.302   6.343 -0.2229 -0.7031  0.3165
  165SAPE   O1218538  -0.260   4.352   6.277 -0.2001  0.1098  0.2423
  165SAPE   O1118539  -0.398   4.523   6.393 -0.0333 -0.0463  1.0077
  165SAPE    C118540  -0.369   4.495   6.532 -0.1253  0.0401  1.0135
  165SAPE    HA18541  -0.364   4.387   6.556 -3.8410 -0.2609  0.6469
  165SAPE    HB18542  -0.273   4.543   6.561 -0.6756  0.6382  1.8850
  165SAPE    C218543  -0.460   4.573   6.625  0.6048  0.3964  0.0636
  165SAPE    HS18544  -0.430   4.679   6.639  2.6850  0.1899 -2.3663
  165SAPE   O2118545  -0.465   4.508   6.756  0.6555  0.3522 -0.1858
  165SAPE   C2118546  -0.353   4.522   6.829  0.4775  0.2650  0.7440
  165SAPE   O2218547  -0.251   4.583   6.791  0.2201  0.1960  0.5210
  165SAPE   C2218548  -0.357   4.446   6.962  0.5665 -0.3433  0.0405
  165SAPE   H2R18549  -0.459   4.404   6.980  0.7574 -1.5694 -1.5486
  165SAPE   H2S18550  -0.289   4.358   6.953  2.2875  1.1380 -1.8481
  165SAPE    C318551  -0.603   4.575   6.568 -0.3624  0.0681  0.8064
  165SAPE    HX18552  -0.640   4.470   6.562 -0.1614  0.0921 -1.6341
  165SAPE    HY18553  -0.613   4.626   6.470  1.3883 -0.2573  0.4438
  165SAPE   O3118554  -0.700   4.630   6.660  0.0679 -0.0720  0.7537
  165SAPE   C3118555  -0.687   4.763   6.670 -0.2928 -0.2191  0.5295
  165SAPE   O3218556  -0.599   4.834   6.618 -0.0249 -0.2575 -0.1455
  165SAPE   C3218557  -0.784   4.809   6.778  0.8901  0.0884 -0.5564
  165SAPE   H2X18558  -0.839   4.716   6.805  2.7757 -1.2043 -1.0708
  165SAPE   H2Y18559  -0.852   4.885   6.733  0.9323  1.3261  1.4329
  165SAPE   C2318560  -0.306   4.541   7.072  0.0253  0.2892  0.1110
  165SAPE   H3R18561  -0.375   4.627   7.086 -1.8199 -0.8909 -1.5303
  165SAPE   H3S18562  -0.206   4.582   7.046  0.6765 -0.4292  1.4047
  165SAPE   C2418563  -0.309   4.481   7.219 -0.3794 -0.2488  0.4671
  165SAPE   H4R18564  -0.254   4.386   7.233 -1.7969 -1.3865 -1.3054
  165SAPE   H4S18565  -0.417   4.466   7.239 -0.7441 -0.0754 -1.2373
  165SAPE   C2518566  -0.246   4.573   7.325 -0.3044  0.0741  0.1928
  165SAPE   H5R18567  -0.170   4.646   7.293  0.7538 -2.1511 -2.5772
  165SAPE   C2618568  -0.278   4.587   7.452 -0.0830  0.3281 -1.3566
  165SAPE   H6R18569  -0.220   4.662   7.507  0.1252  0.0729 -1.2287
  165SAPE   C2718570  -0.384   4.515   7.530 -0.6293  0.6169 -0.9637
  165SAPE   H7R18571  -0.344   4.416   7.561  1.0783  1.6078  0.0799
  165SAPE   H7S18572  -0.468   4.493   7.462 -1.1274  2.1217 -0.8540
  165SAPE   C2818573  -0.452   4.590   7.641  0.6632  0.0667 -0.9181
  165SAPE   H8R18574  -0.519   4.669   7.603  1.1657  1.1770  0.4735
  165SAPE   C2918575  -0.457   4.566   7.772  0.1004  0.3497 -0.3464
  165SAPE   H9R18576  -0.520   4.627   7.838 -0.0760  1.8839 -1.8709
  165SAPE  C21018577  -0.371   4.459   7.835 -0.4462  0.0129 -0.9452
  165SAPE  H10R18578  -0.290   4.420   7.770  0.7660 -0.5918  0.8864
  165SAPE  H10S18579  -0.440   4.375   7.855 -0.9055  0.9197  1.5160
  165SAPE  C21118580  -0.306   4.515   7.963 -0.5918 -0.1750  0.1214
  165SAPE  H11R18581  -0.233   4.595   7.944 -0.3664 -0.2623  0.6209
  165SAPE  C21218582  -0.335   4.487   8.088  0.0214 -1.0960  0.9757
  165SAPE  H12R18583  -0.291   4.561   8.157  0.0393  1.3063 -1.5585
  165SAPE  C21318584  -0.438   4.394   8.154 -0.0684 -0.3549 -1.0103
  165SAPE  H13R18585  -0.387   4.350   8.242 -0.4781  0.9771 -0.0899
  165SAPE  H13S18586  -0.459   4.303   8.094 -1.7979 -0.4874 -0.2172
  165SAPE  C21418587  -0.562   4.468   8.176  0.0146  0.3082 -1.3954
  165SAPE  H14R18588  -0.577   4.554   8.109  1.2303  2.5666  1.1283
  165SAPE  C21518589  -0.644   4.456   8.284 -0.2571  0.1802 -0.0024
  165SAPE  H15R18590  -0.717   4.536   8.305  1.0015  0.8590  1.9968
  165SAPE  C21618591  -0.632   4.364   8.402  0.9215  0.1561  0.2678
  165SAPE  H16R18592  -0.622   4.405   8.504  0.2108 -2.4538  1.4367
  165SAPE  H16S18593  -0.535   4.312   8.385  0.3555 -0.5173 -0.9629
  165SAPE  C21718594  -0.746   4.259   8.389  0.5341  0.3718 -0.0304
  165SAPE  H17R18595  -0.753   4.241   8.280 -1.3818  1.3336 -0.0863
  165SAPE  H17S18596  -0.847   4.302   8.405  0.8864  2.3182 -2.7695
  165SAPE  C21818597  -0.735   4.130   8.466 -0.3061 -0.4807  0.3128
  165SAPE  H18R18598  -0.638   4.089   8.432 -0.5669  1.0261 -2.3573
  165SAPE  H18S18599  -0.823   4.063   8.455 -1.1275  0.2336  2.2659
  165SAPE  C21918600  -0.729   4.168   8.618  0.1142  0.0446 -0.3927
  165SAPE  H19R18601  -0.826   4.216   8.642  1.5485  3.3688 -0.9563
  165SAPE  H19S18602  -0.649   4.245   8.617  0.9756 -0.8300 -0.1434
  165SAPE  C22018603  -0.708   4.059   8.719  0.0114  0.2378  0.1411
  165SAPE  H20R18604  -0.649   4.098   8.804  3.2732 -1.5603 -1.2219
  165SAPE  H20S18605  -0.643   3.981   8.674  1.4009  1.8866 -0.7637
  165SAPE  H20T18606  -0.806   4.016   8.750  0.1135 -1.0911 -1.3425
  165SAPE   C3318607  -0.716   4.858   6.906 -1.0755 -0.2957 -0.5211
  165SAPE   H3X18608  -0.608   4.853   6.880 -1.3648  0.0446 -1.8124
  165SAPE   H3Y18609  -0.737   4.793   6.993  0.4518  0.7177  0.6218
  165SAPE   C3418610  -0.765   5.000   6.936  0.2128  0.0471 -0.7682
  165SAPE   H4X18611  -0.875   5.017   6.939  0.2795  0.4571 -0.5902
  165SAPE   H4Y18612  -0.737   5.074   6.857  1.2334  0.7777  0.2583
  165SAPE   C3518613  -0.717   5.056   7.074 -0.5480 -0.1829  0.2108
  165SAPE   H5X18614  -0.766   5.153   7.099 -1.2236 -0.5626  0.3654
  165SAPE   H5Y18615  -0.608   5.079   7.066 -0.9507  1.2140 -1.7656
  165SAPE   C3618616  -0.736   4.961   7.192 -0.4483  0.3004  0.0722
  165SAPE   H6X18617  -0.659   4.881   7.193  0.5583  1.2556  2.1592
  165SAPE   H6Y18618  -0.819   4.891   7.169  0.3549 -1.5069  2.4017
  165SAPE   C3718619  -0.753   5.032   7.324 -0.4920  0.4820  0.8397
  165SAPE   H7X18620  -0.849   5.088   7.324 -0.1962  1.0118 -1.0983
  165SAPE   H7Y18621  -0.665   5.099   7.326  0.0436 -0.1875  0.0019
  165SAPE   C3818622  -0.739   4.935   7.444  0.3514  0.6195 -0.2079
  165SAPE   H8X18623  -0.646   4.875   7.439  0.3924  0.7381 -0.8509
  165SAPE   H8Y18624  -0.825   4.865   7.447  0.7600 -0.0100 -2.1627
  165SAPE   C3918625  -0.739   5.001   7.584 -0.3734 -0.0959 -0.3560
  165SAPE   H9X18626  -0.844   5.036   7.599 -0.1772  0.1019  0.5643
  165SAPE   H9Y18627  -0.674   5.088   7.562  0.2999 -0.1539  1.2948
  165SAPE  C31018628  -0.721   4.900   7.695  0.0455 -0.6007  0.3751
  165SAPE  H10X18629  -0.632   4.834   7.682 -0.0983 -0.5255 -1.0413
  165SAPE  H10Y18630  -0.796   4.818   7.702 -2.6234  1.6019 -1.4894
  165SAPE  C31118631  -0.726   4.971   7.835 -0.1315 -0.2161  0.2871
  165SAPE  H11X18632  -0.821   5.026   7.854  0.3723  0.7087  0.1231
  165SAPE  H11Y18633  -0.648   5.050   7.834  0.3477 -0.6927 -0.1223
  165SAPE  C31218634  -0.707   4.877   7.954  0.2185 -0.1826  0.2768
  165SAPE  H12X18635  -0.624   4.806   7.935 -0.5663 -1.6257  2.0944
  165SAPE  H12Y18636  -0.803   4.821   7.961 -0.6958  1.5281  1.8409
  165SAPE  C31318637  -0.677   4.944   8.089  0.2395  0.5874  0.1784
  165SAPE  H13X18638  -0.759   5.014   8.117 -1.3710 -1.3812  0.5532
  165SAPE  H13Y18639  -0.585   5.006   8.089  0.9567 -0.3857  2.9209
  165SAPE  C31418640  -0.658   4.849   8.209  0.4056 -0.1026  0.0127
  165SAPE  H14X18641  -0.577   4.781   8.174  1.0592  0.0506  1.2068
  165SAPE  H14Y18642  -0.743   4.778   8.217 -0.8358  1.2726 -0.8952
  165SAPE  C31518643  -0.608   4.907   8.346  0.2075 -0.2668 -0.0768
  165SAPE  H15X18644  -0.704   4.931   8.396 -0.9531 -0.9109 -1.9183
  165SAPE  H15Y18645  -0.552   5.000   8.328 -3.4065  2.3670  1.6315
  165SAPE  C31618646  -0.509   4.817   8.423  0.1086 -0.2614 -0.2295
  165SAPE  H16X18647  -0.408   4.801   8.379  0.3292 -1.2873  0.6254
  165SAPE  H16Y18648  -0.547   4.713   8.425 -0.4009 -0.0795 -0.5571
  165SAPE  C31718649  -0.502   4.864   8.577 -0.6946 -0.1354  0.6941
  165SAPE  H17X18650  -0.599   4.832   8.619 -1.8475  0.5408 -1.3572
  165SAPE  H17Y18651  -0.491   4.974   8.589  2.6951 -0.4452  1.0333
  165SAPE  C31818652  -0.391   4.788   8.656 -0.4245 -0.5009  0.2584
  165SAPE  H18X18653  -0.294   4.810   8.605 -0.7221  1.8090  0.6425
  165SAPE  H18Y18654  -0.404   4.678   8.658  2.3688 -0.9308 -1.2786
  165SAPE  H18Z18655  -0.379   4.822   8.761 -0.9730  3.7448 -0.9391
  166SAPE     N18656   6.266   2.404   6.028  0.0835  0.0004  0.1757
  166SAPE   HN118657   6.235   2.502   6.042 -0.3539  0.1441 -1.6697
  166SAPE   HN218658   6.363   2.405   5.992  0.0372  1.3156  0.0917
  166SAPE   HN318659   6.208   2.365   5.951 -0.2885  2.1068 -0.6331
  166SAPE   C1218660   6.257   2.324   6.160 -0.6958  0.3364 -0.1078
  166SAPE  H12A18661   6.310   2.384   6.238 -0.2569  0.2305 -0.3200
  166SAPE  H12B18662   6.313   2.231   6.135  0.7417  1.2220 -0.2588
  166SAPE   C1118663   6.115   2.289   6.192  0.3076  0.2164  1.1142
  166SAPE  H11A18664   6.047   2.376   6.201  0.0159  0.0886  0.2394
  166SAPE  H11B18665   6.118   2.237   6.290 -1.7057  0.1340  1.1388
  166SAPE     P18666   5.919   2.141   6.090  0.4273 -0.3950 -0.4806
  166SAPE   O1318667   5.845   2.202   6.204 -0.5368 -0.1716 -0.0118
  166SAPE   O1418668   5.859   2.164   5.957  0.5203 -0.3185  0.5555
  166SAPE   O1218669   6.066   2.195   6.093  0.1773  0.0617  0.1301
  166SAPE   O1118670   5.941   1.988   6.120  0.5555 -0.0392  0.0836
  166SAPE    C118671   6.044   1.937   6.211 -0.3300 -0.7805 -0.2567
  166SAPE    HA18672   6.088   1.838   6.187 -0.3366 -1.3193  1.8569
  166SAPE    HB18673   6.130   2.007   6.204  0.4019 -1.6256  0.1929
  166SAPE    C218674   5.990   1.924   6.354 -0.1191  0.3105 -0.1890
  166SAPE    HS18675   5.885   1.888   6.346  0.8105 -2.7418  0.6439
  166SAPE   O2118676   5.999   2.046   6.421 -0.3400  0.5866 -0.3983
  166SAPE   C2118677   5.904   2.075   6.507 -0.7656 -0.5345  0.4573
  166SAPE   O2218678   5.800   2.014   6.529  0.2174 -0.0433 -0.1301
  166SAPE   C2218679   5.938   2.206   6.583  0.1932 -0.3631 -0.2324
  166SAPE   H2R18680   6.048   2.221   6.584 -0.1283  2.1922  1.6210
  166SAPE   H2S18681   5.879   2.286   6.533 -1.3598 -2.3131 -1.6177
  166SAPE    C318682   6.070   1.818   6.440  0.2237  0.9095 -0.4642
  166SAPE    HX18683   6.178   1.835   6.419  0.4830 -0.2660 -0.0932
  166SAPE    HY18684   6.037   1.719   6.402  0.0781  1.0011 -0.5793
  166SAPE   O3118685   6.039   1.824   6.586 -0.5640  0.1817  0.2772
  166SAPE   C3118686   6.132   1.772   6.661  0.4800  0.7716  0.1899
  166SAPE   O3218687   6.242   1.733   6.623  0.6105 -0.1237  0.0130
  166SAPE   C3218688   6.090   1.771   6.804  0.3840  0.6756 -0.2268
  166SAPE   H2X18689   6.052   1.667   6.812  0.1208  0.5755 -2.3812
  166SAPE   H2Y18690   6.004   1.839   6.822 -0.4439  0.4093 -2.9252
  166SAPE   C2318691   5.878   2.198   6.729 -0.0872  0.0898 -0.0284
  166SAPE   H3R18692   5.911   2.105   6.779 -0.7951 -0.9094 -1.3911
  166SAPE   H3S18693   5.767   2.197   6.725 -0.1747  1.2842  1.5982
  166SAPE   C2418694   5.918   2.322   6.818  0.1750  0.2513 -0.1817
  166SAPE   H4R18695   5.861   2.410   6.782  1.2871 -0.1133 -2.9667
  166SAPE   H4S18696   6.021   2.352   6.791 -0.0200  0.0616 -1.1659
  166SAPE   C2518697   5.891   2.292   6.964  0.4358 -0.6039  0.7572
  166SAPE   H5R18698   5.832   2.201   6.981 -0.5134 -0.1710 -0.1967
  166SAPE   C2618699   5.947   2.357   7.067 -0.5091  0.6759  0.0844
  166SAPE   H6R18700   5.922   2.332   7.171  0.3938  0.8530  0.3433
  166SAPE   C2718701   6.039   2.470   7.046 -1.1284 -0.2772  0.1438
  166SAPE   H7R18702   6.114   2.456   6.966 -1.8562 -0.1212 -0.5746
  166SAPE   H7S18703   6.107   2.472   7.134  1.3007  0.0283 -1.6898
  166SAPE   C2818704   5.977   2.604   7.030 -0.4432  0.0207 -0.3106
  166SAPE   H8R18705   5.977   2.649   6.930 -1.9392  0.5045 -0.1076
  166SAPE   C2918706   5.915   2.674   7.136 -0.5055 -0.7841  0.9333
  166SAPE   H9R18707   5.879   2.773   7.106 -0.5838 -1.1483 -0.2293
  166SAPE  C21018708   5.912   2.636   7.284  0.6780 -0.2999 -0.6621
  166SAPE  H10R18709   5.979   2.692   7.352 -0.2623 -0.3257  0.2990
  166SAPE  H10S18710   5.939   2.528   7.293  0.3649 -0.3837 -0.7205
  166SAPE  C21118711   5.771   2.635   7.341  0.6060 -0.3081  0.4501
  166SAPE  H11R18712   5.687   2.619   7.272  0.3206 -1.4021  1.0349
  166SAPE  C21218713   5.746   2.623   7.475  1.0663 -0.3402 -0.2750
  166SAPE  H12R18714   5.640   2.620   7.503  0.7007  0.1315 -1.5663
  166SAPE  C21318715   5.843   2.616   7.590  0.3554  0.3762 -0.5032
  166SAPE  H13R18716   5.818   2.705   7.652  0.8700 -1.4528  2.3736
  166SAPE  H13S18717   5.946   2.634   7.550  0.1873  1.8399 -0.3084
  166SAPE  C21418718   5.854   2.489   7.673 -0.7202  0.1357 -0.6655
  166SAPE  H14R18719   5.811   2.399   7.627  1.4947 -1.4096  0.1680
  166SAPE  C21518720   5.891   2.472   7.798  0.0487 -0.7052  0.1100
  166SAPE  H15R18721   5.889   2.371   7.840 -0.4969  0.6281  3.4329
  166SAPE  C21618722   5.930   2.585   7.896 -0.2687  0.3966 -0.5350
  166SAPE  H16R18723   5.894   2.686   7.867 -1.1574 -0.0868 -1.1213
  166SAPE  H16S18724   6.039   2.606   7.905  0.0235 -1.8292  1.5048
  166SAPE  C21718725   5.886   2.571   8.047  0.1976  0.2524  0.1810
  166SAPE  H17R18726   5.777   2.553   8.034  0.0313  0.6494  1.0341
  166SAPE  H17S18727   5.903   2.676   8.080  1.8642  1.0732 -3.0952
  166SAPE  C21818728   5.963   2.467   8.125 -0.7813  0.6483  0.0103
  166SAPE  H18R18729   6.073   2.482   8.113 -1.1946  3.5402 -0.6026
  166SAPE  H18S18730   5.944   2.368   8.080  1.4193 -0.6163  1.7687
  166SAPE  C21918731   5.913   2.439   8.268 -0.4815  0.2645 -0.5668
  166SAPE  H19R18732   5.991   2.380   8.320 -2.3139 -1.0851  0.7512
  166SAPE  H19S18733   5.814   2.387   8.268  0.3502 -1.4253  1.3797
  166SAPE  C22018734   5.890   2.570   8.343  0.3285 -0.6121  0.8532
  166SAPE  H20R18735   5.872   2.557   8.452  0.2609  1.1194  1.0658
  166SAPE  H20S18736   5.799   2.616   8.298  1.4822  0.4548 -0.4269
  166SAPE  H20T18737   5.982   2.629   8.326 -0.8764  0.8120 -1.0312
  166SAPE   C3318738   6.207   1.815   6.890  0.5708  0.8468  0.5543
  166SAPE   H3X18739   6.237   1.921   6.876  2.2890  0.2986 -0.1898
  166SAPE   H3Y18740   6.293   1.746   6.870 -0.9839 -1.0688  0.3385
  166SAPE   C3418741   6.169   1.801   7.041 -0.4820 -0.1645 -0.3277
  166SAPE   H4X18742   6.069   1.845   7.063  0.5063  1.0148  2.0342
  166SAPE   H4Y18743   6.231   1.871   7.101  0.0111 -0.3520 -0.6116
  166SAPE   C3518744   6.187   1.657   7.089 -0.1702  0.1500 -0.2719
  166SAPE   H5X18745   6.290   1.640   7.127  0.6778  2.7283 -1.2603
  166SAPE   H5Y18746   6.166   1.581   7.012  1.7104 -0.5803 -0.0847
  166SAPE   C3618747   6.088   1.628   7.208 -0.6493 -0.2005  0.7707
  166SAPE   H6X18748   6.076   1.517   7.207  1.2445 -0.4262  0.8261
  166SAPE   H6Y18749   5.984   1.663   7.192 -0.7573 -0.0545  1.8085
  166SAPE   C3718750   6.124   1.691   7.338  0.3388  0.2268 -0.7834
  166SAPE   H7X18751   6.040   1.696   7.411  1.7255  3.3120  0.7225
  166SAPE   H7Y18752   6.142   1.796   7.309  0.7347  0.3729 -0.0251
  166SAPE   C3818753   6.233   1.623   7.411 -0.2540 -0.2734  0.7199
  166SAPE   H8X18754   6.318   1.601   7.344 -1.3741 -0.5739 -0.6189
  166SAPE   H8Y18755   6.193   1.525   7.446 -1.6026 -0.5155 -1.3867
  166SAPE   C3918756   6.290   1.687   7.537  0.1498  0.5999  0.1925
  166SAPE   H9X18757   6.356   1.613   7.587  0.7314  1.7251  1.1450
  166SAPE   H9Y18758   6.208   1.703   7.610  1.2187 -1.7604  1.9648
  166SAPE  C31018759   6.357   1.821   7.514 -0.3634  0.0666  0.4539
  166SAPE  H10X18760   6.415   1.840   7.606 -1.5552  0.9417  1.0373
  166SAPE  H10Y18761   6.276   1.897   7.511 -2.0691 -1.6466  1.8165
  166SAPE  C31118762   6.460   1.834   7.401  0.2930 -0.2477 -0.2186
  166SAPE  H11X18763   6.483   1.942   7.392  0.6774 -0.3631 -0.6789
  166SAPE  H11Y18764   6.411   1.787   7.312 -0.1578 -0.0266 -0.0866
  166SAPE  C31218765   6.594   1.758   7.412  0.0076  0.6152  0.3711
  166SAPE  H12X18766   6.578   1.653   7.445 -0.4227  1.2066  2.0773
  166SAPE  H12Y18767   6.657   1.807   7.489 -1.9215  0.9574  1.7620
  166SAPE  C31318768   6.683   1.754   7.288 -0.6087  0.4600 -0.5464
  166SAPE  H13X18769   6.779   1.708   7.318  0.9965  2.1152 -3.0173
  166SAPE  H13Y18770   6.704   1.856   7.249  0.8120  0.0713 -0.8102
  166SAPE  C31418771   6.619   1.660   7.171 -0.0001 -0.2769 -0.2808
  166SAPE  H14X18772   6.508   1.671   7.164  0.2162  1.1103 -1.7829
  166SAPE  H14Y18773   6.646   1.558   7.207 -1.3165 -0.3205  0.6348
  166SAPE  C31518774   6.653   1.694   7.027 -0.4015 -0.0470  0.1339
  166SAPE  H15X18775   6.598   1.617   6.967 -3.8601  2.1222  0.3661
  166SAPE  H15Y18776   6.762   1.682   7.012 -0.2485  1.1864  0.2212
  166SAPE  C31618777   6.598   1.834   6.976 -0.5928 -0.2648  0.1405
  166SAPE  H16X18778   6.659   1.905   7.036 -1.3468  0.6169 -0.1192
  166SAPE  H16Y18779   6.497   1.856   7.016 -0.6410  1.5166 -0.8931
  166SAPE  C31718780   6.596   1.854   6.825  0.3651 -0.7484 -0.1113
  166SAPE  H17X18781   6.530   1.937   6.792 -0.0307 -0.9660  0.1342
  166SAPE  H17Y18782   6.546   1.764   6.784 -0.3471  0.3596 -1.7404
  166SAPE  C31818783   6.734   1.869   6.769  0.3818  0.1651 -0.2968
  166SAPE  H18X18784   6.777   1.968   6.796  0.1403  0.6052 -1.4929
  166SAPE  H18Y18785   6.727   1.871   6.658  1.4425 -0.4031 -0.3772
  166SAPE  H18Z18786   6.810   1.797   6.806  0.8206  0.5941 -0.3577
  167SAPE     N18787   6.739   0.392   5.973  0.3723  0.0511  0.4026
  167SAPE   HN118788   6.684   0.331   5.909 -0.7970  1.2708  0.2230
  167SAPE   HN218789   6.707   0.372   6.070 -2.3845 -0.2766 -0.5399
  167SAPE   HN318790   6.720   0.493   5.954 -1.3621 -0.0577  1.4492
  167SAPE   C1218791   6.886   0.374   5.952 -0.0238  0.3980 -0.2225
  167SAPE  H12A18792   6.924   0.421   5.859 -0.7033 -0.3298 -0.8682
  167SAPE  H12B18793   6.888   0.268   5.920 -4.0309  0.1989 -0.0700
  167SAPE   C1118794   6.964   0.409   6.079  0.0043  0.1646  0.4239
  167SAPE  H11A18795   7.066   0.367   6.084 -0.2088 -0.7670 -2.4478
  167SAPE  H11B18796   6.902   0.379   6.167 -1.9453 -0.0330 -0.9764
  167SAPE     P18797   7.085   0.635   6.133 -0.1302 -0.2654  0.8992
  167SAPE   O1318798   7.176   0.669   6.023  0.3855  0.5309 -0.0302
  167SAPE   O1418799   7.034   0.757   6.206  0.0246  0.0907  0.0193
  167SAPE   O1218800   6.966   0.554   6.070 -0.2361 -0.3969  0.3765
  167SAPE   O1118801   7.156   0.538   6.237  0.4602  0.2303 -0.5821
  167SAPE    C118802   7.276   0.572   6.303  0.4440  1.0013 -0.4876
  167SAPE    HA18803   7.340   0.484   6.281 -1.5521 -0.3425 -1.1188
  167SAPE    HB18804   7.328   0.667   6.280 -0.5713  1.8417  0.6529
  167SAPE    C218805   7.247   0.578   6.457 -0.6613  0.2186 -0.2515
  167SAPE    HS18806   7.175   0.659   6.482 -0.2455  1.3951 -2.7874
  167SAPE   O2118807   7.372   0.592   6.526 -0.2633 -0.5398 -0.4600
  167SAPE   C2118808   7.409   0.715   6.553  0.6635  0.2243 -0.0859
  167SAPE   O2218809   7.342   0.815   6.537  1.0335  0.2465  0.6657
  167SAPE   C2218810   7.559   0.714   6.592 -0.0642  0.2692  0.8953
  167SAPE   H2R18811   7.567   0.613   6.637  1.4013  0.0683  0.1940
  167SAPE   H2S18812   7.614   0.716   6.496 -1.0864  1.8548  0.3257
  167SAPE    C318813   7.175   0.448   6.500 -0.3381  1.2872  0.3747
  167SAPE    HX18814   7.242   0.361   6.481 -1.2845 -0.0851  3.0122
  167SAPE    HY18815   7.082   0.434   6.441 -0.5690  0.1156  0.9996
  167SAPE   O3118816   7.141   0.453   6.642 -0.7203  0.7240  0.2278
  167SAPE   C3118817   7.065   0.361   6.688  0.1809  0.5272 -0.0487
  167SAPE   O3218818   7.012   0.271   6.626 -0.0545  0.4258  1.0279
  167SAPE   C3218819   7.041   0.378   6.840  0.1251  0.2848  0.2942
  167SAPE   H2X18820   7.000   0.283   6.880  0.2693  0.4208  0.7603
  167SAPE   H2Y18821   6.981   0.471   6.849 -0.1665  0.2892 -1.4218
  167SAPE   C2318822   7.619   0.817   6.695 -0.2022  0.6999  0.4455
  167SAPE   H3R18823   7.624   0.908   6.630 -0.4314  1.3414  1.3190
  167SAPE   H3S18824   7.722   0.789   6.724 -0.5795 -0.4631  0.6665
  167SAPE   C2418825   7.540   0.836   6.820 -0.2448 -0.0422  0.4838
  167SAPE   H4R18826   7.446   0.886   6.789 -0.1183  0.3653  0.7491
  167SAPE   H4S18827   7.583   0.913   6.889 -0.1207 -1.1955  1.7209
  167SAPE   C2518828   7.505   0.709   6.899  0.2494 -0.6045  0.9457
  167SAPE   H5R18829   7.439   0.637   6.849  0.0894  0.7818 -0.8825
  167SAPE   C2618830   7.533   0.688   7.030  0.0928  0.4092 -0.1337
  167SAPE   H6R18831   7.496   0.597   7.078 -2.7611 -0.3110 -3.5084
  167SAPE   C2718832   7.613   0.778   7.124 -0.6263 -0.0712 -0.9049
  167SAPE   H7R18833   7.555   0.849   7.187  1.6010 -0.4231  1.5898
  167SAPE   H7S18834   7.674   0.840   7.055 -0.2558  0.1443 -0.3795
  167SAPE   C2818835   7.724   0.713   7.211  0.7978 -0.3583  0.3833
  167SAPE   H8R18836   7.821   0.739   7.168 -0.1337  0.8118 -1.0986
  167SAPE   C2918837   7.702   0.645   7.325 -0.2870  0.1773  0.0633
  167SAPE   H9R18838   7.790   0.602   7.374 -1.2522 -1.1170  0.6981
  167SAPE  C21018839   7.570   0.626   7.392  0.2696  0.1593 -0.4239
  167SAPE  H10R18840   7.571   0.520   7.426  0.1550  0.2903 -0.0121
  167SAPE  H10S18841   7.477   0.642   7.333 -1.2386 -2.2097  1.2186
  167SAPE  C21118842   7.556   0.717   7.513 -0.1726  0.7893  0.0790
  167SAPE  H11R18843   7.579   0.822   7.487 -0.4018  0.4164 -1.7361
  167SAPE  C21218844   7.532   0.678   7.640  0.0340  0.1214  0.1883
  167SAPE  H12R18845   7.514   0.753   7.718  0.5354  0.2082  0.2261
  167SAPE  C21318846   7.507   0.537   7.698 -0.6699 -0.0544 -0.2026
  167SAPE  H13R18847   7.561   0.463   7.634  0.8074 -0.3536  1.3414
  167SAPE  H13S18848   7.407   0.489   7.688 -0.1861 -1.0547 -0.3336
  167SAPE  C21418849   7.546   0.524   7.846 -0.1379 -0.0277 -0.9091
  167SAPE  H14R18850   7.646   0.482   7.862 -1.0271 -1.6570  0.5478
  167SAPE  C21518851   7.479   0.574   7.955 -0.0180  0.6214 -0.1322
  167SAPE  H15R18852   7.521   0.545   8.052 -0.2959 -2.7286 -0.9391
  167SAPE  C21618853   7.348   0.639   7.950 -0.0540 -0.0935  0.2522
  167SAPE  H16R18854   7.265   0.586   7.900 -2.0198  1.0053  2.2418
  167SAPE  H16S18855   7.363   0.739   7.904  3.1380 -1.2150 -1.2294
  167SAPE  C21718856   7.287   0.668   8.091 -0.2778  0.2793  0.0485
  167SAPE  H17R18857   7.351   0.739   8.148  0.0428 -0.5148  0.6898
  167SAPE  H17S18858   7.273   0.579   8.157 -0.8174  1.5372  1.6630
  167SAPE  C21818859   7.146   0.740   8.074  0.9929 -0.1767  0.0268
  167SAPE  H18R18860   7.079   0.689   8.001 -1.0521 -0.9661  2.4112
  167SAPE  H18S18861   7.170   0.842   8.035 -0.8346 -0.2649 -1.4122
  167SAPE  C21918862   7.075   0.764   8.205  0.0572  0.3840 -0.9427
  167SAPE  H19R18863   7.042   0.670   8.255 -0.7137  1.7557  1.2324
  167SAPE  H19S18864   6.978   0.809   8.174 -0.4060  1.1732  1.4972
  167SAPE  C22018865   7.144   0.848   8.312 -0.0570  0.0664 -0.4124
  167SAPE  H20R18866   7.187   0.938   8.264  0.0133 -0.1255 -0.7128
  167SAPE  H20S18867   7.211   0.786   8.375  0.2755  2.2900  1.4696
  167SAPE  H20T18868   7.063   0.877   8.383 -0.8047  0.5434 -1.4337
  167SAPE   C3318869   7.185   0.401   6.899  0.1066 -0.0977 -0.3261
  167SAPE   H3X18870   7.220   0.496   6.853 -0.9420 -0.3585 -1.6710
  167SAPE   H3Y18871   7.258   0.326   6.863 -0.9300 -0.1440 -2.3609
  167SAPE   C3418872   7.198   0.427   7.054  0.1221  0.7866 -0.0818
  167SAPE   H4X18873   7.143   0.520   7.081 -1.6565  0.0467 -1.0888
  167SAPE   H4Y18874   7.306   0.448   7.068  0.8837 -1.7740 -1.7504
  167SAPE   C3518875   7.167   0.299   7.131  0.1240  0.3972 -0.3738
  167SAPE   H5X18876   7.214   0.216   7.075  0.0452  1.2685 -1.7491
  167SAPE   H5Y18877   7.056   0.297   7.127  0.0198  1.4991  1.3739
  167SAPE   C3618878   7.227   0.289   7.274 -0.4978 -1.0859  0.2247
  167SAPE   H6X18879   7.329   0.331   7.271 -0.8473 -0.3626 -2.1886
  167SAPE   H6Y18880   7.228   0.188   7.320 -0.8184 -0.8155  0.8416
  167SAPE   C3718881   7.151   0.378   7.374 -0.0811  0.1734  0.2371
  167SAPE   H7X18882   7.043   0.356   7.376 -0.1114  0.3434  2.0467
  167SAPE   H7Y18883   7.171   0.483   7.346 -3.3120  0.1422 -2.3651
  167SAPE   C3818884   7.192   0.354   7.519 -0.4719  0.4336 -0.1827
  167SAPE   H8X18885   7.299   0.366   7.547 -0.0502  2.4227 -2.4642
  167SAPE   H8Y18886   7.171   0.247   7.537 -1.6573  1.2091  3.5499
  167SAPE   C3918887   7.098   0.415   7.618 -0.0394 -0.2535 -0.9473
  167SAPE   H9X18888   6.993   0.400   7.584 -0.2150 -0.4881 -0.3057
  167SAPE   H9Y18889   7.111   0.525   7.626 -0.7687 -0.2587  0.4369
  167SAPE  C31018890   7.123   0.355   7.758  0.1360 -1.0409  0.3882
  167SAPE  H10X18891   7.231   0.365   7.784  1.3494  1.6000 -4.8865
  167SAPE  H10Y18892   7.109   0.244   7.758 -1.2186 -0.8741  0.9300
  167SAPE  C31118893   7.030   0.413   7.863  0.4312  0.1610 -0.1237
  167SAPE  H11X18894   6.924   0.407   7.830  0.4747  2.1385 -0.6897
  167SAPE  H11Y18895   7.049   0.522   7.871 -0.3570  0.6966 -4.4061
  167SAPE  C31218896   7.036   0.335   8.000 -0.0061  0.7095 -0.3564
  167SAPE  H12X18897   7.129   0.356   8.057 -0.0270  1.2756 -0.5290
  167SAPE  H12Y18898   7.026   0.229   7.971  0.4613  0.6873 -0.4309
  167SAPE  C31318899   6.916   0.390   8.085  0.1854 -0.6062 -0.1423
  167SAPE  H13X18900   6.816   0.380   8.039 -0.2739 -1.3195  1.0182
  167SAPE  H13Y18901   6.939   0.498   8.100 -0.3693 -0.4524 -0.4111
  167SAPE  C31418902   6.924   0.333   8.230  0.4743 -0.2784 -0.2644
  167SAPE  H14X18903   7.026   0.342   8.275 -1.3267  0.1367  3.9403
  167SAPE  H14Y18904   6.899   0.225   8.228 -3.1798  0.5487 -1.9972
  167SAPE  C31518905   6.817   0.408   8.325  0.1743  0.2640  0.4590
  167SAPE  H15X18906   6.721   0.427   8.273  1.3148  0.8310 -1.4911
  167SAPE  H15Y18907   6.865   0.502   8.359  0.2198  0.0798  0.8969
  167SAPE  C31618908   6.774   0.313   8.444  0.3775 -0.5078 -0.0632
  167SAPE  H16X18909   6.857   0.258   8.494  0.6246 -1.4238 -1.4623
  167SAPE  H16Y18910   6.705   0.242   8.394  0.5734 -0.9937  0.3487
  167SAPE  C31718911   6.699   0.385   8.563  0.8529 -0.6355 -0.8369
  167SAPE  H17X18912   6.605   0.440   8.538  0.8048 -1.1271 -1.7460
  167SAPE  H17Y18913   6.767   0.470   8.586  0.9050 -0.7294 -0.6462
  167SAPE  C31818914   6.679   0.295   8.691 -0.3860  0.1857 -0.8498
  167SAPE  H18X18915   6.627   0.352   8.771 -0.8222 -0.5338 -0.6066
  167SAPE  H18Y18916   6.774   0.252   8.728 -0.7041 -1.1462 -1.4944
  167SAPE  H18Z18917   6.614   0.207   8.668 -1.9202  1.3845 -1.1611
  168SAPE     N18918   2.560   2.694   6.176  0.1991  0.6731  0.6520
  168SAPE   HN118919   2.489   2.634   6.130  0.0446  1.0619  0.3870
  168SAPE   HN218920   2.508   2.781   6.202  0.2335  0.2600  2.1750
  168SAPE   HN318921   2.637   2.727   6.115  0.6004 -0.7686  0.3742
  168SAPE   C1218922   2.621   2.608   6.284 -0.5626  0.2352 -0.3423
  168SAPE  H12A18923   2.678   2.669   6.357 -3.7251 -0.5633  2.9711
  168SAPE  H12B18924   2.692   2.540   6.232  1.6144  0.2882  2.4105
  168SAPE   C1118925   2.514   2.522   6.349  0.0331 -0.1090 -0.3582
  168SAPE  H11A18926   2.460   2.589   6.420  1.4352  0.1839  0.4484
  168SAPE  H11B18927   2.557   2.444   6.415  1.2373 -1.4641 -2.7230
  168SAPE     P18928   2.412   2.320   6.199 -0.2482  0.1218  0.8715
  168SAPE   O1318929   2.294   2.297   6.117  0.3506 -0.0242  0.1618
  168SAPE   O1418930   2.540   2.276   6.150  0.2734 -0.0008 -0.0507
  168SAPE   O1218931   2.417   2.470   6.252  0.7727  0.5775 -0.0592
  168SAPE   O1118932   2.376   2.243   6.324 -0.0891 -0.1200 -0.2603
  168SAPE    C118933   2.270   2.284   6.413  0.3832  0.2904 -0.2461
  168SAPE    HA18934   2.300   2.376   6.467  0.6268  1.0897 -1.7254
  168SAPE    HB18935   2.172   2.293   6.362  1.3021  0.3430 -2.0175
  168SAPE    C218936   2.257   2.182   6.529 -0.1942  0.2382  0.4172
  168SAPE    HS18937   2.246   2.081   6.485  2.6333  0.0241  0.0579
  168SAPE   O2118938   2.147   2.228   6.612  0.0913  0.5914 -0.0800
  168SAPE   C2118939   2.080   2.128   6.657  0.3105 -0.4280  0.1332
  168SAPE   O2218940   2.115   2.011   6.643 -0.3728  0.2396 -0.5977
  168SAPE   C2218941   1.959   2.184   6.728  0.2300 -0.2638 -0.7535
  168SAPE   H2R18942   1.992   2.284   6.766  3.0527 -0.1399 -3.3869
  168SAPE   H2S18943   1.873   2.205   6.661 -1.5415 -0.5753  1.3531
  168SAPE    C318944   2.395   2.174   6.601 -0.1440 -0.6914 -0.1376
  168SAPE    HX18945   2.448   2.272   6.598 -0.5766 -0.4512  0.1647
  168SAPE    HY18946   2.445   2.103   6.532 -1.8126 -1.9595 -0.0607
  168SAPE   O3118947   2.388   2.111   6.734 -0.3214 -0.0629 -0.1101
  168SAPE   C3118948   2.363   2.197   6.836  0.4216  0.7362 -0.2034
  168SAPE   O3218949   2.373   2.314   6.833 -0.1067  0.0144 -0.1258
  168SAPE   C3218950   2.327   2.103   6.955 -0.1670  0.0738 -0.9134
  168SAPE   H2X18951   2.395   2.015   6.960 -2.6362 -1.7682  2.7134
  168SAPE   H2Y18952   2.233   2.047   6.937  0.6736 -1.1893 -1.4658
  168SAPE   C2318953   1.904   2.106   6.847  0.6295 -0.0627  0.4432
  168SAPE   H3R18954   1.974   2.033   6.893  1.8130 -0.6701 -2.2324
  168SAPE   H3S18955   1.826   2.047   6.795  0.7076 -1.3580  1.7746
  168SAPE   C2418956   1.838   2.191   6.958 -0.2313 -0.4716  0.1719
  168SAPE   H4R18957   1.811   2.289   6.914 -0.0796  0.1268  1.4055
  168SAPE   H4S18958   1.916   2.207   7.036  1.9831 -3.0673 -1.4285
  168SAPE   C2518959   1.718   2.133   7.023 -0.2869  0.4112  0.2680
  168SAPE   H5R18960   1.679   2.047   6.966  1.8104 -0.2970 -0.1817
  168SAPE   C2618961   1.663   2.157   7.146 -0.4094 -0.7049 -0.3165
  168SAPE   H6R18962   1.571   2.108   7.178  0.4070 -3.4358 -1.9546
  168SAPE   C2718963   1.709   2.267   7.235 -0.1106  0.1927 -0.2543
  168SAPE   H7R18964   1.621   2.292   7.297  0.4498  0.4707  0.4392
  168SAPE   H7S18965   1.730   2.354   7.169  0.8655  1.9021  2.2356
  168SAPE   C2818966   1.818   2.217   7.329  0.5121  0.2139 -0.4530
  168SAPE   H8R18967   1.905   2.192   7.265 -0.6797  0.4341 -2.1902
  168SAPE   C2918968   1.823   2.189   7.461 -0.1647  0.0644 -0.0240
  168SAPE   H9R18969   1.905   2.126   7.498  0.1767 -0.0560 -0.9748
  168SAPE  C21018970   1.713   2.215   7.554  0.0179 -0.6002 -0.1023
  168SAPE  H10R18971   1.620   2.169   7.513  0.3833 -0.8320 -0.6765
  168SAPE  H10S18972   1.693   2.324   7.555  3.0604  0.0031  2.2617
  168SAPE  C21118973   1.746   2.160   7.687 -0.8379 -0.3193  0.8440
  168SAPE  H11R18974   1.768   2.052   7.683 -0.5810 -0.3042  1.7123
  168SAPE  C21218975   1.738   2.230   7.802  0.3938 -0.7303 -0.1606
  168SAPE  H12R18976   1.743   2.180   7.900  0.1161  0.0682  0.2626
  168SAPE  C21318977   1.694   2.368   7.811  0.4690  0.7495  0.5317
  168SAPE  H13R18978   1.623   2.387   7.895  0.0517 -0.3195  0.4165
  168SAPE  H13S18979   1.629   2.407   7.730 -0.9110 -0.8332  0.8515
  168SAPE  C21418980   1.806   2.465   7.828  0.4548 -0.7546  0.3337
  168SAPE  H14R18981   1.850   2.492   7.730 -0.3470 -1.3930 -0.2074
  168SAPE  C21518982   1.862   2.509   7.943 -0.0385  0.3372 -0.1498
  168SAPE  H15R18983   1.946   2.578   7.926  0.1956 -0.3749 -1.9399
  168SAPE  C21618984   1.823   2.477   8.080  0.5292 -0.0699  0.1725
  168SAPE  H16R18985   1.766   2.382   8.083  1.9531 -0.9692 -0.9731
  168SAPE  H16S18986   1.768   2.569   8.113 -1.0063 -0.7743 -0.3697
  168SAPE  C21718987   1.935   2.470   8.170  0.2697 -0.5560 -0.1914
  168SAPE  H17R18988   1.905   2.449   8.274  2.8408 -0.8932  0.5031
  168SAPE  H17S18989   1.967   2.576   8.185  0.5660 -0.7911  0.7955
  168SAPE  C21818990   2.041   2.369   8.126 -0.7757 -0.1922 -0.2522
  168SAPE  H18R18991   2.100   2.400   8.038 -0.1484 -1.8303 -0.4250
  168SAPE  H18S18992   1.979   2.282   8.093 -2.7907  1.2041 -0.2428
  168SAPE  C21918993   2.141   2.337   8.236 -0.3082 -0.4191  0.2769
  168SAPE  H19R18994   2.185   2.435   8.263 -4.1044  1.0628  1.3887
  168SAPE  H19S18995   2.217   2.263   8.203  0.8819 -0.0908  2.2162
  168SAPE  C22018996   2.084   2.290   8.370  0.8145  0.3403  0.7893
  168SAPE  H20R18997   2.018   2.362   8.424 -0.7503  1.0156 -1.9078
  168SAPE  H20S18998   2.159   2.233   8.428 -0.0948 -1.0269  0.6521
  168SAPE  H20T18999   2.012   2.208   8.350 -0.2869  1.5006 -0.1035
  168SAPE   C3319000   2.336   2.169   7.095 -0.8335 -0.4108 -0.7933
  168SAPE   H3X19001   2.244   2.221   7.128 -0.6424 -0.4558 -0.1842
  168SAPE   H3Y19002   2.418   2.243   7.086  1.2579 -2.4253  0.8443
  168SAPE   C3419003   2.368   2.074   7.212  0.1675  0.0385  0.1752
  168SAPE   H4X19004   2.404   2.137   7.297  2.2447 -0.1390 -0.5404
  168SAPE   H4Y19005   2.443   1.994   7.192 -1.8568 -2.5389  2.4440
  168SAPE   C3519006   2.240   1.996   7.268 -0.6700 -0.3746 -0.3059
  168SAPE   H5X19007   2.189   1.940   7.187 -0.1523 -1.3770  0.0482
  168SAPE   H5Y19008   2.158   2.064   7.298 -1.1252  0.1737 -2.6535
  168SAPE   C3619009   2.276   1.908   7.393 -0.0589  0.5193  0.2305
  168SAPE   H6X19010   2.309   1.979   7.472 -0.9198  2.2610 -0.9283
  168SAPE   H6Y19011   2.359   1.837   7.372 -0.5912  0.9685 -4.0019
  168SAPE   C3719012   2.150   1.821   7.441  0.2339 -0.3855  0.7948
  168SAPE   H7X19013   2.147   1.743   7.362 -0.0531  1.8427 -1.4530
  168SAPE   H7Y19014   2.057   1.880   7.455  1.1937  0.9603  1.7306
  168SAPE   C3819015   2.177   1.743   7.569 -0.0962  0.8806 -0.0694
  168SAPE   H8X19016   2.255   1.666   7.553 -2.1351 -1.2702  0.0424
  168SAPE   H8Y19017   2.086   1.687   7.600  0.1493  0.9913  0.8676
  168SAPE   C3919018   2.209   1.843   7.689  1.0878  0.0930 -0.2311
  168SAPE   H9X19019   2.128   1.917   7.676  1.4727  0.7050  0.7581
  168SAPE   H9Y19020   2.305   1.888   7.654  0.2119  1.8307 -0.4396
  168SAPE  C31019021   2.223   1.785   7.830  0.5840 -0.0908  0.9715
  168SAPE  H10X19022   2.126   1.737   7.854 -1.3696  2.6999 -1.0610
  168SAPE  H10Y19023   2.235   1.872   7.898  1.3482 -0.1455  0.9127
  168SAPE  C31119024   2.330   1.682   7.839 -0.1643 -0.0267 -0.2855
  168SAPE  H11X19025   2.426   1.729   7.807  0.3384  0.0025  1.2227
  168SAPE  H11Y19026   2.316   1.592   7.775  1.5261 -1.8018  1.7601
  168SAPE  C31219027   2.336   1.621   7.987 -0.8303  0.4603  0.0404
  168SAPE  H12X19028   2.238   1.576   8.015 -2.2390  2.4528 -1.4788
  168SAPE  H12Y19029   2.354   1.707   8.055  1.5603 -2.0151  2.6759
  168SAPE  C31319030   2.452   1.518   7.999  0.8505  1.2621  0.7490
  168SAPE  H13X19031   2.549   1.563   7.970  1.4434 -0.5199 -0.1079
  168SAPE  H13Y19032   2.420   1.445   7.922 -0.5538 -0.1059  2.5634
  168SAPE  C31419033   2.445   1.461   8.136 -0.2172 -0.0375 -0.1986
  168SAPE  H14X19034   2.523   1.382   8.143  1.7143  1.8387 -0.0135
  168SAPE  H14Y19035   2.349   1.406   8.153 -0.4261  0.7286  1.2145
  168SAPE  C31519036   2.473   1.554   8.254 -0.4983  0.2006  0.0506
  168SAPE  H15X19037   2.412   1.646   8.256  0.8218  1.2085 -2.7831
  168SAPE  H15Y19038   2.582   1.571   8.246 -0.1178 -2.6900 -1.9696
  168SAPE  C31619039   2.439   1.475   8.386 -0.2560  0.3768 -0.2105
  168SAPE  H16X19040   2.340   1.426   8.379  1.3301 -2.9276 -0.7030
  168SAPE  H16Y19041   2.438   1.541   8.475 -0.5351 -0.9799  0.8092
  168SAPE  C31719042   2.532   1.366   8.426 -0.4663 -0.3087 -0.2369
  168SAPE  H17X19043   2.570   1.307   8.339  1.9007  0.2511  0.3770
  168SAPE  H17Y19044   2.475   1.310   8.503 -0.1785  2.1912  1.8417
  168SAPE  C31819045   2.654   1.428   8.493  0.1411 -0.4548 -0.6704
  168SAPE  H18X19046   2.609   1.484   8.578 -0.2697  0.1113 -1.2596
  168SAPE  H18Y19047   2.710   1.486   8.417  0.2690  0.2989 -0.0055
  168SAPE  H18Z19048   2.728   1.349   8.521 -0.4445 -0.2176  1.6367
  169SAPE     N19049   1.098   3.913   6.437 -0.5629  0.0567 -0.0703
  169SAPE   HN119050   1.165   3.836   6.458 -0.6509 -0.0802 -0.2800
  169SAPE   HN219051   1.104   3.992   6.503  0.0875  0.4164 -0.5543
  169SAPE   HN319052   0.998   3.884   6.434 -0.3193 -0.7134 -1.9558
  169SAPE   C1219053   1.126   3.971   6.301  0.3676 -0.6280 -0.3101
  169SAPE  H12A19054   1.136   3.884   6.231  1.3364 -0.3969 -0.4692
  169SAPE  H12B19055   1.221   4.029   6.305 -1.5761  2.6073  0.5120
  169SAPE   C1119056   1.017   4.069   6.259 -0.5099  0.1468 -0.1884
  169SAPE  H11A19057   0.921   4.014   6.247 -0.7125  0.1418  1.3609
  169SAPE  H11B19058   1.039   4.106   6.156  0.1149  2.3112  0.6981
  169SAPE     P19059   0.928   4.298   6.342  0.2143 -0.1993  0.2696
  169SAPE   O1319060   1.008   4.411   6.395 -0.7426 -0.1253 -0.2120
  169SAPE   O1419061   0.882   4.310   6.198 -0.4790  0.1053  0.4349
  169SAPE   O1219062   1.013   4.171   6.360 -1.4411  0.2483  0.3713
  169SAPE   O1119063   0.800   4.273   6.440  0.2287  0.4535 -0.2331
  169SAPE    C119064   0.821   4.179   6.549 -0.3400  0.1905  0.1564
  169SAPE    HA19065   0.842   4.076   6.512  1.6980  0.7471 -0.2982
  169SAPE    HB19066   0.906   4.217   6.608  0.4367  0.8336 -1.3384
  169SAPE    C219067   0.700   4.156   6.642 -0.2633 -0.5325 -1.4694
  169SAPE    HS19068   0.601   4.149   6.591 -1.4153 -0.0078  0.6129
  169SAPE   O2119069   0.706   4.275   6.719 -0.2274 -0.3876  0.7841
  169SAPE   C2119070   0.595   4.341   6.742  0.8720  0.2354  0.2750
  169SAPE   O2219071   0.482   4.314   6.718 -0.1267  0.5364 -0.4094
  169SAPE   C2219072   0.642   4.453   6.844 -0.2616  0.2111  0.2691
  169SAPE   H2R19073   0.720   4.407   6.908 -2.4584 -1.7870  1.6401
  169SAPE   H2S19074   0.688   4.537   6.788 -0.9578 -0.4982 -1.4334
  169SAPE    C319075   0.717   4.031   6.726  0.1965 -0.2523 -0.4151
  169SAPE    HX19076   0.818   4.023   6.771  0.0935 -0.0986 -0.1524
  169SAPE    HY19077   0.704   3.941   6.661  1.9768 -1.8912  1.4329
  169SAPE   O3119078   0.613   4.027   6.827 -0.6358 -0.2018 -0.7713
  169SAPE   C3119079   0.491   3.973   6.798 -0.1697  0.4154  0.6565
  169SAPE   O3219080   0.454   3.946   6.686  0.1872 -0.0362 -0.1729
  169SAPE   C3219081   0.416   3.947   6.932 -0.6009  0.0929 -0.8751
  169SAPE   H2X19082   0.408   3.836   6.940  1.9140 -0.1684 -1.3933
  169SAPE   H2Y19083   0.311   3.981   6.919 -1.4087 -2.0136 -0.1370
  169SAPE   C2319084   0.526   4.518   6.924 -0.0414  0.2746 -0.1803
  169SAPE   H3R19085   0.463   4.444   6.977 -0.6547 -0.8519 -2.3945
  169SAPE   H3S19086   0.456   4.565   6.851  0.0594 -2.5789 -2.1772
  169SAPE   C2419087   0.573   4.631   7.008  0.7579  0.1632 -0.0280
  169SAPE   H4R19088   0.595   4.720   6.946 -1.2776  1.3663  0.9233
  169SAPE   H4S19089   0.665   4.609   7.066  0.3320  1.0978  1.0136
  169SAPE   C2519090   0.468   4.671   7.108  0.9701 -0.4170  0.2095
  169SAPE   H5R19091   0.412   4.763   7.084  2.0884  0.1946 -0.0495
  169SAPE   C2619092   0.443   4.614   7.225  0.2708  0.6508 -0.0938
  169SAPE   H6R19093   0.359   4.648   7.287 -1.6569  0.4824 -2.4991
  169SAPE   C2719094   0.513   4.488   7.278  0.1804 -0.2059 -0.1623
  169SAPE   H7R19095   0.525   4.402   7.208 -0.4532  1.3389 -2.2032
  169SAPE   H7S19096   0.440   4.449   7.353 -0.8637  1.1131 -0.4731
  169SAPE   C2819097   0.644   4.521   7.352 -0.2646 -0.4431 -0.5869
  169SAPE   H8R19098   0.731   4.536   7.287  1.3945 -3.0611  0.9400
  169SAPE   C2919099   0.662   4.555   7.482 -0.3817  0.0868 -0.3400
  169SAPE   H9R19100   0.768   4.580   7.501 -0.2683  2.6315 -3.8609
  169SAPE  C21019101   0.569   4.568   7.598  0.0895 -0.1304 -0.6111
  169SAPE  H10R19102   0.485   4.639   7.584  1.0010  0.8634 -1.0791
  169SAPE  H10S19103   0.639   4.617   7.669  0.7391 -1.2200 -0.4889
  169SAPE  C21119104   0.512   4.433   7.647 -0.4981 -0.6445  0.3021
  169SAPE  H11R19105   0.514   4.345   7.581  2.3054 -1.9029  1.9195
  169SAPE  C21219106   0.475   4.418   7.774 -0.2223  0.3274 -0.3496
  169SAPE  H12R19107   0.422   4.325   7.798 -1.0623  0.9151  0.0990
  169SAPE  C21319108   0.480   4.522   7.884 -0.0576 -0.0688  0.4489
  169SAPE  H13R19109   0.414   4.608   7.858 -1.9277 -1.4630  0.5179
  169SAPE  H13S19110   0.585   4.559   7.891  0.2503 -0.9556  0.5878
  169SAPE  C21419111   0.433   4.470   8.015  0.4663  0.7204  0.0976
  169SAPE  H14R19112   0.473   4.367   8.025 -0.4960  0.2835 -0.4639
  169SAPE  C21519113   0.367   4.536   8.115  0.0861  0.0963  0.4801
  169SAPE  H15R19114   0.352   4.491   8.215 -0.5256 -1.6392 -0.3875
  169SAPE  C21619115   0.310   4.676   8.103 -0.0455  0.1323 -0.9417
  169SAPE  H16R19116   0.258   4.673   8.005 -2.8451  2.5493  0.3783
  169SAPE  H16S19117   0.387   4.756   8.094 -1.1102  1.3823  0.7211
  169SAPE  C21719118   0.210   4.711   8.212  0.4090  0.0993  0.2194
  169SAPE  H17R19119   0.174   4.815   8.195  2.6773  1.1669  1.8322
  169SAPE  H17S19120   0.260   4.693   8.309 -0.0491  2.9641  1.0270
  169SAPE  C21819121   0.081   4.618   8.208 -0.6119 -0.3041  0.3140
  169SAPE  H18R19122   0.095   4.514   8.243  0.7646 -0.4566 -0.6355
  169SAPE  H18S19123   0.032   4.634   8.109  0.4997 -0.7999 -0.3183
  169SAPE  C21919124  -0.010   4.664   8.319  0.3720  0.1720  0.3129
  169SAPE  H19R19125   0.036   4.635   8.416  1.8475  0.2987 -0.3409
  169SAPE  H19S19126  -0.106   4.611   8.299 -0.1739  0.5322  1.8913
  169SAPE  C22019127  -0.042   4.813   8.352  0.2226 -0.2330 -0.3706
  169SAPE  H20R19128  -0.091   4.840   8.448  0.2478  3.6415 -1.3641
  169SAPE  H20S19129  -0.118   4.843   8.276  0.6767 -0.6314 -0.9865
  169SAPE  H20T19130   0.045   4.881   8.346  0.1310  0.3306  3.5512
  169SAPE   C3319131   0.471   4.025   7.049 -0.7193 -0.1453  0.4704
  169SAPE   H3X19132   0.486   4.132   7.025  1.5384  0.0899  2.6991
  169SAPE   H3Y19133   0.574   3.986   7.061 -0.9405 -1.6841 -2.2292
  169SAPE   C3419134   0.396   4.006   7.186  0.2994  0.1290 -0.1998
  169SAPE   H4X19135   0.352   3.904   7.193  1.5995 -0.5698 -1.8204
  169SAPE   H4Y19136   0.310   4.074   7.199  0.5486  0.4342 -0.1481
  169SAPE   C3519137   0.484   4.039   7.306  0.7435 -0.4578 -0.3110
  169SAPE   H5X19138   0.495   4.149   7.318 -1.0408 -0.4628  1.6819
  169SAPE   H5Y19139   0.589   4.006   7.291  0.9742 -0.2622  0.7805
  169SAPE   C3619140   0.427   3.971   7.426  0.3751  0.1774  0.1534
  169SAPE   H6X19141   0.423   3.862   7.408  1.0956  0.5149 -2.2196
  169SAPE   H6Y19142   0.326   4.009   7.452  0.4507 -0.7930  1.9468
  169SAPE   C3719143   0.503   4.012   7.554  0.5627 -0.0704 -0.6358
  169SAPE   H7X19144   0.505   4.123   7.565  0.3830 -0.1133 -0.1832
  169SAPE   H7Y19145   0.610   3.984   7.543 -0.3345 -3.8203 -0.3066
  169SAPE   C3819146   0.441   3.955   7.684 -0.0222 -0.1638 -0.0196
  169SAPE   H8X19147   0.414   3.848   7.671  0.9299 -0.6734  1.9190
  169SAPE   H8Y19148   0.348   4.012   7.706 -0.2756 -0.3418 -0.6294
  169SAPE   C3919149   0.534   3.950   7.806 -1.1805 -0.2957  0.0661
  169SAPE   H9X19150   0.580   4.047   7.834 -0.4866 -0.2653 -1.1549
  169SAPE   H9Y19151   0.613   3.873   7.796 -1.1461 -0.1710 -0.6145
  169SAPE  C31019152   0.444   3.904   7.924 -0.4672 -0.2147  0.2171
  169SAPE  H10X19153   0.420   3.800   7.895  1.0165 -1.1975  2.3395
  169SAPE  H10Y19154   0.353   3.968   7.925 -1.9123 -2.2149  2.3559
  169SAPE  C31119155   0.514   3.903   8.061  0.6579  0.1302 -0.0225
  169SAPE  H11X19156   0.552   4.004   8.086  2.4251 -0.4599 -0.3090
  169SAPE  H11Y19157   0.597   3.832   8.039 -0.3941 -0.9416 -0.6191
  169SAPE  C31219158   0.433   3.842   8.172  0.1033  0.1578  0.3241
  169SAPE  H12X19159   0.403   3.736   8.153 -0.2825  0.0683  1.3743
  169SAPE  H12Y19160   0.337   3.894   8.190  0.0286  0.1067  0.0789
  169SAPE  C31319161   0.516   3.824   8.309 -0.5799 -0.4808 -0.3710
  169SAPE  H13X19162   0.600   3.754   8.293 -1.4894 -1.6654 -0.0793
  169SAPE  H13Y19163   0.448   3.778   8.384 -0.2848 -0.5570 -0.1494
  169SAPE  C31419164   0.574   3.945   8.365 -0.1396 -0.5045 -0.4275
  169SAPE  H14X19165   0.661   3.986   8.308 -1.3801  2.7633 -0.0839
  169SAPE  H14Y19166   0.618   3.920   8.464  0.9764 -0.7750 -0.9771
  169SAPE  C31519167   0.473   4.057   8.402  0.2755 -0.0194  0.4933
  169SAPE  H15X19168   0.410   4.091   8.317 -0.9267  0.0818  1.4130
  169SAPE  H15Y19169   0.537   4.142   8.435  0.5992  0.9091 -2.3741
  169SAPE  C31619170   0.377   4.022   8.518  0.0062 -0.1347  0.2056
  169SAPE  H16X19171   0.320   3.930   8.491  1.2213 -0.6507 -0.6263
  169SAPE  H16Y19172   0.299   4.101   8.518  3.3810  3.3256  1.0757
  169SAPE  C31719173   0.439   4.011   8.659 -0.9348  0.4545 -0.6061
  169SAPE  H17X19174   0.501   4.102   8.676  0.5445 -0.7743  0.6956
  169SAPE  H17Y19175   0.506   3.923   8.670  2.7289  2.9871 -1.5786
  169SAPE  C31819176   0.336   4.021   8.780 -0.5997 -0.4842  0.5637
  169SAPE  H18X19177   0.273   3.930   8.787  0.9609 -1.7156 -1.0579
  169SAPE  H18Y19178   0.270   4.109   8.765  1.2340  1.2671  2.4640
  169SAPE  H18Z19179   0.380   4.039   8.880 -0.0067  1.0683  0.0382
  170SAPE     N19180   2.140   0.659   6.198  0.4138  0.3306 -0.3666
  170SAPE   HN119181   2.119   0.558   6.180  1.6291 -0.1432  0.8569
  170SAPE   HN219182   2.232   0.667   6.245 -0.5543 -0.0819  1.6127
  170SAPE   HN319183   2.070   0.687   6.269  3.2491  1.3594  2.1340
  170SAPE   C1219184   2.142   0.743   6.072 -0.2273 -0.3244 -0.4914
  170SAPE  H12A19185   2.047   0.800   6.064  1.1103  2.2288  1.2833
  170SAPE  H12B19186   2.150   0.682   5.979  0.0626 -0.5601 -0.3102
  170SAPE   C1119187   2.262   0.828   6.068  0.2055 -0.5336 -0.4011
  170SAPE  H11A19188   2.280   0.885   5.974  0.6349 -1.5510 -0.9447
  170SAPE  H11B19189   2.344   0.754   6.069  1.2568  0.6059 -0.7208
  170SAPE     P19190   2.240   1.063   6.182 -0.5208 -0.1815 -0.2241
  170SAPE   O1319191   2.366   1.140   6.190  0.4536 -0.7566 -0.2916
  170SAPE   O1419192   2.156   1.086   6.060  0.2598 -0.1103  0.6796
  170SAPE   O1219193   2.261   0.906   6.191 -0.1866  0.0422  0.1065
  170SAPE   O1119194   2.149   1.094   6.303 -0.3362  0.6758 -0.0089
  170SAPE    C119195   2.138   0.993   6.409 -1.0343 -0.0001  0.0151
  170SAPE    HA19196   2.055   0.923   6.388  0.6792 -2.7477  2.0367
  170SAPE    HB19197   2.232   0.937   6.431 -1.6969 -1.8106 -1.6204
  170SAPE    C219198   2.107   1.067   6.543 -0.9017 -0.3276  0.0724
  170SAPE    HS19199   2.028   1.144   6.526  0.4902  1.0815 -0.1752
  170SAPE   O2119200   2.227   1.124   6.597 -0.3685 -0.4306 -0.5008
  170SAPE   C2119201   2.258   1.243   6.561 -0.3979  0.0296  0.3365
  170SAPE   O2219202   2.190   1.319   6.489 -0.1963 -0.0230  0.4246
  170SAPE   C2219203   2.390   1.276   6.624 -0.4358  0.1818 -0.0875
  170SAPE   H2R19204   2.403   1.221   6.720  1.4580  0.6846 -0.0253
  170SAPE   H2S19205   2.475   1.257   6.554 -0.2148 -1.1671  0.5335
  170SAPE    C319206   2.072   0.961   6.651 -0.1910 -0.0336  0.1176
  170SAPE    HX19207   2.064   1.023   6.743  1.7535  3.6548 -2.1096
  170SAPE    HY19208   2.157   0.892   6.671  0.3997  0.8608  0.6988
  170SAPE   O3119209   1.952   0.885   6.620  0.2961 -0.2283 -0.4795
  170SAPE   C3119210   1.840   0.954   6.645 -0.4332 -0.0274 -0.7964
  170SAPE   O3219211   1.836   1.080   6.651  0.1459 -0.4231 -0.1721
  170SAPE   C3219212   1.713   0.857   6.645 -0.4701 -0.4669 -0.2749
  170SAPE   H2X19213   1.750   0.752   6.641  0.0713 -0.3505  1.2538
  170SAPE   H2Y19214   1.660   0.880   6.550 -1.0455  3.3417  0.8933
  170SAPE   C2319215   2.412   1.421   6.662 -0.2360  0.6991  0.0423
  170SAPE   H3R19216   2.360   1.497   6.599 -0.8773  0.0249 -0.2439
  170SAPE   H3S19217   2.521   1.431   6.640 -0.1012  1.5576  1.0479
  170SAPE   C2419218   2.380   1.450   6.814 -0.6126 -0.2026  0.4638
  170SAPE   H4R19219   2.446   1.383   6.872  0.4891  0.2620 -0.2370
  170SAPE   H4S19220   2.273   1.425   6.833 -0.3984 -0.6328  1.1152
  170SAPE   C2519221   2.418   1.588   6.850 -0.5323 -0.4486  0.3616
  170SAPE   H5R19222   2.526   1.600   6.871 -0.6762 -0.9584  1.4198
  170SAPE   C2619223   2.342   1.697   6.885  0.1647  0.5194  0.7037
  170SAPE   H6R19224   2.390   1.793   6.909  0.4459  0.1015  1.8353
  170SAPE   C2719225   2.190   1.712   6.887 -1.3109  0.0550  0.5684
  170SAPE   H7R19226   2.140   1.638   6.821 -0.6780 -0.0840  0.2382
  170SAPE   H7S19227   2.155   1.812   6.853 -2.8099 -1.2484 -1.8268
  170SAPE   C2819228   2.142   1.680   7.024 -0.5498  0.0858 -0.1420
  170SAPE   H8R19229   2.209   1.619   7.086 -1.0223 -0.3720 -0.0828
  170SAPE   C2919230   2.032   1.724   7.086  0.6051  0.1956 -1.1863
  170SAPE   H9R19231   2.004   1.690   7.187 -1.1464  1.3844 -1.2589
  170SAPE  C21019232   1.921   1.803   7.020 -0.2340  0.1960 -0.3894
  170SAPE  H10R19233   1.947   1.811   6.913 -0.6090 -0.3774 -0.5282
  170SAPE  H10S19234   1.920   1.908   7.057  2.6105  1.8487 -4.6414
  170SAPE  C21119235   1.785   1.738   7.035 -0.0243 -0.3199  0.0027
  170SAPE  H11R19236   1.737   1.709   6.940 -2.8639  0.3189  1.1888
  170SAPE  C21219237   1.718   1.711   7.149  0.4898 -0.4634  1.1198
  170SAPE  H12R19238   1.623   1.656   7.148  0.2212  0.0147 -0.4691
  170SAPE  C21319239   1.773   1.746   7.291 -0.4122  0.1045 -0.7160
  170SAPE  H13R19240   1.838   1.835   7.283  0.8618 -0.9012 -1.8497
  170SAPE  H13S19241   1.844   1.668   7.326  0.1292  1.0895  0.4119
  170SAPE  C21419242   1.674   1.797   7.393  0.0054 -0.2495 -0.2487
  170SAPE  H14R19243   1.601   1.871   7.357 -2.7545 -2.9805 -0.4779
  170SAPE  C21519244   1.658   1.762   7.517  0.3614  0.3016  0.7735
  170SAPE  H15R19245   1.592   1.827   7.577 -0.7893 -1.7166  1.7862
  170SAPE  C21619246   1.737   1.661   7.595 -0.1890 -0.5124 -0.1011
  170SAPE  H16R19247   1.811   1.607   7.532 -0.3526  0.8135 -1.4512
  170SAPE  H16S19248   1.670   1.583   7.637 -1.3411  0.9720  0.8620
  170SAPE  C21719249   1.817   1.720   7.715  0.4240 -0.1268  0.5109
  170SAPE  H17R19250   1.891   1.793   7.675 -1.3798  1.8218  0.6459
  170SAPE  H17S19251   1.873   1.645   7.775 -0.1207 -1.9740 -1.2504
  170SAPE  C21819252   1.739   1.798   7.829 -0.1322  0.4205  1.2508
  170SAPE  H18R19253   1.663   1.733   7.877 -0.2608  1.5976  2.6795
  170SAPE  H18S19254   1.683   1.885   7.790  1.5056  0.7342 -0.5186
  170SAPE  C21919255   1.822   1.860   7.935  0.1463 -0.2897 -0.0141
  170SAPE  H19R19256   1.762   1.930   7.997  0.4501 -0.0837  0.0432
  170SAPE  H19S19257   1.915   1.907   7.897 -0.1454 -0.7495 -1.3359
  170SAPE  C22019258   1.860   1.752   8.041  0.1987 -0.5707  0.2886
  170SAPE  H20R19259   1.929   1.677   7.995  0.1679 -0.7631  0.5595
  170SAPE  H20S19260   1.767   1.705   8.078  1.2614 -1.0533  2.3960
  170SAPE  H20T19261   1.917   1.785   8.130 -0.7759 -0.9679  1.0646
  170SAPE   C3319262   1.629   0.884   6.770 -0.1881 -0.1314 -0.1604
  170SAPE   H3X19263   1.532   0.830   6.780 -0.7452  0.6650 -1.2340
  170SAPE   H3Y19264   1.602   0.991   6.767 -0.8790 -0.2296  1.5192
  170SAPE   C3419265   1.702   0.848   6.893 -0.0862  0.1722  0.0418
  170SAPE   H4X19266   1.791   0.909   6.921  1.8888 -1.5050 -2.3722
  170SAPE   H4Y19267   1.739   0.743   6.892  1.0306  0.4741  3.2009
  170SAPE   C3519268   1.607   0.849   7.015  0.1337  0.4440 -0.1336
  170SAPE   H5X19269   1.513   0.796   6.990  0.0834  0.1107  0.7445
  170SAPE   H5Y19270   1.576   0.955   7.030  1.4736  0.8675 -0.2698
  170SAPE   C3619271   1.662   0.773   7.139  0.1880  0.6306  0.1475
  170SAPE   H6X19272   1.769   0.801   7.146  0.3068 -0.2638  2.3175
  170SAPE   H6Y19273   1.666   0.662   7.128  2.9628  0.7205 -0.0495
  170SAPE   C3719274   1.590   0.816   7.268  0.6112  0.6853 -0.2241
  170SAPE   H7X19275   1.484   0.787   7.246  0.0245  2.7600 -0.2138
  170SAPE   H7Y19276   1.597   0.927   7.262 -0.9799  1.0247  3.2854
  170SAPE   C3819277   1.653   0.768   7.398 -0.0493  0.5364  0.4632
  170SAPE   H8X19278   1.760   0.796   7.392  0.1224 -0.5717 -2.2301
  170SAPE   H8Y19279   1.660   0.657   7.395  0.7455  0.6224 -1.6706
  170SAPE   C3919280   1.587   0.822   7.520 -0.1302  0.6129  0.4927
  170SAPE   H9X19281   1.615   0.773   7.616  2.0243 -0.8306 -0.8318
  170SAPE   H9Y19282   1.476   0.811   7.515 -0.1981 -0.0784  2.7599
  170SAPE  C31019283   1.617   0.972   7.536 -0.2942  0.5548  0.7364
  170SAPE  H10X19284   1.595   1.031   7.444  0.0371  1.4173  1.2030
  170SAPE  H10Y19285   1.725   0.993   7.557 -0.3839  0.1518  1.6136
  170SAPE  C31119286   1.523   1.041   7.633  0.6786  0.0211 -0.2240
  170SAPE  H11X19287   1.418   1.008   7.617  0.1978  1.1611  0.4597
  170SAPE  H11Y19288   1.523   1.151   7.617  1.1492  0.3249  1.6864
  170SAPE  C31219289   1.565   1.028   7.777  0.3106  0.5266 -0.3725
  170SAPE  H12X19290   1.675   1.036   7.788  0.7190 -4.6705  0.7622
  170SAPE  H12Y19291   1.545   0.922   7.806 -1.5514  1.4468  1.9204
  170SAPE  C31319292   1.502   1.130   7.868 -0.4852  0.9118 -0.2918
  170SAPE  H13X19293   1.400   1.145   7.826 -1.2840  0.6739  1.4761
  170SAPE  H13Y19294   1.557   1.227   7.873  0.8142  0.1512  0.3606
  170SAPE  C31419295   1.493   1.085   8.013  0.1916  0.2874  0.9382
  170SAPE  H14X19296   1.595   1.070   8.053  1.1230  0.1551 -1.4311
  170SAPE  H14Y19297   1.440   0.988   8.018 -1.4482  1.1669  1.1122
  170SAPE  C31519298   1.412   1.182   8.100 -0.4730  0.2038 -0.1613
  170SAPE  H15X19299   1.351   1.249   8.035 -0.6211 -0.1827 -0.4194
  170SAPE  H15Y19300   1.484   1.238   8.164  1.1158 -1.6675 -0.2643
  170SAPE  C31619301   1.309   1.106   8.185 -1.2034  0.0145  0.0876
  170SAPE  H16X19302   1.362   1.035   8.252 -2.5581 -1.4028 -0.2831
  170SAPE  H16Y19303   1.235   1.054   8.120 -1.3178 -0.9384  0.9746
  170SAPE  C31719304   1.232   1.197   8.283  0.2114  0.3078 -0.7869
  170SAPE  H17X19305   1.308   1.245   8.349 -0.0321  2.3377 -1.9628
  170SAPE  H17Y19306   1.167   1.133   8.346  0.0851  0.4498 -0.7742
  170SAPE  C31819307   1.153   1.311   8.219 -0.1258 -0.7769  0.5972
  170SAPE  H18X19308   1.072   1.268   8.156  2.1991 -4.8978  0.2510
  170SAPE  H18Y19309   1.213   1.374   8.150  0.1209  0.5121  1.9417
  170SAPE  H18Z19310   1.101   1.374   8.295  2.2153  1.6061  0.3116
  171SAPE     N19311   2.733   2.086   6.294 -0.6440  0.2067 -0.2681
  171SAPE   HN119312   2.670   2.141   6.233  0.3660  2.0360  0.3014
  171SAPE   HN219313   2.721   1.988   6.262 -0.3560 -0.0581  0.4207
  171SAPE   HN319314   2.696   2.081   6.391 -1.5293  0.8313 -0.5681
  171SAPE   C1219315   2.877   2.138   6.302  0.0240 -0.4994  0.0049
  171SAPE  H12A19316   2.931   2.097   6.214 -1.0649 -3.2493  0.5733
  171SAPE  H12B19317   2.931   2.088   6.385  0.3420 -1.5783 -0.8443
  171SAPE   C1119318   2.876   2.292   6.318  0.5808 -0.7350  0.5794
  171SAPE  H11A19319   2.814   2.321   6.406  0.4764 -3.0487  1.3155
  171SAPE  H11B19320   2.826   2.339   6.231  1.6139 -1.5132 -0.4442
  171SAPE     P19321   3.043   2.490   6.378 -0.2571  0.0857  0.2648
  171SAPE   O1319322   3.147   2.544   6.289 -0.3038  0.4019  0.1678
  171SAPE   O1419323   2.915   2.557   6.382 -0.5961 -0.8029 -0.3049
  171SAPE   O1219324   3.007   2.332   6.341  0.3804  0.2869  0.0340
  171SAPE   O1119325   3.109   2.489   6.520  0.0423 -0.5766 -0.0563
  171SAPE    C119326   3.125   2.368   6.591  0.3360 -0.0386  0.0180
  171SAPE    HA19327   3.030   2.317   6.615 -0.1457  0.7986 -0.1144
  171SAPE    HB19328   3.180   2.287   6.539  2.7766  0.0747  2.2615
  171SAPE    C219329   3.212   2.396   6.713 -0.1758  0.0206  0.4294
  171SAPE    HS19330   3.213   2.297   6.764 -1.1980 -0.0953  0.2398
  171SAPE   O2119331   3.150   2.496   6.804 -0.1447  0.2537  0.4431
  171SAPE   C2119332   3.047   2.462   6.868 -0.1902 -0.0652 -0.4001
  171SAPE   O2219333   2.999   2.349   6.883  0.4103  0.1881  0.1723
  171SAPE   C2219334   2.991   2.591   6.935 -0.3859 -0.1090 -0.1957
  171SAPE   H2R19335   3.083   2.652   6.946 -1.7655  2.3797 -1.9307
  171SAPE   H2S19336   2.934   2.627   6.846  0.7726  0.4109 -0.7412
  171SAPE    C319337   3.350   2.441   6.672  0.0064 -0.3412  0.1730
  171SAPE    HX19338   3.350   2.542   6.627  0.7488 -1.7877 -3.2067
  171SAPE    HY19339   3.387   2.373   6.593  1.3944 -0.2789  0.7539
  171SAPE   O3119340   3.444   2.438   6.778  0.4936  0.1935  0.4373
  171SAPE   C3119341   3.553   2.367   6.778 -0.5201  0.7015 -0.1550
  171SAPE   O3219342   3.593   2.282   6.697 -0.6187 -0.5316 -0.0860
  171SAPE   C3219343   3.630   2.397   6.906 -0.1268  0.0714  0.0656
  171SAPE   H2X19344   3.617   2.506   6.917 -0.3823  0.1374 -0.9160
  171SAPE   H2Y19345   3.737   2.366   6.899 -0.5616 -1.3913 -0.1933
  171SAPE   C2319346   2.906   2.572   7.069 -0.2230 -0.4487  0.2455
  171SAPE   H3R19347   2.908   2.668   7.125 -0.6803 -0.8624  0.9723
  171SAPE   H3S19348   2.959   2.509   7.143 -1.0116  0.0843  1.2687
  171SAPE   C2419349   2.762   2.527   7.043  0.5093  0.2275 -0.5169
  171SAPE   H4R19350   2.707   2.500   7.136 -1.0352  0.6242 -1.2859
  171SAPE   H4S19351   2.760   2.428   6.991 -0.7675 -0.3688  0.6283
  171SAPE   C2519352   2.688   2.634   6.966 -0.5557 -0.4550  0.0958
  171SAPE   H5R19353   2.675   2.608   6.860 -0.3234  0.5515 -0.1846
  171SAPE   C2619354   2.638   2.746   7.014 -0.2906  0.1697  0.0175
  171SAPE   H6R19355   2.585   2.817   6.949  1.8788  0.7619 -1.1293
  171SAPE   C2719356   2.634   2.802   7.154 -0.1069  0.1004 -0.5506
  171SAPE   H7R19357   2.714   2.875   7.177 -0.2759  0.7334 -1.8730
  171SAPE   H7S19358   2.657   2.711   7.213  0.9916  1.0595  0.5065
  171SAPE   C2819359   2.503   2.867   7.195 -0.4504  0.0908  0.2329
  171SAPE   H8R19360   2.420   2.863   7.123 -0.1988 -2.2668  0.0260
  171SAPE   C2919361   2.491   2.938   7.311 -0.5330  0.4198  0.6548
  171SAPE   H9R19362   2.393   2.982   7.333 -1.2449  0.5468 -2.5201
  171SAPE  C21019363   2.585   2.965   7.429  0.1130  0.0405 -0.3353
  171SAPE  H10R19364   2.563   3.070   7.457 -3.8941 -0.1658 -2.3041
  171SAPE  H10S19365   2.686   2.972   7.385 -0.5841  2.3874 -1.6317
  171SAPE  C21119366   2.562   2.862   7.540 -0.0387  0.3841 -0.4016
  171SAPE  H11R19367   2.462   2.865   7.585  0.2354  0.9969  0.1860
  171SAPE  C21219368   2.648   2.772   7.586  0.0648 -0.0616 -0.4980
  171SAPE  H12R19369   2.603   2.712   7.666 -1.8470  1.0489 -0.7294
  171SAPE  C21319370   2.793   2.758   7.553  0.3333  0.0112  0.2942
  171SAPE  H13R19371   2.857   2.749   7.643 -2.4350  1.7890  2.5088
  171SAPE  H13S19372   2.831   2.850   7.503 -0.2267 -0.6506 -1.3987
  171SAPE  C21419373   2.812   2.640   7.464 -0.6999  0.7324  0.0362
  171SAPE  H14R19374   2.746   2.634   7.377 -0.1878 -1.0791 -0.2415
  171SAPE  C21519375   2.903   2.539   7.465  0.1602  0.2135  0.0616
  171SAPE  H15R19376   2.895   2.461   7.388  1.9263  0.8679 -0.7986
  171SAPE  C21619377   3.012   2.518   7.560 -0.0490 -0.2917  0.4819
  171SAPE  H16R19378   3.081   2.605   7.568 -1.8263  0.9964  2.2167
  171SAPE  H16S19379   3.082   2.435   7.536  0.4182 -0.1167  1.2245
  171SAPE  C21719380   2.953   2.494   7.709 -0.1712 -0.8771 -0.3867
  171SAPE  H17R19381   2.916   2.390   7.725  1.4899 -1.1987  1.5290
  171SAPE  H17S19382   2.871   2.563   7.739 -1.5836 -1.7071 -2.1777
  171SAPE  C21819383   3.057   2.518   7.816 -0.1544 -0.4270 -0.3116
  171SAPE  H18R19384   3.084   2.625   7.833 -1.8690 -0.1096  0.5205
  171SAPE  H18S19385   3.159   2.484   7.787 -0.0419  1.3214 -2.0713
  171SAPE  C21919386   3.020   2.436   7.937  0.1656  0.6642  0.5460
  171SAPE  H19R19387   3.112   2.439   8.000  0.1179  1.2685  0.5861
  171SAPE  H19S19388   2.985   2.333   7.913  1.0677  0.1265  1.4722
  171SAPE  C22019389   2.911   2.494   8.024 -0.0097 -0.2371  1.0116
  171SAPE  H20R19390   2.810   2.492   7.977  0.9078  2.7828 -1.2165
  171SAPE  H20S19391   2.934   2.594   8.066 -4.0267  1.1183  0.1471
  171SAPE  H20T19392   2.899   2.420   8.106  0.9901 -0.1391  1.2516
  171SAPE   C3319393   3.579   2.307   7.023 -0.1607 -0.0530 -0.0377
  171SAPE   H3X19394   3.601   2.202   6.993 -0.2652 -0.4397  1.2158
  171SAPE   H3Y19395   3.468   2.298   7.035 -0.1548 -0.3343 -0.1863
  171SAPE   C3419396   3.649   2.327   7.157  0.2866 -0.4112 -0.4666
  171SAPE   H4X19397   3.639   2.436   7.175 -1.6614 -0.6536  0.0376
  171SAPE   H4Y19398   3.753   2.290   7.141 -0.1535 -1.6404 -0.4929
  171SAPE   C3519399   3.572   2.266   7.270  0.1389 -0.7314  0.1930
  171SAPE   H5X19400   3.576   2.155   7.269 -1.2998 -0.7794 -1.2857
  171SAPE   H5Y19401   3.466   2.298   7.264  0.5863  0.7043 -0.2206
  171SAPE   C3619402   3.621   2.327   7.404  0.0819 -0.3046 -0.4449
  171SAPE   H6X19403   3.587   2.432   7.416 -2.2800 -1.1666  0.6969
  171SAPE   H6Y19404   3.731   2.330   7.391  0.2520 -1.7722  0.5186
  171SAPE   C3719405   3.582   2.251   7.531 -0.1089 -0.1599  0.3541
  171SAPE   H7X19406   3.625   2.308   7.616  1.3539 -1.0934  0.2457
  171SAPE   H7Y19407   3.624   2.150   7.515 -1.1551 -0.9625  2.4981
  171SAPE   C3819408   3.424   2.240   7.545  0.1775  0.5369 -0.4937
  171SAPE   H8X19409   3.375   2.214   7.449 -1.1921 -0.9139  0.5725
  171SAPE   H8Y19410   3.379   2.334   7.582  0.5881  0.7895 -0.6298
  171SAPE   C3919411   3.392   2.127   7.650  0.1134  0.1530 -0.6329
  171SAPE   H9X19412   3.453   2.131   7.742 -0.5811  2.1094 -0.2470
  171SAPE   H9Y19413   3.414   2.029   7.602  0.1068 -0.6483  0.9579
  171SAPE  C31019414   3.250   2.145   7.701 -0.2710  0.4929  0.1163
  171SAPE  H10X19415   3.172   2.153   7.623 -1.5143 -2.6535  0.9885
  171SAPE  H10Y19416   3.250   2.249   7.740  1.7929  1.3629 -2.0460
  171SAPE  C31119417   3.211   2.028   7.785  0.5869  0.7322 -0.2208
  171SAPE  H11X19418   3.265   1.937   7.752  0.8454  0.4236  1.0182
  171SAPE  H11Y19419   3.104   2.000   7.781  1.0812 -1.4024  0.7022
  171SAPE  C31219420   3.256   2.038   7.931 -0.1834  0.6883  0.7039
  171SAPE  H12X19421   3.361   2.072   7.936 -0.2838  0.9850  0.7699
  171SAPE  H12Y19422   3.258   1.933   7.968  1.3741  0.0557 -1.0974
  171SAPE  C31319423   3.161   2.102   8.031 -0.5909  0.1536 -0.4744
  171SAPE  H13X19424   3.053   2.090   8.006 -0.8473  0.6167  0.4321
  171SAPE  H13Y19425   3.178   2.210   8.013  1.0203 -0.2238 -1.3361
  171SAPE  C31419426   3.198   2.063   8.176  0.0973  0.0240  0.3083
  171SAPE  H14X19427   3.308   2.078   8.181  0.0005  0.5278  0.9454
  171SAPE  H14Y19428   3.194   1.953   8.191 -2.2118  0.2161  1.3442
  171SAPE  C31519429   3.110   2.126   8.284 -0.2129  0.1366  0.0288
  171SAPE  H15X19430   3.006   2.120   8.243 -1.0224 -0.3277  2.0794
  171SAPE  H15Y19431   3.146   2.230   8.298  1.1372 -0.0419 -1.9217
  171SAPE  C31619432   3.095   2.051   8.415  0.4304  0.1378 -0.3459
  171SAPE  H16X19433   3.199   2.025   8.445  0.2705  0.2306  0.3016
  171SAPE  H16Y19434   3.032   1.960   8.404  0.4191  0.2052 -0.8566
  171SAPE  C31719435   3.017   2.125   8.530  0.3075 -0.2625 -0.0305
  171SAPE  H17X19436   2.915   2.151   8.494 -0.4714 -1.6890  1.0619
  171SAPE  H17Y19437   3.074   2.219   8.546 -0.9679  0.8360 -1.7847
  171SAPE  C31819438   3.016   2.054   8.667 -0.3344 -0.5382 -0.3314
  171SAPE  H18X19439   2.981   2.134   8.736 -1.2289 -0.6699 -0.6220
  171SAPE  H18Y19440   3.117   2.016   8.693 -1.0560 -2.4509 -0.2593
  171SAPE  H18Z19441   2.936   1.977   8.675 -1.8001  1.0600  0.9819
  172SAPE     N19442   2.961   0.749   5.858 -0.5746 -0.2048 -0.5073
  172SAPE   HN119443   2.913   0.657   5.859 -0.5498 -0.2135  0.4724
  172SAPE   HN219444   2.889   0.819   5.886 -1.6863 -0.7630 -1.9586
  172SAPE   HN319445   3.002   0.764   5.764  0.1483 -1.9205 -0.4793
  172SAPE   C1219446   3.073   0.749   5.954  0.5536 -1.3929 -0.8298
  172SAPE  H12A19447   3.150   0.674   5.923  1.4570 -0.9983  0.4124
  172SAPE  H12B19448   3.021   0.706   6.043  1.1506 -0.0701  0.1625
  172SAPE   C1119449   3.133   0.887   5.977 -0.7586  0.6390 -0.7421
  172SAPE  H11A19450   3.049   0.957   5.997 -0.3736  0.6939  0.7368
  172SAPE  H11B19451   3.188   0.923   5.887 -0.1536 -0.1517 -0.6948
  172SAPE     P19452   3.289   1.031   6.124  0.0595  0.5618 -0.2183
  172SAPE   O1319453   3.376   1.010   6.241 -0.1084 -0.1293  0.1602
  172SAPE   O1419454   3.353   1.090   6.006 -0.1578 -0.8362  0.2191
  172SAPE   O1219455   3.219   0.895   6.087  0.1176 -0.4543  0.0016
  172SAPE   O1119456   3.159   1.114   6.166  0.3090  0.5487  0.9827
  172SAPE    C119457   3.055   1.049   6.246 -0.7763 -0.6528 -0.1441
  172SAPE    HA19458   2.960   1.069   6.192  0.3010  2.6758 -0.9098
  172SAPE    HB19459   3.076   0.942   6.267 -0.3016 -0.4169  0.5917
  172SAPE    C219460   3.048   1.124   6.388  0.3435  0.7310 -0.5067
  172SAPE    HS19461   3.070   1.232   6.374 -0.3870  0.8091 -1.1415
  172SAPE   O2119462   3.142   1.068   6.482  0.2553  0.3451 -0.6121
  172SAPE   C2119463   3.167   1.128   6.591 -0.2553 -0.2091  0.1845
  172SAPE   O2219464   3.153   1.247   6.613  0.1947 -0.2466 -0.0511
  172SAPE   C2219465   3.202   1.024   6.698 -0.6009  0.1744  1.1153
  172SAPE   H2R19466   3.256   0.950   6.636 -0.4612  0.0696  1.3586
  172SAPE   H2S19467   3.267   1.059   6.781  0.3301 -0.4081  0.6467
  172SAPE    C319468   2.902   1.111   6.448 -0.4920 -0.1984  0.2236
  172SAPE    HX19469   2.842   1.180   6.385 -0.3377 -0.0460  0.2418
  172SAPE    HY19470   2.895   1.152   6.551 -1.1434  1.0714 -0.3197
  172SAPE   O3119471   2.846   0.976   6.444 -0.1345  0.3380  0.2550
  172SAPE   C3119472   2.715   0.978   6.488 -1.0086  0.1793 -0.1713
  172SAPE   O3219473   2.653   1.079   6.504 -0.2546 -0.7197 -0.1974
  172SAPE   C3219474   2.681   0.837   6.535  0.4617 -0.2492 -0.4771
  172SAPE   H2X19475   2.769   0.797   6.590  1.0830 -0.4209 -1.5860
  172SAPE   H2Y19476   2.674   0.769   6.448 -0.9838 -0.2275 -0.3901
  172SAPE   C2319477   3.072   0.953   6.746 -0.9613 -0.3812 -0.0646
  172SAPE   H3R19478   3.111   0.849   6.758  1.2655  0.1624 -2.3418
  172SAPE   H3S19479   2.991   0.939   6.671 -0.7014 -2.3647 -0.0072
  172SAPE   C2419480   3.017   1.008   6.878  0.0539 -0.2783  0.7238
  172SAPE   H4R19481   2.979   1.111   6.864  1.8962  0.2719 -0.4908
  172SAPE   H4S19482   3.096   1.004   6.956 -0.6799  0.6373  1.5129
  172SAPE   C2519483   2.902   0.913   6.910  0.2014  0.5885 -0.5804
  172SAPE   H5R19484   2.824   0.918   6.833 -0.1357  2.4390 -0.1537
  172SAPE   C2619485   2.890   0.820   7.009  0.5602  0.1316 -0.3305
  172SAPE   H6R19486   2.801   0.756   7.003  1.2365 -1.1553  2.5223
  172SAPE   C2719487   2.987   0.795   7.127  0.2219 -0.0332  0.4307
  172SAPE   H7R19488   3.087   0.772   7.085  0.3282  0.2062  0.5524
  172SAPE   H7S19489   2.946   0.707   7.180 -1.1476  0.1024 -0.3856
  172SAPE   C2819490   2.988   0.917   7.221  0.3948  1.5187  0.1462
  172SAPE   H8R19491   2.993   1.015   7.171  1.1140  1.2402 -0.3269
  172SAPE   C2919492   2.995   0.911   7.355 -0.0909 -0.4758  1.1232
  172SAPE   H9R19493   2.995   1.007   7.407 -3.0782  0.3507 -0.2803
  172SAPE  C21019494   2.995   0.799   7.453 -0.8588 -0.0444  0.6314
  172SAPE  H10R19495   3.088   0.792   7.513  0.4679 -1.5087 -1.5316
  172SAPE  H10S19496   2.994   0.701   7.400 -2.5598  1.0412 -1.4130
  172SAPE  C21119497   2.880   0.797   7.546 -0.2428 -0.0780  0.3797
  172SAPE  H11R19498   2.785   0.844   7.515 -0.2796  0.7003  1.6002
  172SAPE  C21219499   2.886   0.753   7.674 -0.3315  0.1429 -0.2458
  172SAPE  H12R19500   2.800   0.782   7.736  1.7092  1.9711  1.8407
  172SAPE  C21319501   2.996   0.698   7.757 -0.5210  0.0251 -0.4992
  172SAPE  H13R19502   3.090   0.739   7.715  0.7479 -1.5637  0.7617
  172SAPE  H13S19503   2.998   0.587   7.751 -2.1294 -0.1695  1.8638
  172SAPE  C21419504   2.992   0.733   7.909  0.1518 -1.1300 -0.6488
  172SAPE  H14R19505   2.949   0.832   7.930  3.7382  0.1653  1.0672
  172SAPE  C21519506   3.050   0.670   8.009  0.8008 -1.1999  0.2615
  172SAPE  H15R19507   3.028   0.703   8.111 -1.0475 -0.8514 -0.2382
  172SAPE  C21619508   3.126   0.542   8.005  0.7097 -0.1351  0.2420
  172SAPE  H16R19509   3.235   0.546   8.023  1.0084  0.9169 -1.6587
  172SAPE  H16S19510   3.116   0.501   7.903  1.8603 -1.1043  0.5162
  172SAPE  C21719511   3.069   0.445   8.105 -0.1635 -0.0339 -0.3075
  172SAPE  H17R19512   3.091   0.338   8.087 -1.5371 -0.5653  1.0169
  172SAPE  H17S19513   2.961   0.462   8.084 -0.0543  1.9127  0.5642
  172SAPE  C21819514   3.112   0.486   8.248  0.0472 -0.2489  0.9124
  172SAPE  H18R19515   3.091   0.593   8.269  0.2295 -0.0123 -0.0805
  172SAPE  H18S19516   3.221   0.480   8.271 -0.5052 -0.0874  3.6753
  172SAPE  C21919517   3.041   0.405   8.345  0.2911  0.4189  0.5720
  172SAPE  H19R19518   3.061   0.295   8.340  3.6117  1.0068 -0.5685
  172SAPE  H19S19519   2.934   0.414   8.318  0.7275  3.0782 -0.4440
  172SAPE  C22019520   3.073   0.465   8.486  0.1741  0.1359  0.4562
  172SAPE  H20R19521   3.022   0.563   8.501 -0.9541 -0.3312 -0.1955
  172SAPE  H20S19522   3.183   0.474   8.498  0.4186  0.3571 -1.7595
  172SAPE  H20T19523   3.029   0.390   8.555 -0.7006  0.6078  0.4236
  172SAPE   C3319524   2.547   0.835   6.610 -0.0489  0.1917 -0.2180
  172SAPE   H3X19525   2.507   0.735   6.637  1.2777  0.4656  2.9764
  172SAPE   H3Y19526   2.460   0.866   6.548  0.7033  1.5663 -0.5923
  172SAPE   C3419527   2.549   0.901   6.751 -0.1859 -0.6696 -0.6789
  172SAPE   H4X19528   2.583   1.007   6.744 -2.2663 -0.0224 -1.4786
  172SAPE   H4Y19529   2.622   0.845   6.814  1.9988  2.6822 -0.0818
  172SAPE   C3519530   2.409   0.910   6.818  0.3139  0.1947 -0.1503
  172SAPE   H5X19531   2.364   0.809   6.807  1.2407 -0.1703 -0.6947
  172SAPE   H5Y19532   2.349   0.980   6.757  1.7315  1.0458 -0.6045
  172SAPE   C3619533   2.419   0.954   6.963 -0.0739  0.0598 -0.0630
  172SAPE   H6X19534   2.318   0.981   7.001  0.3960  0.3732  0.9679
  172SAPE   H6Y19535   2.471   1.053   6.967 -1.7192  1.0190 -1.5459
  172SAPE   C3719536   2.484   0.854   7.066 -0.1985 -0.4414  0.0437
  172SAPE   H7X19537   2.583   0.824   7.023  0.1555 -2.7898  2.4018
  172SAPE   H7Y19538   2.427   0.761   7.085 -0.1367 -0.2522  1.1700
  172SAPE   C3819539   2.495   0.919   7.201  0.6946 -0.7647  0.4367
  172SAPE   H8X19540   2.395   0.956   7.231  1.1080  1.6483 -1.0796
  172SAPE   H8Y19541   2.558   1.010   7.193 -1.6278  0.8786  0.2723
  172SAPE   C3919542   2.544   0.813   7.307 -0.2738 -0.0176 -0.2576
  172SAPE   H9X19543   2.655   0.807   7.315 -0.2847  0.6406  0.4453
  172SAPE   H9Y19544   2.499   0.716   7.279 -3.8776  2.1033 -2.0364
  172SAPE  C31019545   2.495   0.854   7.449 -0.0078 -0.7313  0.3334
  172SAPE  H10X19546   2.386   0.877   7.448 -0.1715 -1.5079 -0.4044
  172SAPE  H10Y19547   2.541   0.947   7.487  0.3085 -1.9912  3.1737
  172SAPE  C31119548   2.503   0.733   7.540 -0.1897  0.1880 -0.4130
  172SAPE  H11X19549   2.600   0.680   7.553 -0.0961  0.6252  0.7149
  172SAPE  H11Y19550   2.436   0.664   7.485 -1.8864  1.1639  0.4110
  172SAPE  C31219551   2.423   0.750   7.672  0.3998  0.0062 -0.5857
  172SAPE  H12X19552   2.442   0.654   7.723  4.2352 -0.1649 -2.1717
  172SAPE  H12Y19553   2.313   0.752   7.655 -0.2230 -2.4981  2.6820
  172SAPE  C31319554   2.475   0.868   7.761 -0.2247 -0.8192  0.7213
  172SAPE  H13X19555   2.466   0.968   7.714  1.7200 -1.3662 -0.8592
  172SAPE  H13Y19556   2.584   0.846   7.763  0.0035 -0.1307 -2.3746
  172SAPE  C31419557   2.427   0.850   7.906  0.7924 -0.4517  0.1212
  172SAPE  H14X19558   2.517   0.831   7.969  0.6451  0.1238  0.5045
  172SAPE  H14Y19559   2.354   0.767   7.921  0.6738 -1.0267 -3.2100
  172SAPE  C31519560   2.368   0.982   7.969 -0.5792  0.1348 -0.6533
  172SAPE  H15X19561   2.285   1.017   7.904 -1.8588 -0.6940  0.5171
  172SAPE  H15Y19562   2.438   1.068   7.970 -0.2115 -0.1005 -3.0628
  172SAPE  C31619563   2.321   0.976   8.121  0.0738 -0.4496  0.5947
  172SAPE  H16X19564   2.409   0.939   8.178  1.6240  1.5731 -0.3936
  172SAPE  H16Y19565   2.250   0.894   8.143 -2.1499  1.2065 -0.2528
  172SAPE  C31719566   2.280   1.112   8.187 -1.1215  0.2646  0.0501
  172SAPE  H17X19567   2.211   1.157   8.112  1.7269  2.0146 -1.6115
  172SAPE  H17Y19568   2.372   1.174   8.186 -1.0394  0.1679 -2.1695
  172SAPE  C31819569   2.230   1.097   8.326  0.1069  0.1160 -0.0878
  172SAPE  H18X19570   2.156   1.016   8.342  1.2232 -0.7975  0.5688
  172SAPE  H18Y19571   2.213   1.194   8.376 -0.2278 -1.4210  2.8588
  172SAPE  H18Z19572   2.316   1.058   8.384 -1.2226 -4.6175 -1.0787
  173SOPE     N19573   4.195   5.616  11.029  0.2102 -0.0469 -0.6934
  173SOPE   HN119574   4.123   5.573  11.090  1.2870  0.5087  0.9717
  173SOPE   HN219575   4.282   5.562  11.050  1.0809  1.1156 -1.2708
  173SOPE   HN319576   4.224   5.713  11.050  1.0140  0.0207 -2.0267
  173SOPE   C1219577   4.151   5.599  10.885 -0.4644  0.7198  0.0503
  173SOPE  H12A19578   4.209   5.665  10.817  0.0215 -1.3924 -1.6399
  173SOPE  H12B19579   4.041   5.614  10.881 -0.7980 -1.9125 -2.2863
  173SOPE   C1119580   4.176   5.447  10.831  0.0734 -0.6251 -0.5677
  173SOPE  H11A19581   4.284   5.425  10.844  0.1548  0.6030  0.9897
  173SOPE  H11B19582   4.154   5.441  10.722  2.3053 -0.2097 -1.0780
  173SOPE     P19583   4.011   5.240  10.863 -0.4710  0.6505 -0.1240
  173SOPE   O1319584   3.894   5.226  10.951 -1.3343  0.2015  0.5178
  173SOPE   O1419585   4.098   5.121  10.847  0.1137  0.3906 -0.0442
  173SOPE   O1219586   4.097   5.361  10.913 -0.2286  0.4015  0.2973
  173SOPE   O1119587   3.963   5.272  10.715 -0.6550 -0.0945  0.0008
  173SOPE    C119588   3.862   5.372  10.692 -0.1745 -0.0820 -0.5300
  173SOPE    HA19589   3.887   5.455  10.761  0.4965 -0.6399 -0.0798
  173SOPE    HB19590   3.759   5.334  10.702  0.2294 -1.2815 -0.8066
  173SOPE    C219591   3.875   5.428  10.548  0.3283  0.5884 -0.7998
  173SOPE    HS19592   3.977   5.470  10.537  0.4385  1.4254  2.8709
  173SOPE   O2119593   3.778   5.527  10.521  0.9905 -0.1996  0.4117
  173SOPE   C2119594   3.817   5.655  10.504  0.4661 -0.6671 -0.3678
  173SOPE   O2219595   3.934   5.689  10.496 -0.0335  0.0808  0.4031
  173SOPE   C2219596   3.694   5.747  10.477 -0.3443  0.7300  0.3888
  173SOPE   H2R19597   3.652   5.799  10.566 -0.3123 -0.3819  1.0607
  173SOPE   H2S19598   3.610   5.683  10.443 -0.3833  0.9152  0.1392
  173SOPE    C319599   3.861   5.318  10.437  0.0078  0.0227 -0.5659
  173SOPE    HX19600   3.766   5.264  10.456 -0.0078 -0.5048 -2.0572
  173SOPE    HY19601   3.947   5.251  10.459  1.1609  1.6993  0.1093
  173SOPE   O3119602   3.864   5.388  10.312 -0.5356  0.0534 -0.2986
  173SOPE   C3119603   3.736   5.405  10.255 -0.4441  0.0008 -0.4376
  173SOPE   O3219604   3.635   5.375  10.313 -0.0473 -0.1373 -0.8137
  173SOPE   C3219605   3.753   5.470  10.125 -0.4965 -0.5987  0.0361
  173SOPE   H2X19606   3.854   5.452  10.083 -0.0857  1.0915  0.2630
  173SOPE   H2Y19607   3.747   5.581  10.138  0.1879 -0.6345  0.6966
  173SOPE   C2319608   3.721   5.870  10.382 -0.6989 -0.3960  0.3197
  173SOPE   H3R19609   3.823   5.908  10.404  0.3380 -1.9403 -1.6592
  173SOPE   H3S19610   3.660   5.957  10.412 -0.8680 -0.1804 -0.6491
  173SOPE   C2419611   3.706   5.843  10.235  0.1841 -0.6791 -0.6275
  173SOPE   H4R19612   3.807   5.847  10.190  0.3510 -0.5065 -0.2402
  173SOPE   H4S19613   3.649   5.747  10.226 -0.0219 -0.3536 -3.2038
  173SOPE   C2519614   3.628   5.965  10.174 -0.0879  0.2473 -0.6520
  173SOPE   H5R19615   3.543   5.987  10.242 -0.9222 -1.0436 -1.2557
  173SOPE   H5S19616   3.689   6.057  10.185  0.3253 -0.0816 -0.1322
  173SOPE   C2619617   3.588   5.938  10.031  0.0777 -0.1253  0.1551
  173SOPE   H6R19618   3.546   5.835  10.028  0.8681 -0.4653  0.5095
  173SOPE   H6S19619   3.537   6.029   9.994  0.1515  1.3276  3.4153
  173SOPE   C2719620   3.699   5.928   9.923 -0.3395  0.2790  0.2512
  173SOPE   H7R19621   3.753   6.025   9.925  0.8879 -0.3904  0.2285
  173SOPE   H7S19622   3.781   5.859   9.953  0.9861  2.6853  2.3878
  173SOPE   C2819623   3.654   5.906   9.771  0.1625 -0.1491 -0.1576
  173SOPE   H8R19624   3.747   5.919   9.711  0.1124 -3.2397 -0.9915
  173SOPE   H8S19625   3.625   5.799   9.761  0.2280  0.0600 -2.8930
  173SOPE   C2919626   3.546   5.995   9.717  0.6018 -1.2905 -0.2706
  173SOPE   H9119627   3.446   5.991   9.763  1.0176  0.4369  0.8255
  173SOPE  C21019628   3.565   6.087   9.624  0.0346  0.0821  0.1096
  173SOPE  H10119629   3.482   6.150   9.589  1.6622  2.2029 -0.0016
  173SOPE  C21119630   3.694   6.111   9.547 -0.4565 -0.6246  0.4866
  173SOPE  H11R19631   3.779   6.100   9.617  0.2190  0.4044 -0.1502
  173SOPE  H11S19632   3.696   6.218   9.517 -2.3894 -0.4535  0.9087
  173SOPE  C21219633   3.727   6.031   9.416 -0.2105 -0.5180  0.5218
  173SOPE  H12R19634   3.723   5.922   9.434 -0.9334 -0.5123  0.4175
  173SOPE  H12S19635   3.832   6.055   9.387  0.4788 -4.3407 -0.3180
  173SOPE  C21319636   3.636   6.052   9.293  0.0514  0.2370  0.4738
  173SOPE  H13R19637   3.623   6.163   9.290 -0.8685  0.1131 -0.4481
  173SOPE  H13S19638   3.534   6.011   9.311  0.0977  0.4898  1.3066
  173SOPE  C21419639   3.696   5.999   9.164  0.3571 -0.1263  0.2997
  173SOPE  H14R19640   3.611   5.988   9.093  0.0125  0.4164  0.6221
  173SOPE  H14S19641   3.737   5.899   9.190 -0.6348 -0.8786 -0.9761
  173SOPE  C21519642   3.814   6.088   9.116 -0.3581 -0.1559 -0.1183
  173SOPE  H15R19643   3.907   6.049   9.163 -0.7979 -1.4323 -0.2892
  173SOPE  H15S19644   3.803   6.197   9.135 -0.5264  0.3701 -2.9291
  173SOPE  C21619645   3.836   6.070   8.964 -0.9495  0.6962 -0.5304
  173SOPE  H16R19646   3.853   5.965   8.931  0.7147  0.2005  1.8054
  173SOPE  H16S19647   3.927   6.131   8.944 -1.1558  0.9478 -0.6982
  173SOPE  C21719648   3.728   6.138   8.884  0.5748  0.2099  0.1906
  173SOPE  H17R19649   3.736   6.249   8.880  0.2770  0.2287  0.1269
  173SOPE  H17S19650   3.629   6.103   8.919  0.4079  0.6999  0.2066
  173SOPE  C21819651   3.741   6.103   8.728 -0.6453 -0.6075  0.2983
  173SOPE  H18R19652   3.824   6.158   8.679 -1.9098  0.3000 -0.8519
  173SOPE  H18S19653   3.656   6.156   8.681 -0.8388 -0.5952  0.6637
  173SOPE  H18T19654   3.745   5.993   8.716 -1.1913 -0.5202 -0.7235
  173SOPE   C3319655   3.647   5.432  10.028  0.2161  0.0369  0.2763
  173SOPE   H3X19656   3.543   5.438  10.067  0.2438 -0.0022  0.3561
  173SOPE   H3Y19657   3.662   5.326   9.998  2.5886 -0.2121  2.2555
  173SOPE   C3419658   3.661   5.513   9.899  0.3502  0.1632  0.1649
  173SOPE   H4X19659   3.765   5.516   9.859 -0.3833 -0.6200 -1.8643
  173SOPE   H4Y19660   3.628   5.619   9.910 -1.1425 -0.1813 -0.9105
  173SOPE   C3519661   3.564   5.456   9.786 -0.4148  0.4719  0.2759
  173SOPE   H5X19662   3.536   5.530   9.709  1.1887  1.6339  0.7752
  173SOPE   H5Y19663   3.479   5.414   9.844  0.0183 -0.6383  0.1355
  173SOPE   C3619664   3.640   5.343   9.705 -0.0540 -0.4700  0.1395
  173SOPE   H6X19665   3.660   5.264   9.781 -3.2579  0.3178  1.9050
  173SOPE   H6Y19666   3.741   5.374   9.671 -0.2979 -2.0592 -2.1626
  173SOPE   C3719667   3.561   5.285   9.579 -0.1272 -0.3209 -0.1432
  173SOPE   H7X19668   3.629   5.216   9.524 -1.8879 -1.4464 -0.9293
  173SOPE   H7Y19669   3.543   5.373   9.513  1.1335 -0.7059 -1.0207
  173SOPE   C3819670   3.441   5.205   9.617 -0.1807 -0.2133 -0.0699
  173SOPE   H8X19671   3.361   5.271   9.654  0.3050  1.5269 -2.0170
  173SOPE   H8Y19672   3.462   5.124   9.689 -2.3045 -0.5647  0.1801
  173SOPE   C3919673   3.389   5.117   9.503  0.6087 -0.2405 -0.3251
  173SOPE   H9X19674   3.310   5.048   9.540  1.3622 -1.6668 -1.3035
  173SOPE   H9Y19675   3.471   5.050   9.468 -1.3801 -2.2784 -1.2115
  173SOPE  C31019676   3.320   5.187   9.393  0.0733 -0.1967  0.0408
  173SOPE  H10X19677   3.397   5.225   9.322  0.1550 -0.7213 -0.1494
  173SOPE  H10Y19678   3.260   5.275   9.425  0.6499 -0.0778  0.8307
  173SOPE  C31119679   3.227   5.092   9.325  0.0441 -0.1952 -0.5593
  173SOPE  H11X19680   3.127   5.086   9.374 -0.4371  1.6533 -1.2527
  173SOPE  H11Y19681   3.266   4.989   9.316 -1.1654 -0.7101 -0.0943
  173SOPE  C31219682   3.204   5.129   9.183  0.0164  0.1071  0.0184
  173SOPE  H12X19683   3.290   5.102   9.117 -0.6291  0.2876 -0.8985
  173SOPE  H12Y19684   3.188   5.237   9.165 -0.1505 -0.1202 -1.2049
  173SOPE  C31319685   3.082   5.051   9.118 -0.6069 -0.0577  0.5858
  173SOPE  H13X19686   2.988   5.058   9.177 -2.3590 -1.0862 -1.9949
  173SOPE  H13Y19687   3.103   4.943   9.102 -1.9413 -0.2572  0.1243
  173SOPE  C31419688   3.043   5.113   8.981  0.0647  0.2906 -0.2570
  173SOPE  H14X19689   3.110   5.099   8.893  0.1821 -0.7246 -0.0128
  173SOPE  H14Y19690   3.045   5.222   9.000  0.4349  0.0721  1.0372
  173SOPE  C31519691   2.900   5.081   8.925 -0.3608  0.2724 -0.3353
  173SOPE  H15X19692   2.830   5.113   9.006 -0.9106 -0.3397 -0.5614
  173SOPE  H15Y19693   2.895   4.971   8.909 -0.6766  0.8683 -4.8070
  173SOPE  C31619694   2.862   5.143   8.793  0.5276  0.1620 -0.1900
  173SOPE  H16X19695   2.765   5.093   8.769  0.8160 -0.0653 -0.9032
  173SOPE  H16Y19696   2.932   5.117   8.711 -0.6217  3.0946 -2.2007
  173SOPE  C31719697   2.855   5.300   8.799  0.4919  0.3575 -0.0102
  173SOPE  H17X19698   2.951   5.342   8.836  1.0155 -0.3598 -0.5396
  173SOPE  H17Y19699   2.785   5.333   8.879 -0.0336  0.0689 -0.3565
  173SOPE  C31819700   2.821   5.357   8.670  0.3233 -0.1584  0.4635
  173SOPE  H18X19701   2.821   5.468   8.679  1.0799 -0.1684  0.6263
  173SOPE  H18Y19702   2.720   5.321   8.640 -0.3313  2.1456 -0.2189
  173SOPE  H18Z19703   2.898   5.333   8.593  1.5211  0.7835  1.3426
  174SOPE     N19704   3.088   5.420  10.800 -0.2719 -0.3578  0.1972
  174SOPE   HN119705   3.051   5.338  10.851 -2.0230  1.2409  1.5842
  174SOPE   HN219706   3.078   5.502  10.864  2.3350  0.1557  0.0247
  174SOPE   HN319707   3.043   5.442  10.709  0.2222  0.3935  0.1255
  174SOPE   C1219708   3.237   5.407  10.786  0.4298 -0.2830  0.4757
  174SOPE  H12A19709   3.279   5.507  10.764 -0.2421 -0.3704 -1.2284
  174SOPE  H12B19710   3.257   5.333  10.706  0.5194  1.4721 -1.1475
  174SOPE   C1119711   3.313   5.357  10.917  0.7692 -0.2102 -0.1917
  174SOPE  H11A19712   3.262   5.388  11.011 -1.0971 -1.6933 -0.6671
  174SOPE  H11B19713   3.413   5.404  10.926  0.8383 -0.3898 -0.0003
  174SOPE     P19714   3.194   5.122  10.922  0.6108 -0.6875 -0.4483
  174SOPE   O1319715   3.080   5.202  10.955 -0.1577  0.3360  0.6316
  174SOPE   O1419716   3.208   5.002  11.010  0.6604  0.1442  0.3198
  174SOPE   O1219717   3.323   5.214  10.922  0.6231 -0.0026  0.8879
  174SOPE   O1119718   3.169   5.072  10.769 -0.4165  0.4642  0.2016
  174SOPE    C119719   3.265   4.990  10.704  0.1097 -0.1969 -0.1092
  174SOPE    HA19720   3.213   4.895  10.678 -2.8022  0.8383  1.6807
  174SOPE    HB19721   3.350   4.957  10.767  0.5850  0.7814 -0.2356
  174SOPE    C219722   3.315   5.054  10.569  0.8026  0.5449  0.8339
  174SOPE    HS19723   3.350   5.154  10.602 -0.5859  0.3014  3.1643
  174SOPE   O2119724   3.201   5.061  10.484  0.7202  0.1447  0.1005
  174SOPE   C2119725   3.174   5.176  10.419  0.3722 -0.7654 -0.5007
  174SOPE   O2219726   3.234   5.282  10.436  0.0305 -0.0009  0.1499
  174SOPE   C2219727   3.057   5.164  10.317 -0.0482 -0.2126  0.3047
  174SOPE   H2R19728   2.961   5.175  10.371 -0.8509 -1.6375 -0.7751
  174SOPE   H2S19729   3.056   5.063  10.271 -0.8749 -0.7847  1.5637
  174SOPE    C319730   3.428   4.968  10.513  0.5039  0.8620 -0.2747
  174SOPE    HX19731   3.390   4.872  10.472  2.1153 -0.6489  1.6667
  174SOPE    HY19732   3.500   4.964  10.598 -2.7887 -0.4056  2.6134
  174SOPE   O3119733   3.481   5.032  10.390 -0.7106  0.0416  0.6567
  174SOPE   C3119734   3.570   4.959  10.338  0.0690  0.6999 -0.1751
  174SOPE   O3219735   3.627   4.861  10.383 -0.0544  0.2863 -0.7540
  174SOPE   C3219736   3.622   5.036  10.224 -0.2283  0.2547  0.3318
  174SOPE   H2X19737   3.711   4.988  10.177  1.1479  1.4261  1.7303
  174SOPE   H2Y19738   3.645   5.140  10.253 -0.5997  0.5199 -0.3135
  174SOPE   C2319739   3.066   5.280  10.212 -0.6864 -0.4546 -0.4994
  174SOPE   H3R19740   3.172   5.283  10.179 -0.3022  0.8614  0.7931
  174SOPE   H3S19741   3.049   5.375  10.268 -0.0822 -0.1269 -0.8659
  174SOPE   C2419742   2.965   5.266  10.101 -0.3922 -0.3805 -0.4648
  174SOPE   H4R19743   2.862   5.259  10.142 -0.3459  1.0466 -0.0610
  174SOPE   H4S19744   2.967   5.361  10.043 -0.3428 -0.4991 -0.6565
  174SOPE   C2519745   3.000   5.162   9.995  0.4401  0.4161 -0.5996
  174SOPE   H5R19746   3.108   5.159   9.972  0.7548  2.7292  0.4531
  174SOPE   H5S19747   2.979   5.062  10.039  1.2091  0.4843 -0.0759
  174SOPE   C2619748   2.909   5.158   9.877 -0.2913 -0.2935 -0.4818
  174SOPE   H6R19749   2.804   5.131   9.899  0.0655 -0.8815  0.5533
  174SOPE   H6S19750   2.904   5.255   9.823  1.6604  0.6673  0.9947
  174SOPE   C2719751   2.962   5.042   9.784  0.2920  0.0071  0.4189
  174SOPE   H7R19752   3.051   5.092   9.741  1.5649 -2.9110 -0.4424
  174SOPE   H7S19753   3.007   4.961   9.845  0.6989  0.5847  0.8926
  174SOPE   C2819754   2.858   5.013   9.671  0.0723 -0.1988  0.7724
  174SOPE   H8R19755   2.762   5.020   9.726 -1.6597  1.1941 -2.3052
  174SOPE   H8S19756   2.864   5.089   9.590 -1.7172  0.2870  1.0716
  174SOPE   C2919757   2.871   4.881   9.606 -1.0218 -0.1490  0.6139
  174SOPE   H9119758   2.943   4.813   9.654 -1.0526  0.9104  2.1971
  174SOPE  C21019759   2.797   4.830   9.506 -0.0972  0.1100  0.0755
  174SOPE  H10119760   2.825   4.732   9.464 -0.0265  0.4808 -0.7591
  174SOPE  C21119761   2.680   4.908   9.439 -0.9129  0.1138  0.0532
  174SOPE  H11R19762   2.634   4.984   9.506 -0.3640  0.6429 -0.1656
  174SOPE  H11S19763   2.612   4.826   9.409 -1.0367  0.2609 -0.0622
  174SOPE  C21219764   2.721   4.975   9.307  0.4910  0.5114  0.0792
  174SOPE  H12R19765   2.768   4.901   9.239 -1.0392  0.6030 -1.1068
  174SOPE  H12S19766   2.789   5.059   9.335  1.0870 -0.4494  1.5408
  174SOPE  C21319767   2.607   5.049   9.226 -0.0239  0.1356  0.1054
  174SOPE  H13R19768   2.651   5.116   9.149 -2.8936  1.4751 -0.4530
  174SOPE  H13S19769   2.546   5.112   9.294 -0.0921  0.7830 -0.5532
  174SOPE  C21419770   2.513   4.951   9.156  0.4928  0.4466  0.7437
  174SOPE  H14R19771   2.475   4.880   9.233 -0.3602 -1.1539 -1.1128
  174SOPE  H14S19772   2.576   4.882   9.096 -1.0354 -1.1526  0.9502
  174SOPE  C21519773   2.412   5.016   9.064  0.9475  0.8015  0.2311
  174SOPE  H15R19774   2.340   5.082   9.117  0.8885  2.8094 -2.2284
  174SOPE  H15S19775   2.345   4.930   9.040  0.5393  1.4357 -0.9546
  174SOPE  C21619776   2.475   5.087   8.948  0.2764 -0.8009  0.0182
  174SOPE  H16R19777   2.556   5.022   8.908 -0.1017 -0.8437 -0.6940
  174SOPE  H16S19778   2.523   5.184   8.974 -0.8063 -0.5786  1.2021
  174SOPE  C21719779   2.378   5.113   8.823  0.3978 -0.0082 -0.4935
  174SOPE  H17R19780   2.303   5.189   8.854 -0.1832 -1.2149  1.1408
  174SOPE  H17S19781   2.321   5.020   8.804  2.0892 -0.9029 -1.3489
  174SOPE  C21819782   2.453   5.174   8.705  0.5219 -0.1465  0.7293
  174SOPE  H18R19783   2.538   5.103   8.690  0.2043 -0.2530 -0.7090
  174SOPE  H18S19784   2.493   5.271   8.741  0.2954  0.0990  0.3249
  174SOPE  H18T19785   2.393   5.185   8.612  2.0920  0.9963 -0.1755
  174SOPE   C3319786   3.513   5.047  10.118  0.5437 -0.0464 -0.1574
  174SOPE   H3X19787   3.557   5.108  10.037  0.2657  0.1523 -0.1619
  174SOPE   H3Y19788   3.422   5.095  10.162 -0.2020 -0.5259 -1.1540
  174SOPE   C3419789   3.465   4.921  10.049 -0.0886 -0.3938  0.7861
  174SOPE   H4X19790   3.400   4.866  10.121 -0.5125  1.0259  1.4902
  174SOPE   H4Y19791   3.551   4.854  10.027 -0.7785 -1.3279  0.8933
  174SOPE   C3519792   3.392   4.936   9.916 -0.3649 -0.6914  0.5564
  174SOPE   H5X19793   3.463   4.988   9.848  0.8094  2.3045  3.9406
  174SOPE   H5Y19794   3.302   5.002   9.915  0.2379  0.1555 -1.6203
  174SOPE   C3619795   3.351   4.810   9.849 -0.0915  0.1468  0.8274
  174SOPE   H6X19796   3.263   4.771   9.905  2.0827 -5.0765  0.8278
  174SOPE   H6Y19797   3.427   4.729   9.849 -0.1542 -0.0089  5.3299
  174SOPE   C3719798   3.311   4.842   9.706 -0.0952  0.5913 -0.6685
  174SOPE   H7X19799   3.404   4.880   9.657  0.4047 -0.2917 -0.4127
  174SOPE   H7Y19800   3.231   4.919   9.698  0.8748  1.9181  1.7786
  174SOPE   C3819801   3.270   4.719   9.625  0.2821  0.8670 -0.4823
  174SOPE   H8X19802   3.172   4.690   9.668  1.2975 -0.4260  1.0151
  174SOPE   H8Y19803   3.350   4.642   9.632  1.0777  1.3400 -3.6226
  174SOPE   C3919804   3.261   4.754   9.473  0.4396 -0.2515 -0.1698
  174SOPE   H9X19805   3.348   4.812   9.435  0.8879 -0.0480  1.1580
  174SOPE   H9Y19806   3.174   4.822   9.459 -0.7054 -1.5500  0.4083
  174SOPE  C31019807   3.244   4.628   9.386  0.1013  0.0170  0.1779
  174SOPE  H10X19808   3.182   4.553   9.438  0.1287 -0.2637 -0.1926
  174SOPE  H10Y19809   3.346   4.585   9.391 -0.2024 -0.6966  0.2741
  174SOPE  C31119810   3.189   4.658   9.252 -0.2393 -0.8192 -0.4765
  174SOPE  H11X19811   3.233   4.755   9.221 -0.0813 -0.2019  1.6425
  174SOPE  H11Y19812   3.080   4.675   9.263 -0.3475 -0.4506 -1.9669
  174SOPE  C31219813   3.215   4.561   9.135 -0.2340  0.1689 -0.3700
  174SOPE  H12X19814   3.194   4.458   9.169 -0.9017  1.1980  2.5199
  174SOPE  H12Y19815   3.326   4.551   9.128 -0.4636 -2.1300 -0.9527
  174SOPE  C31319816   3.145   4.608   9.009  0.0297  1.1213  0.0466
  174SOPE  H13X19817   3.185   4.694   8.950  1.4566  1.0284  0.8456
  174SOPE  H13Y19818   3.039   4.633   9.027 -0.2823 -1.7922  2.5166
  174SOPE  C31419819   3.139   4.490   8.916  0.0896 -0.0962  0.1465
  174SOPE  H14X19820   3.099   4.406   8.978 -0.1621  0.4153  0.6806
  174SOPE  H14Y19821   3.247   4.470   8.896  0.5141  2.3265 -0.0505
  174SOPE  C31519822   3.063   4.522   8.789  0.2075 -0.1276 -0.4639
  174SOPE  H15X19823   3.088   4.620   8.743  0.8764  0.3194  0.8524
  174SOPE  H15Y19824   2.957   4.528   8.823  0.8840 -0.2808  1.7299
  174SOPE  C31619825   3.075   4.410   8.687 -0.3374 -0.0040 -0.7700
  174SOPE  H16X19826   3.038   4.313   8.724  2.0865 -0.3868  0.7829
  174SOPE  H16Y19827   3.186   4.405   8.676 -0.2450 -1.2546  0.7488
  174SOPE  C31719828   3.015   4.438   8.544 -0.3995 -0.5839  0.1300
  174SOPE  H17X19829   3.067   4.533   8.522 -0.6528 -0.4614  0.0535
  174SOPE  H17Y19830   2.905   4.451   8.545 -0.4324 -0.8866  0.9334
  174SOPE  C31819831   3.045   4.326   8.439 -0.5931  0.2792 -0.2169
  174SOPE  H18X19832   3.026   4.227   8.486 -0.3640  1.4179  2.3783
  174SOPE  H18Y19833   3.149   4.334   8.400 -1.3062  1.6455 -1.8981
  174SOPE  H18Z19834   2.984   4.349   8.349 -0.9782 -0.5621 -0.1766
  175SOPE     N19835   5.851   6.115  10.523 -0.0189  0.4336 -0.0638
  175SOPE   HN119836   5.874   6.134  10.623  1.8295 -0.5854 -0.2838
  175SOPE   HN219837   5.925   6.063  10.474 -0.0643  1.3058 -1.0728
  175SOPE   HN319838   5.833   6.205  10.474 -0.5211  1.3354  1.7290
  175SOPE   C1219839   5.721   6.030  10.527 -0.4113 -0.3071  0.6604
  175SOPE  H12A19840   5.751   5.935  10.576  1.0763  1.0062  2.3678
  175SOPE  H12B19841   5.690   6.011  10.422  0.1173  2.4064 -0.0236
  175SOPE   C1119842   5.616   6.099  10.604 -0.0309  0.0146 -0.0313
  175SOPE  H11A19843   5.639   6.089  10.713  0.8853  1.7520 -0.0425
  175SOPE  H11B19844   5.530   6.036  10.575  0.6005 -1.1710  0.6214
  175SOPE     P19845   5.487   6.305  10.633 -0.1741 -0.1504 -0.3213
  175SOPE   O1319846   5.520   6.453  10.636  0.1442  0.4832  0.2421
  175SOPE   O1419847   5.450   6.251  10.769  0.0559  0.0441 -0.4971
  175SOPE   O1219848   5.600   6.229  10.561 -1.1307  0.0388  0.1002
  175SOPE   O1119849   5.363   6.280  10.540  0.6701  0.1812 -0.8693
  175SOPE    C119850   5.372   6.243  10.404 -0.3619  0.8406  0.8567
  175SOPE    HA19851   5.343   6.136  10.395  2.4540 -0.3665  4.6625
  175SOPE    HB19852   5.471   6.272  10.364 -1.3019 -0.0253 -2.2276
  175SOPE    C219853   5.279   6.321  10.313  0.9510 -0.6613 -0.5126
  175SOPE    HS19854   5.311   6.427  10.325  1.6681 -1.1479  2.0003
  175SOPE   O2119855   5.141   6.286  10.340 -0.0659 -0.5253 -0.7543
  175SOPE   C2119856   5.047   6.386  10.323 -0.5236  0.0358  0.5387
  175SOPE   O2219857   5.072   6.506  10.308 -0.0500  0.6627  0.2567
  175SOPE   C2219858   4.911   6.335  10.346  0.0175 -0.3708  0.2847
  175SOPE   H2R19859   4.883   6.315  10.451 -0.5787 -1.5100 -0.0793
  175SOPE   H2S19860   4.889   6.248  10.281 -0.9748 -0.4593  0.7244
  175SOPE    C319861   5.311   6.278  10.160  0.0954  0.1707 -0.1579
  175SOPE    HX19862   5.282   6.171  10.156 -2.6743  0.8642  0.3309
  175SOPE    HY19863   5.423   6.277  10.157  0.2495  0.3939  3.2715
  175SOPE   O3119864   5.252   6.355  10.054 -0.0853  0.0356  0.7347
  175SOPE   C3119865   5.293   6.474  10.034 -0.1639  0.0091 -0.4666
  175SOPE   O3219866   5.400   6.524  10.075  0.0672 -0.2243  0.0923
  175SOPE   C3219867   5.201   6.549   9.935  0.0959  0.2903 -0.1252
  175SOPE   H2X19868   5.252   6.643   9.909 -1.5942  1.3059  0.1160
  175SOPE   H2Y19869   5.108   6.561   9.996 -0.6648  1.7163 -1.5330
  175SOPE   C2319870   4.801   6.451  10.312 -0.0260 -0.2015 -0.4652
  175SOPE   H3R19871   4.823   6.539  10.376 -0.4259 -0.4572  0.0277
  175SOPE   H3S19872   4.707   6.406  10.349 -0.2492  1.4151  1.0025
  175SOPE   C2419873   4.787   6.493  10.167  0.4370 -0.0770 -0.6761
  175SOPE   H4R19874   4.706   6.568  10.170 -1.1683 -1.8392  1.3090
  175SOPE   H4S19875   4.881   6.544  10.136  1.8771 -1.7849  0.7964
  175SOPE   C2519876   4.774   6.389  10.063 -0.5268 -0.2912 -0.4239
  175SOPE   H5R19877   4.872   6.337  10.056  0.2984  1.4112 -1.6768
  175SOPE   H5S19878   4.698   6.323  10.109 -0.5702 -1.4418 -2.1162
  175SOPE   C2619879   4.733   6.451   9.929 -0.4922  0.1614  0.1240
  175SOPE   H6R19880   4.688   6.373   9.864  1.9453 -0.8167 -0.4171
  175SOPE   H6S19881   4.661   6.533   9.953 -2.9237 -2.2301  1.2727
  175SOPE   C2719882   4.847   6.513   9.849 -0.6220  0.4167  0.3765
  175SOPE   H7R19883   4.897   6.595   9.905 -2.0497  0.4816  1.6203
  175SOPE   H7S19884   4.912   6.429   9.816 -1.2593 -0.0087  0.1709
  175SOPE   C2819885   4.788   6.575   9.716 -0.2524 -0.2783  0.3308
  175SOPE   H8R19886   4.739   6.491   9.664  1.0550 -1.6048  1.1989
  175SOPE   H8S19887   4.720   6.660   9.740 -0.6910 -1.0510  1.8913
  175SOPE   C2919888   4.891   6.631   9.626 -0.1790 -0.2208  0.3240
  175SOPE   H9119889   4.951   6.716   9.662  1.8606 -1.0228 -1.1024
  175SOPE  C21019890   4.917   6.599   9.503  0.6891  0.3790 -0.6524
  175SOPE  H10119891   4.987   6.661   9.445 -0.5304  1.5003 -0.9681
  175SOPE  C21119892   4.842   6.498   9.414 -0.0549  0.4621  0.2201
  175SOPE  H11R19893   4.743   6.460   9.447  0.3159  0.1900  1.0281
  175SOPE  H11S19894   4.902   6.406   9.422 -1.8421 -0.6655  1.0141
  175SOPE  C21219895   4.837   6.566   9.276 -0.5083 -0.7396  0.2011
  175SOPE  H12R19896   4.936   6.603   9.243 -1.9747  1.7207 -1.5366
  175SOPE  H12S19897   4.770   6.654   9.288  0.5635 -0.0355  1.1684
  175SOPE  C21319898   4.782   6.469   9.163  0.2706  0.1814  0.2091
  175SOPE  H13R19899   4.682   6.426   9.185  0.2470 -0.6712 -1.4801
  175SOPE  H13S19900   4.841   6.375   9.158  1.2768  0.8517 -0.4605
  175SOPE  C21419901   4.765   6.546   9.035  0.5564 -0.5843 -0.0466
  175SOPE  H14R19902   4.868   6.546   8.992  1.1103  1.7340  1.2430
  175SOPE  H14S19903   4.741   6.652   9.058 -1.0404 -0.6703 -1.2601
  175SOPE  C21519904   4.657   6.490   8.943  0.3806  0.1184 -0.0799
  175SOPE  H15R19905   4.559   6.483   8.994 -0.0400  1.4144 -0.7051
  175SOPE  H15S19906   4.677   6.384   8.914 -0.0224  0.0974 -0.2871
  175SOPE  C21619907   4.637   6.568   8.810 -0.8155 -0.0951  0.8167
  175SOPE  H16R19908   4.740   6.564   8.769 -1.4262  0.0277 -0.7619
  175SOPE  H16S19909   4.607   6.674   8.824  0.4216  0.0808  2.2762
  175SOPE  C21719910   4.538   6.500   8.708 -0.2242 -0.6241  0.3184
  175SOPE  H17R19911   4.436   6.504   8.753  0.5276  1.8125  1.8805
  175SOPE  H17S19912   4.558   6.393   8.687  0.4391 -0.3341 -0.5703
  175SOPE  C21819913   4.527   6.557   8.571 -0.5369 -0.0725 -0.1427
  175SOPE  H18R19914   4.619   6.552   8.509  0.0885  0.3863  0.7358
  175SOPE  H18S19915   4.499   6.665   8.575 -1.3472 -0.2842 -0.0862
  175SOPE  H18T19916   4.452   6.509   8.505 -2.0253  3.1206 -0.8957
  175SOPE   C3319917   5.178   6.467   9.806 -0.5475 -0.0944  0.1303
  175SOPE   H3X19918   5.097   6.518   9.749 -0.1224  0.2375 -0.1773
  175SOPE   H3Y19919   5.147   6.362   9.828  2.1018 -0.7823  0.8376
  175SOPE   C3419920   5.301   6.472   9.710 -0.2451 -0.5270  0.6296
  175SOPE   H4X19921   5.376   6.399   9.748  0.1552  0.5419  1.9128
  175SOPE   H4Y19922   5.331   6.578   9.719 -1.5740  0.0546 -1.3750
  175SOPE   C3519923   5.258   6.451   9.567 -0.3656  0.8161 -0.3973
  175SOPE   H5X19924   5.179   6.523   9.535 -0.5728  1.1957  0.9098
  175SOPE   H5Y19925   5.211   6.350   9.565  1.3868 -0.0198  0.2301
  175SOPE   C3619926   5.367   6.445   9.469  0.2686  0.0068 -0.2919
  175SOPE   H6X19927   5.452   6.387   9.511  0.3964  0.0034 -0.5519
  175SOPE   H6Y19928   5.409   6.548   9.457 -0.2097 -0.0835 -3.2205
  175SOPE   C3719929   5.320   6.394   9.329 -0.6923  0.6726 -0.1857
  175SOPE   H7X19930   5.268   6.296   9.333 -2.2129  1.3358 -2.5442
  175SOPE   H7Y19931   5.417   6.362   9.285  0.3304  0.3781  2.1891
  175SOPE   C3819932   5.262   6.496   9.244  0.1787 -0.1484  0.6601
  175SOPE   H8X19933   5.330   6.584   9.242 -0.5612  0.4267  0.0725
  175SOPE   H8Y19934   5.164   6.530   9.284  0.2292 -0.5164  1.1000
  175SOPE   C3919935   5.240   6.459   9.091  0.9115  0.3565 -0.2597
  175SOPE   H9X19936   5.345   6.446   9.057  0.1876  0.2876 -2.5967
  175SOPE   H9Y19937   5.189   6.540   9.034  0.4915 -0.3686 -0.9306
  175SOPE  C31019938   5.168   6.324   9.069  0.0522  0.9686 -0.1329
  175SOPE  H10X19939   5.063   6.322   9.103 -0.0958 -1.1609 -0.6581
  175SOPE  H10Y19940   5.229   6.242   9.113 -0.4290  0.5694 -0.2051
  175SOPE  C31119941   5.159   6.297   8.923 -0.4366 -0.2966 -0.3439
  175SOPE  H11X19942   5.169   6.187   8.909 -0.8792 -0.2290 -1.2651
  175SOPE  H11Y19943   5.250   6.340   8.874 -0.9872 -1.0717 -2.1020
  175SOPE  C31219944   5.035   6.351   8.844 -0.1913 -1.8331  0.4386
  175SOPE  H12X19945   5.015   6.458   8.863 -1.2121 -2.1082  0.9441
  175SOPE  H12Y19946   4.946   6.295   8.880  0.0875 -2.1931  0.5780
  175SOPE  C31319947   5.057   6.345   8.695 -0.7654  0.0587 -0.5721
  175SOPE  H13X19948   5.095   6.243   8.671 -0.2314  0.4844 -1.5924
  175SOPE  H13Y19949   5.133   6.416   8.657  0.0104 -1.0530 -1.1363
  175SOPE  C31419950   4.928   6.361   8.607  0.2856  0.3466  0.0775
  175SOPE  H14X19951   4.919   6.471   8.600  0.4999  0.3821  0.3662
  175SOPE  H14Y19952   4.840   6.319   8.660  0.4132  1.4054  1.1510
  175SOPE  C31519953   4.958   6.310   8.461  0.0049 -0.4680  0.0651
  175SOPE  H15X19954   4.856   6.332   8.422  1.1672 -0.4429 -3.0270
  175SOPE  H15Y19955   4.979   6.201   8.461  0.3887 -0.3939  0.2767
  175SOPE  C31619956   5.065   6.383   8.377  0.1878 -0.0001 -0.8372
  175SOPE  H16X19957   5.163   6.357   8.423 -0.2732  0.0893  0.2036
  175SOPE  H16Y19958   5.061   6.492   8.396 -0.1537 -0.3426  1.0692
  175SOPE  C31719959   5.052   6.342   8.232 -0.7594 -0.5054  0.1250
  175SOPE  H17X19960   4.958   6.395   8.206  0.5751  2.2043  0.6323
  175SOPE  H17Y19961   5.038   6.232   8.220  1.8765 -1.2603  2.9776
  175SOPE  C31819962   5.173   6.395   8.149 -0.6651  0.1842 -0.2052
  175SOPE  H18X19963   5.189   6.501   8.177 -1.2483  0.4413 -0.8253
  175SOPE  H18Y19964   5.149   6.386   8.041 -2.3319 -1.2109  0.2581
  175SOPE  H18Z19965   5.260   6.331   8.174 -1.0984 -0.9024 -1.4320
  176SOPE     N19966   5.196   6.165  10.837 -0.1921  0.3734 -0.5524
  176SOPE   HN119967   5.125   6.188  10.909  0.0646  2.4460 -0.9196
  176SOPE   HN219968   5.295   6.150  10.864 -0.2147  0.5078 -0.3976
  176SOPE   HN319969   5.188   6.243  10.768 -1.3305  0.2874 -0.5318
  176SOPE   C1219970   5.146   6.038  10.778 -0.7908 -0.5498  0.2153
  176SOPE  H12A19971   5.196   5.959  10.836  1.4263  2.7909  3.0706
  176SOPE  H12B19972   5.185   6.034  10.674  0.3370  0.2084  0.6048
  176SOPE   C1119973   4.998   6.035  10.787  0.2992  0.0421  0.0169
  176SOPE  H11A19974   4.975   5.964  10.704  1.9450 -1.6710  0.9831
  176SOPE  H11B19975   4.957   6.138  10.778  2.8376  0.9413 -2.0506
  176SOPE     P19976   4.824   5.984  10.979 -0.0949  0.0502 -0.0404
  176SOPE   O1319977   4.802   6.124  11.028 -0.1876  0.8877  0.3919
  176SOPE   O1419978   4.814   5.877  11.085  0.1108  0.2752  0.5591
  176SOPE   O1219979   4.966   5.975  10.910 -0.7773  0.0586 -0.2422
  176SOPE   O1119980   4.724   5.961  10.853  0.1879 -0.2067 -0.4421
  176SOPE    C119981   4.682   5.834  10.802 -0.9066  0.0053 -0.4862
  176SOPE    HA19982   4.583   5.838  10.752 -0.6198  2.6728 -0.8967
  176SOPE    HB19983   4.654   5.765  10.884  1.8470 -1.9487 -1.1075
  176SOPE    C219984   4.770   5.775  10.685 -0.3578  0.7406 -0.5316
  176SOPE    HS19985   4.872   5.767  10.728  0.1522 -1.4665 -2.0744
  176SOPE   O2119986   4.775   5.874  10.579 -0.3187  0.0960 -0.6393
  176SOPE   C2119987   4.872   5.847  10.496  0.1077  0.3506 -0.0462
  176SOPE   O2219988   4.962   5.766  10.517  0.4900 -0.6392 -0.2604
  176SOPE   C2219989   4.866   5.939  10.372 -0.4968  0.2428  0.3281
  176SOPE   H2R19990   4.854   6.041  10.413  1.8279  1.3713 -1.6894
  176SOPE   H2S19991   4.784   5.909  10.303  0.1307 -1.1611  0.1723
  176SOPE    C319992   4.721   5.637  10.637 -0.1258 -0.1927  0.5548
  176SOPE    HX19993   4.762   5.563  10.709  1.2736 -1.1449 -1.1745
  176SOPE    HY19994   4.773   5.602  10.545 -0.3045  0.6624  0.1227
  176SOPE   O3119995   4.576   5.632  10.621  1.0324  0.7805  0.1754
  176SOPE   C3119996   4.538   5.661  10.500 -0.2547  0.4699 -0.0446
  176SOPE   O3219997   4.608   5.690  10.404  0.4988  0.3750  0.1204
  176SOPE   C3219998   4.387   5.651  10.494 -0.8675  0.3878 -1.0549
  176SOPE   H2X19999   4.345   5.752  10.509  2.1961  1.3901  1.2263
  176SOPE   H2Y20000   4.341   5.580  10.566 -0.2120  0.6436 -0.3859
  176SOPE   C2320001   4.994   5.930  10.288  0.3281 -0.2063 -0.4803
  176SOPE   H3R20002   5.052   5.837  10.307  1.4785  0.4866 -0.5583
  176SOPE   H3S20003   5.060   6.014  10.320 -1.0295 -0.0325  1.9236
  176SOPE   C2420004   4.961   5.943  10.144 -0.5705  0.1890  0.5522
  176SOPE   H4R20005   4.877   5.874  10.122 -0.2717 -0.3539  1.0793
  176SOPE   H4S20006   4.930   6.049  10.129 -1.9179 -0.4850 -1.4960
  176SOPE   C2520007   5.074   5.933  10.042  0.1303  0.2770  0.8692
  176SOPE   H5R20008   5.145   6.018  10.052 -0.2821  0.8877 -1.2064
  176SOPE   H5S20009   5.136   5.844  10.065 -3.0508 -1.6493  2.3101
  176SOPE   C2620010   5.022   5.898   9.904  0.8128 -0.8041 -0.5784
  176SOPE   H6R20011   5.110   5.856   9.850 -0.2832 -2.1405 -1.3647
  176SOPE   H6S20012   4.937   5.826   9.912 -1.5990  1.8487 -1.4500
  176SOPE   C2720013   4.968   6.020   9.819 -0.2749 -0.0147 -0.5868
  176SOPE   H7R20014   4.868   6.040   9.862  0.7521  1.2613  1.3069
  176SOPE   H7S20015   5.034   6.107   9.839  0.9758 -1.0832 -0.0014
  176SOPE   C2820016   4.955   5.995   9.673 -0.2005  0.5270  0.5875
  176SOPE   H8R20017   5.053   5.964   9.631 -0.4247 -2.2344  1.9540
  176SOPE   H8S20018   4.886   5.908   9.661 -2.2446  2.2123 -0.0975
  176SOPE   C2920019   4.898   6.115   9.602 -0.3159 -0.8054 -0.6245
  176SOPE   H9120020   4.909   6.214   9.649  0.5518 -0.3760 -1.6885
  176SOPE  C21020021   4.833   6.115   9.479 -0.4792  0.7085 -0.5638
  176SOPE  H10120022   4.798   6.213   9.443 -2.8765 -0.3908 -1.3718
  176SOPE  C21120023   4.809   5.999   9.385 -0.1162  0.6993  0.1521
  176SOPE  H11R20024   4.703   5.982   9.358  0.0916  1.0921 -0.9627
  176SOPE  H11S20025   4.848   5.902   9.421 -0.2278 -0.6172 -3.0621
  176SOPE  C21220026   4.897   6.001   9.257  0.2059 -0.6049  0.0116
  176SOPE  H12R20027   5.001   6.026   9.288 -0.2354  2.0153 -0.4859
  176SOPE  H12S20028   4.868   6.083   9.188  1.6994  0.3573  0.4828
  176SOPE  C21320029   4.917   5.871   9.176 -0.1765  0.2883  0.3371
  176SOPE  H13R20030   4.964   5.789   9.236 -0.3406  0.0140  0.0944
  176SOPE  H13S20031   4.983   5.890   9.089  2.5203 -0.7812  2.1048
  176SOPE  C21420032   4.783   5.815   9.119 -0.2636  0.1039  0.3423
  176SOPE  H14R20033   4.764   5.878   9.029 -4.2141 -1.0383  0.2994
  176SOPE  H14S20034   4.700   5.811   9.192 -1.1861  0.6176 -0.6643
  176SOPE  C21520035   4.796   5.668   9.078 -0.4218 -0.2914  0.0936
  176SOPE  H15R20036   4.792   5.616   9.177 -2.3114  2.1126  1.3552
  176SOPE  H15S20037   4.898   5.660   9.036 -0.8446  1.8313 -1.4080
  176SOPE  C21620038   4.685   5.607   8.989  0.2568  0.1379 -0.0947
  176SOPE  H16R20039   4.662   5.664   8.896  2.0981  1.3295  0.1589
  176SOPE  H16S20040   4.588   5.597   9.041  0.2282 -0.0447 -0.1782
  176SOPE  C21720041   4.720   5.459   8.956  1.3355 -0.1722 -1.2251
  176SOPE  H17R20042   4.625   5.410   8.927  0.7476  0.1349  0.1377
  176SOPE  H17S20043   4.754   5.405   9.047 -1.6850  0.3371  0.2942
  176SOPE  C21820044   4.825   5.451   8.854  0.3854 -0.0129 -0.0337
  176SOPE  H18R20045   4.792   5.491   8.755  0.7350  3.3168  1.1267
  176SOPE  H18S20046   4.848   5.343   8.843  0.5325  0.0759 -0.6275
  176SOPE  H18T20047   4.922   5.497   8.884 -0.0876 -0.2639  1.8883
  176SOPE   C3320048   4.336   5.603  10.354 -0.0148  0.3093  0.0318
  176SOPE   H3X20049   4.378   5.503  10.329 -0.9139 -0.0816  0.0725
  176SOPE   H3Y20050   4.384   5.678  10.287  2.1271 -0.1531  1.0014
  176SOPE   C3420051   4.189   5.593  10.353 -0.1237  0.2242 -0.7880
  176SOPE   H4X20052   4.152   5.695  10.374 -5.3426 -2.0360  1.8659
  176SOPE   H4Y20053   4.152   5.529  10.436  1.8105 -0.8275 -0.7047
  176SOPE   C3520054   4.124   5.552  10.217  0.2441 -0.3778  0.7937
  176SOPE   H5X20055   4.013   5.556  10.216  0.2903  3.3028 -3.1478
  176SOPE   H5Y20056   4.149   5.449  10.184 -3.2186 -1.2375  0.6433
  176SOPE   C3620057   4.156   5.651  10.100  0.4562 -0.6112  0.5015
  176SOPE   H6X20058   4.256   5.634  10.057  0.6713  1.3470  0.1650
  176SOPE   H6Y20059   4.138   5.754  10.138  0.5678 -0.1562 -0.6788
  176SOPE   C3720060   4.047   5.635   9.983 -0.4152  0.5169  0.1326
  176SOPE   H7X20061   3.944   5.619  10.024 -0.5321  0.1407 -0.3026
  176SOPE   H7Y20062   4.070   5.540   9.929 -0.6787  0.2860  0.4184
  176SOPE   C3820063   4.051   5.745   9.879 -0.1700 -0.3986  0.2562
  176SOPE   H8X20064   4.048   5.839   9.939 -2.3507 -0.1051 -0.2733
  176SOPE   H8Y20065   3.957   5.749   9.819 -0.3225 -2.1673  0.3572
  176SOPE   C3920066   4.177   5.737   9.784 -0.4265  0.4334  0.5659
  176SOPE   H9X20067   4.187   5.631   9.751 -0.2790  0.5252  0.3197
  176SOPE   H9Y20068   4.267   5.756   9.846 -0.7820 -0.6933  1.4449
  176SOPE  C31020069   4.191   5.842   9.674  0.3937 -0.1181  0.0487
  176SOPE  H10X20070   4.296   5.870   9.654 -0.2587  0.9490 -2.1105
  176SOPE  H10Y20071   4.144   5.929   9.724 -1.6696  0.6092 -2.9808
  176SOPE  C31120072   4.115   5.794   9.549  0.4890 -0.3589  1.2039
  176SOPE  H11X20073   4.023   5.739   9.577 -0.1355 -0.0827 -0.2463
  176SOPE  H11Y20074   4.182   5.715   9.507  0.8723 -1.1557  3.2514
  176SOPE  C31220075   4.104   5.901   9.442 -0.2082 -0.4146 -0.0056
  176SOPE  H12X20076   4.198   5.959   9.436 -0.0105 -0.3448  2.7273
  176SOPE  H12Y20077   4.033   5.978   9.481  0.0155 -0.4378  0.4587
  176SOPE  C31320078   4.065   5.838   9.301  0.2282 -0.5988  0.0906
  176SOPE  H13X20079   4.058   5.932   9.243  1.0464 -0.1080  0.7722
  176SOPE  H13Y20080   3.974   5.774   9.305 -0.4815  0.4409  1.1636
  176SOPE  C31420081   4.179   5.770   9.226  0.2180 -0.3493  0.7993
  176SOPE  H14X20082   4.218   5.681   9.280  0.2443 -0.0949  1.2044
  176SOPE  H14Y20083   4.260   5.845   9.213  2.3697 -3.1384 -2.8740
  176SOPE  C31520084   4.130   5.726   9.087  0.6382  0.1368 -0.7194
  176SOPE  H15X20085   4.223   5.706   9.029  0.8059 -3.0568  0.5732
  176SOPE  H15Y20086   4.071   5.805   9.035 -2.8779 -0.6751  1.8931
  176SOPE  C31620087   4.043   5.598   9.082 -0.4832  0.2010  0.1475
  176SOPE  H16X20088   3.950   5.604   9.143 -0.2105 -0.7730  0.6742
  176SOPE  H16Y20089   4.100   5.510   9.119 -2.0682 -0.5248  0.9130
  176SOPE  C31720090   4.007   5.573   8.931 -0.1848 -0.2530 -0.1699
  176SOPE  H17X20091   4.101   5.574   8.871 -0.5566  0.2955 -0.7564
  176SOPE  H17Y20092   3.958   5.665   8.893  1.2723  0.1480 -1.1040
  176SOPE  C31820093   3.917   5.459   8.904  0.0793 -1.0112  0.1902
  176SOPE  H18X20094   3.872   5.460   8.802 -1.8389  0.0683  1.0111
  176SOPE  H18Y20095   3.833   5.456   8.977 -0.1585  1.2850  0.0335
  176SOPE  H18Z20096   3.977   5.366   8.916 -0.7621 -1.4865  0.8058
  177SOPE     N20097   4.250   4.391  10.773 -0.4037  0.4060  0.2326
  177SOPE   HN120098   4.217   4.349  10.684  1.3052 -0.1132 -0.1857
  177SOPE   HN220099   4.161   4.422  10.817 -0.1373  0.4098  0.7628
  177SOPE   HN320100   4.311   4.473  10.755  1.6135 -1.2768 -0.8428
  177SOPE   C1220101   4.313   4.283  10.861 -0.5657 -0.6331 -0.2010
  177SOPE  H12A20102   4.317   4.332  10.961  0.5348 -1.6878  0.2823
  177SOPE  H12B20103   4.411   4.248  10.822 -0.0851  1.0707 -0.5483
  177SOPE   C1120104   4.211   4.167  10.874  0.1055 -0.0278  0.1959
  177SOPE  H11A20105   4.257   4.091  10.942 -3.4059 -3.6280 -1.2700
  177SOPE  H11B20106   4.198   4.130  10.770 -1.7509  0.2317  0.3171
  177SOPE     P20107   3.978   4.095  10.935 -0.3150 -0.3199  0.3748
  177SOPE   O1320108   3.867   4.147  11.015  0.0286 -0.3309 -0.3001
  177SOPE   O1420109   4.048   3.969  10.982 -0.2957 -0.1294 -0.3082
  177SOPE   O1220110   4.087   4.214  10.930 -0.2334  0.0438  0.0328
  177SOPE   O1120111   3.933   4.066  10.786  0.1296 -0.1915  0.3872
  177SOPE    C120112   3.910   4.184  10.705  0.7188 -0.7449  0.1563
  177SOPE    HA20113   3.972   4.273  10.731  0.0631 -0.6061  1.2716
  177SOPE    HB20114   3.805   4.218  10.715  0.8704  0.5927 -2.4165
  177SOPE    C220115   3.938   4.145  10.555  0.1244 -0.3580  0.5131
  177SOPE    HS20116   4.040   4.099  10.553 -0.1242 -0.8841 -3.4668
  177SOPE   O2120117   3.929   4.256  10.462  0.5755  0.6619 -0.1402
  177SOPE   C2120118   4.031   4.337  10.472  0.1358 -0.1786 -0.3874
  177SOPE   O2220119   4.133   4.323  10.533 -0.3919  0.4166  0.2219
  177SOPE   C2220120   4.006   4.455  10.380  0.2686  0.5479 -0.3050
  177SOPE   H2R20121   3.946   4.529  10.438  0.0291 -1.2579  1.8227
  177SOPE   H2S20122   3.957   4.431  10.283  0.1113  0.2269 -0.1464
  177SOPE    C320123   3.829   4.040  10.518  0.1275  0.6638 -0.8877
  177SOPE    HX20124   3.725   4.076  10.535  0.4684  1.0014  0.4852
  177SOPE    HY20125   3.855   3.958  10.587 -2.1251  0.7791  0.1507
  177SOPE   O3120126   3.855   3.998  10.381  0.3499  0.1964  0.2844
  177SOPE   C3120127   3.745   3.984  10.304 -0.5756  0.1003 -0.6322
  177SOPE   O3220128   3.635   4.033  10.334  0.0319 -0.1955  0.2754
  177SOPE   C3220129   3.781   3.910  10.180  0.4350  0.2145  0.5430
  177SOPE   H2X20130   3.716   3.820  10.187 -0.1898  0.5044 -1.2822
  177SOPE   H2Y20131   3.885   3.874  10.175  0.5095  0.2565  1.6765
  177SOPE   C2320132   4.145   4.524  10.344  0.1457  0.0890 -0.1583
  177SOPE   H3R20133   4.212   4.527  10.432 -1.4635  1.9106  1.0431
  177SOPE   H3S20134   4.103   4.624  10.317  0.2102 -0.5997 -2.9569
  177SOPE   C2420135   4.193   4.467  10.208 -0.0160  0.4129  0.7161
  177SOPE   H4R20136   4.200   4.356  10.204  0.7417  0.4846 -0.3692
  177SOPE   H4S20137   4.104   4.490  10.146  1.7061  3.3114 -0.8329
  177SOPE   C2520138   4.311   4.519  10.131  0.6778 -0.1481  0.3560
  177SOPE   H5R20139   4.306   4.630  10.130 -0.3146 -0.1934  0.1994
  177SOPE   H5S20140   4.401   4.485  10.187 -0.2983 -0.7700  1.5530
  177SOPE   C2620141   4.314   4.481   9.989  0.2018 -0.8525 -0.3904
  177SOPE   H6R20142   4.321   4.370   9.986  0.7062 -0.8157 -0.4632
  177SOPE   H6S20143   4.224   4.524   9.939  0.1215 -0.7674 -0.1729
  177SOPE   C2720144   4.437   4.530   9.924 -0.4299 -0.5922 -0.3991
  177SOPE   H7R20145   4.438   4.640   9.942  0.6273 -0.2122 -2.6119
  177SOPE   H7S20146   4.525   4.486   9.976 -1.4013 -0.8216  1.1008
  177SOPE   C2820147   4.444   4.500   9.774  0.0436 -0.2720  0.0600
  177SOPE   H8R20148   4.357   4.555   9.732  0.6813  1.0283  0.4132
  177SOPE   H8S20149   4.531   4.558   9.736  0.3782  0.2284  1.5588
  177SOPE   C2920150   4.449   4.355   9.730 -0.5936 -0.6014  0.6854
  177SOPE   H9120151   4.428   4.270   9.796  0.4157 -0.8635  0.6785
  177SOPE  C21020152   4.488   4.308   9.611 -0.8011  0.1628  0.0083
  177SOPE  H10120153   4.493   4.199   9.598 -3.3217 -0.3404  2.6287
  177SOPE  C21120154   4.528   4.389   9.494 -0.0113 -0.9412  0.0233
  177SOPE  H11R20155   4.631   4.422   9.519  0.6184 -1.6605 -1.5189
  177SOPE  H11S20156   4.464   4.479   9.486  0.1053 -0.9548 -1.2697
  177SOPE  C21220157   4.536   4.332   9.348 -0.3726  0.5912 -0.5624
  177SOPE  H12R20158   4.589   4.398   9.276 -0.5648  1.0567 -0.2766
  177SOPE  H12S20159   4.435   4.319   9.303 -0.3034  0.7692 -0.7669
  177SOPE  C21320160   4.601   4.192   9.331  0.1979 -0.4123  0.0347
  177SOPE  H13R20161   4.535   4.117   9.379  0.6645 -1.0847 -0.3725
  177SOPE  H13S20162   4.698   4.179   9.383 -0.2008 -3.3303  0.1316
  177SOPE  C21420163   4.619   4.162   9.184  0.2244 -0.1782 -0.1187
  177SOPE  H14R20164   4.693   4.233   9.143  0.0398 -1.1662 -2.1933
  177SOPE  H14S20165   4.520   4.185   9.138  1.2538 -0.4390 -2.5367
  177SOPE  C21520166   4.649   4.021   9.152 -0.7784  0.0302 -0.2240
  177SOPE  H15R20167   4.582   3.941   9.189  0.3063 -0.6495  0.3074
  177SOPE  H15S20168   4.745   3.994   9.202 -1.7719 -1.7474  0.7853
  177SOPE  C21620169   4.676   4.011   9.006  0.2018  0.0676  0.1507
  177SOPE  H16R20170   4.748   4.089   8.975  1.4918 -0.9670  0.4972
  177SOPE  H16S20171   4.579   4.047   8.964  0.2379 -1.6097 -1.4140
  177SOPE  C21720172   4.729   3.883   8.958 -0.4323  0.3659 -0.1517
  177SOPE  H17R20173   4.647   3.809   8.967 -1.1736  1.2174  0.2630
  177SOPE  H17S20174   4.806   3.841   9.025 -1.5801  0.2182  1.1071
  177SOPE  C21820175   4.775   3.883   8.807  0.2424  0.0846 -0.2112
  177SOPE  H18R20176   4.864   3.946   8.786 -2.1735  3.4358 -0.7336
  177SOPE  H18S20177   4.692   3.918   8.742  0.8323  3.3063  0.6906
  177SOPE  H18T20178   4.800   3.776   8.787 -1.5991 -0.1079 -1.6076
  177SOPE   C3320179   3.754   3.995  10.054  0.1286  0.5689  0.5217
  177SOPE   H3X20180   3.823   4.081  10.058  0.9603  0.0523 -1.9329
  177SOPE   H3Y20181   3.658   4.049  10.070 -0.9292 -0.9656 -0.4689
  177SOPE   C3420182   3.767   3.907   9.933 -0.1024 -0.5244 -0.3857
  177SOPE   H4X20183   3.726   3.809   9.965 -1.6009  0.4989  0.9025
  177SOPE   H4Y20184   3.876   3.903   9.911  0.5017  0.4694  2.1891
  177SOPE   C3520185   3.695   3.949   9.809  0.5522  0.1982  0.2299
  177SOPE   H5X20186   3.695   4.060   9.805 -2.1645  0.1626 -1.3137
  177SOPE   H5Y20187   3.592   3.910   9.820  1.0973 -1.4061 -0.2799
  177SOPE   C3620188   3.759   3.909   9.685 -0.0837 -0.2882 -0.1804
  177SOPE   H6X20189   3.789   3.802   9.690  0.1510 -0.1797  0.9009
  177SOPE   H6Y20190   3.860   3.956   9.685  0.8264 -2.2171  0.2012
  177SOPE   C3720191   3.703   3.959   9.552 -0.1579  0.2751 -0.5550
  177SOPE   H7X20192   3.663   4.062   9.554  0.0744  0.3451  0.8305
  177SOPE   H7Y20193   3.613   3.897   9.535 -0.9111  1.0211  0.6404
  177SOPE   C3820194   3.800   3.926   9.427 -0.3688 -0.5215  0.1226
  177SOPE   H8X20195   3.819   3.817   9.423  0.2059 -0.3680 -3.2555
  177SOPE   H8Y20196   3.900   3.968   9.450  0.3397 -0.8488 -2.2044
  177SOPE   C3920197   3.756   3.983   9.289  0.1828 -0.3636 -0.1292
  177SOPE   H9X20198   3.825   3.957   9.206 -0.4575  1.0318 -1.1106
  177SOPE   H9Y20199   3.760   4.094   9.292 -1.0884 -0.2244 -2.9913
  177SOPE  C31020200   3.620   3.929   9.227 -0.0637  0.3281 -0.1469
  177SOPE  H10X20201   3.577   3.988   9.143 -0.7806 -2.0988 -1.5253
  177SOPE  H10Y20202   3.550   3.918   9.313 -1.3389  1.0575 -1.0747
  177SOPE  C31120203   3.634   3.785   9.162  0.2733 -0.5352 -0.5381
  177SOPE  H11X20204   3.545   3.723   9.185  1.3227 -2.0064 -0.2721
  177SOPE  H11Y20205   3.709   3.726   9.221  1.2872  0.6249 -0.6507
  177SOPE  C31220206   3.665   3.776   9.016  0.3329 -0.1483  1.0448
  177SOPE  H12X20207   3.731   3.857   8.978  1.8546 -1.8408 -0.0102
  177SOPE  H12Y20208   3.567   3.776   8.963  1.9068 -1.2263 -1.9751
  177SOPE  C31320209   3.753   3.653   8.974 -0.1291 -0.6188  0.6133
  177SOPE  H13X20210   3.684   3.568   8.993 -3.1036  1.3021 -1.1960
  177SOPE  H13Y20211   3.836   3.635   9.046  0.9055 -1.2306 -0.7080
  177SOPE  C31420212   3.817   3.661   8.836  0.1678  0.2642 -0.6937
  177SOPE  H14X20213   3.876   3.569   8.815 -1.9445 -1.9725  2.6528
  177SOPE  H14Y20214   3.874   3.754   8.816 -0.4634  1.3973  2.4161
  177SOPE  C31520215   3.712   3.658   8.722 -0.1023  0.5333 -0.0041
  177SOPE  H15X20216   3.648   3.746   8.743  1.7521  1.6027  1.3935
  177SOPE  H15Y20217   3.657   3.562   8.731  1.5885 -0.5946 -1.3011
  177SOPE  C31620218   3.793   3.670   8.595 -0.1621 -1.2848 -0.2700
  177SOPE  H16X20219   3.888   3.614   8.607  0.5388  0.2888  2.0193
  177SOPE  H16Y20220   3.828   3.775   8.583 -0.4063 -1.0573  0.9113
  177SOPE  C31720221   3.715   3.636   8.473  0.0220 -0.2920 -0.2055
  177SOPE  H17X20222   3.643   3.552   8.460  0.0797 -0.5137  0.8874
  177SOPE  H17Y20223   3.785   3.618   8.388 -0.0009 -0.1407 -0.2567
  177SOPE  C31820224   3.626   3.758   8.440  0.0031  0.1528  0.2209
  177SOPE  H18X20225   3.577   3.745   8.341  0.0606 -0.6634  0.2911
  177SOPE  H18Y20226   3.691   3.848   8.448  1.6958 -0.8116 -2.0665
  177SOPE  H18Z20227   3.540   3.756   8.509 -0.9634 -0.2099 -0.9698
  178SOPE     N20228   1.098   1.980  10.727  0.3815  0.0098  0.4136
  178SOPE   HN120229   1.002   1.955  10.694  0.8459  1.9649 -2.6470
  178SOPE   HN220230   1.122   1.905  10.795  0.2817  1.3611  1.9529
  178SOPE   HN320231   1.087   2.069  10.779 -1.1969 -1.1433  2.1209
  178SOPE   C1220232   1.197   2.007  10.618 -0.1528 -0.3128  0.4802
  178SOPE  H12A20233   1.167   2.106  10.576 -1.9619 -0.9999  0.1049
  178SOPE  H12B20234   1.180   1.927  10.543 -0.0531 -0.1181  0.2475
  178SOPE   C1120235   1.344   2.006  10.646  0.3084  0.1658 -0.5734
  178SOPE  H11A20236   1.374   2.089  10.713  0.5735  1.3922 -2.1842
  178SOPE  H11B20237   1.404   2.030  10.555  2.0311 -3.4310 -0.4648
  178SOPE     P20238   1.508   1.837  10.732 -0.1988  0.5603  0.2985
  178SOPE   O1320239   1.507   1.699  10.790 -0.2098  0.7060 -0.0196
  178SOPE   O1420240   1.560   1.937  10.825 -0.2761  0.3256 -0.0429
  178SOPE   O1220241   1.361   1.884  10.708 -0.2458  0.1689 -0.0449
  178SOPE   O1120242   1.580   1.850  10.599  0.4061 -0.8360 -0.2573
  178SOPE    C120243   1.543   1.766  10.491  0.4518 -0.0995 -0.1920
  178SOPE    HA20244   1.433   1.771  10.471  0.8289 -1.0397 -2.6959
  178SOPE    HB20245   1.564   1.659  10.515  0.5910  0.2864  1.4232
  178SOPE    C220246   1.600   1.811  10.354 -0.0091 -0.4762 -0.7131
  178SOPE    HS20247   1.559   1.736  10.282  0.6079  0.4122 -1.9951
  178SOPE   O2120248   1.742   1.790  10.357  0.1400 -0.2666 -0.1206
  178SOPE   C2120249   1.780   1.656  10.336 -0.2239  0.1113 -0.7933
  178SOPE   O2220250   1.701   1.565  10.347  0.0142  0.0300  0.3834
  178SOPE   C2220251   1.923   1.639  10.292  0.1719  0.1888 -0.1120
  178SOPE   H2R20252   1.931   1.534  10.256  0.9752 -0.2532  1.3578
  178SOPE   H2S20253   1.987   1.658  10.380  0.8732  0.8185 -0.7570
  178SOPE    C320254   1.554   1.947  10.320  0.3026  0.0937  0.2560
  178SOPE    HX20255   1.585   2.010  10.406 -3.0636  2.1719  0.0121
  178SOPE    HY20256   1.444   1.960  10.329  0.0359 -1.0976 -1.1021
  178SOPE   O3120257   1.609   1.989  10.193 -0.1376 -0.3838  0.4203
  178SOPE   C3120258   1.733   2.056  10.199  0.2350  0.4718 -0.2321
  178SOPE   O3220259   1.789   2.086  10.303 -0.0921  0.3206  0.3822
  178SOPE   C3220260   1.779   2.092  10.061  0.3066  0.8889  0.1567
  178SOPE   H2X20261   1.888   2.093  10.082  0.5324  1.2551 -1.0270
  178SOPE   H2Y20262   1.743   2.194  10.038  0.4096  1.3327  1.8686
  178SOPE   C2320263   1.950   1.732  10.169 -0.7311  0.7225 -0.3452
  178SOPE   H3R20264   1.915   1.833  10.199 -1.1855  0.8807 -1.3865
  178SOPE   H3S20265   1.895   1.691  10.081 -1.0781  1.7410 -0.6120
  178SOPE   C2420266   2.099   1.747  10.135  0.1701 -0.4546  0.2662
  178SOPE   H4R20267   2.160   1.780  10.222  1.9160  0.7620 -1.3788
  178SOPE   H4S20268   2.146   1.650  10.108  1.1301  0.1215 -0.1529
  178SOPE   C2520269   2.112   1.837  10.005  0.4584 -0.8695  0.9084
  178SOPE   H5R20270   2.041   1.799   9.929  0.7566  1.8809 -0.7730
  178SOPE   H5S20271   2.085   1.939  10.041  1.2499 -0.0788 -0.7179
  178SOPE   C2620272   2.250   1.859   9.945  0.2424  0.3683 -0.0076
  178SOPE   H6R20273   2.295   1.765   9.908  0.5717  0.0843  1.1134
  178SOPE   H6S20274   2.234   1.927   9.858 -1.6855 -1.0162 -0.7722
  178SOPE   C2720275   2.348   1.930  10.028 -0.5352 -0.1945  0.0252
  178SOPE   H7R20276   2.321   2.035  10.050 -1.0536 -0.1504 -0.7794
  178SOPE   H7S20277   2.367   1.876  10.123  0.4363  0.3113  0.1213
  178SOPE   C2820278   2.493   1.925   9.963  0.5629 -0.2964 -0.0005
  178SOPE   H8R20279   2.576   1.935  10.036 -1.0329  0.1133  1.7879
  178SOPE   H8S20280   2.502   1.818   9.932 -2.1621 -1.1519  2.0387
  178SOPE   C2920281   2.516   2.011   9.841  0.0478  0.2323  0.2663
  178SOPE   H9120282   2.508   2.118   9.865  1.4310  0.5635 -0.7149
  178SOPE  C21020283   2.545   1.966   9.718  0.3127  0.3397 -0.3204
  178SOPE  H10120284   2.542   2.038   9.634  0.7402 -0.3380 -0.9264
  178SOPE  C21120285   2.556   1.824   9.656 -0.5548  0.0463 -0.8554
  178SOPE  H11R20286   2.556   1.753   9.741 -0.2197  1.1250  0.0424
  178SOPE  H11S20287   2.647   1.810   9.595 -0.5301  0.7952 -0.9923
  178SOPE  C21220288   2.442   1.779   9.559  0.7488 -0.3734 -1.0879
  178SOPE  H12R20289   2.403   1.872   9.514 -0.6840  0.7598  2.3434
  178SOPE  H12S20290   2.359   1.736   9.618  1.4260 -1.5501 -0.9709
  178SOPE  C21320291   2.481   1.663   9.464 -0.3850 -0.4143 -0.5316
  178SOPE  H13R20292   2.394   1.641   9.398 -2.1418  2.8905  0.5602
  178SOPE  H13S20293   2.501   1.572   9.524 -2.3314  0.9953  2.3968
  178SOPE  C21420294   2.584   1.681   9.352 -1.3316 -0.2099 -0.3402
  178SOPE  H14R20295   2.600   1.587   9.294  0.2945  0.2855 -0.7265
  178SOPE  H14S20296   2.677   1.707   9.407 -1.0662  0.9219 -1.2943
  178SOPE  C21520297   2.570   1.793   9.247 -0.6145  0.3802 -0.4163
  178SOPE  H15R20298   2.544   1.891   9.292  0.3830  0.7836 -0.6986
  178SOPE  H15S20299   2.491   1.762   9.175  0.2149 -1.8705 -0.4019
  178SOPE  C21620300   2.698   1.822   9.162  0.6712 -0.4841  0.5744
  178SOPE  H16R20301   2.732   1.733   9.106  1.5765  1.3703 -1.9344
  178SOPE  H16S20302   2.777   1.856   9.233  1.2498  0.6643 -0.6022
  178SOPE  C21720303   2.679   1.925   9.056  0.4186  0.1910  0.9867
  178SOPE  H17R20304   2.622   2.014   9.090 -2.1840 -0.0714 -2.3434
  178SOPE  H17S20305   2.607   1.887   8.980  0.4989  0.7498  0.6209
  178SOPE  C21820306   2.810   1.950   8.980  0.2533 -0.2665  0.4672
  178SOPE  H18R20307   2.872   2.018   9.042 -1.3266  0.3700  1.3929
  178SOPE  H18S20308   2.799   1.993   8.878  2.3237 -1.2570 -0.1881
  178SOPE  H18T20309   2.867   1.855   8.971  2.2143  0.7857  1.4188
  178SOPE   C3320310   1.737   1.981   9.955  0.5429  0.7801 -0.2408
  178SOPE   H3X20311   1.631   2.007   9.932  0.3192 -0.4346 -0.6571
  178SOPE   H3Y20312   1.735   1.876   9.991  0.3686  1.1568  0.8572
  178SOPE   C3420313   1.808   1.988   9.821  0.3943 -0.4289 -0.8188
  178SOPE   H4X20314   1.909   2.032   9.836  0.7143 -1.4786  0.1567
  178SOPE   H4Y20315   1.763   2.061   9.750  0.7388 -1.3571 -2.0054
  178SOPE   C3520316   1.810   1.848   9.759  0.4018 -0.0901 -0.0676
  178SOPE   H5X20317   1.708   1.819   9.726  0.4371 -1.4376  0.9727
  178SOPE   H5Y20318   1.852   1.772   9.828  1.0560  0.2691 -0.0676
  178SOPE   C3620319   1.906   1.843   9.637  0.3022 -0.0091 -0.3380
  178SOPE   H6X20320   2.011   1.847   9.675  0.7398 -3.6676 -1.0094
  178SOPE   H6Y20321   1.873   1.933   9.581 -0.0558 -0.3433 -0.6630
  178SOPE   C3720322   1.890   1.719   9.558  1.4025  0.3776 -0.0970
  178SOPE   H7X20323   1.781   1.696   9.546  1.0954  2.3887 -1.4099
  178SOPE   H7Y20324   1.939   1.632   9.607 -1.1339 -0.8881  0.3171
  178SOPE   C3820325   1.934   1.738   9.413 -0.1724  0.3937  0.3102
  178SOPE   H8X20326   1.902   1.838   9.378 -0.6440 -0.2687 -1.2058
  178SOPE   H8Y20327   1.891   1.662   9.344  1.8428  0.6424 -1.2465
  178SOPE   C3920328   2.094   1.747   9.392 -0.5342  0.0389  0.5045
  178SOPE   H9X20329   2.138   1.648   9.415 -0.4684 -0.3472 -1.2423
  178SOPE   H9Y20330   2.122   1.822   9.469  0.0673 -0.5526  0.8667
  178SOPE  C31020331   2.146   1.801   9.258  1.0267  0.5457 -0.2108
  178SOPE  H10X20332   2.244   1.850   9.277  1.2379 -0.3330  1.0041
  178SOPE  H10Y20333   2.073   1.877   9.223  0.2438 -0.8983 -1.8092
  178SOPE  C31120334   2.160   1.684   9.160  0.0090  0.2211 -0.5141
  178SOPE  H11X20335   2.069   1.621   9.157 -0.2501  0.6376 -2.6799
  178SOPE  H11Y20336   2.232   1.613   9.206 -0.5109  0.5424  0.7983
  178SOPE  C31220337   2.181   1.736   9.022  0.0908  0.4730 -0.2181
  178SOPE  H12X20338   2.280   1.785   9.025  0.1063  0.3509  1.6224
  178SOPE  H12Y20339   2.101   1.804   8.985  0.2579 -0.6781 -2.7778
  178SOPE  C31320340   2.211   1.628   8.920 -0.1471  0.2575  0.2712
  178SOPE  H13X20341   2.114   1.598   8.874 -0.4469  0.7528  0.5774
  178SOPE  H13Y20342   2.236   1.533   8.971 -0.2076  0.7972  1.3208
  178SOPE  C31420343   2.319   1.661   8.815  0.1492  0.1642 -0.0951
  178SOPE  H14X20344   2.323   1.582   8.737 -1.7325  0.8967 -0.9536
  178SOPE  H14Y20345   2.414   1.664   8.873  1.2657  0.2786 -1.8883
  178SOPE  C31520346   2.296   1.797   8.740  0.7592  0.1618 -0.9371
  178SOPE  H15X20347   2.290   1.879   8.815  1.8443 -1.2724  0.7560
  178SOPE  H15Y20348   2.199   1.792   8.686  0.7875  2.6193 -1.2664
  178SOPE  C31620349   2.414   1.825   8.643  0.7360  0.1678  0.1827
  178SOPE  H16X20350   2.413   1.764   8.550  1.4634  0.0807  0.2266
  178SOPE  H16Y20351   2.508   1.788   8.689  1.2382 -0.1990 -1.1084
  178SOPE  C31720352   2.430   1.970   8.607 -0.0176  0.3985 -0.2349
  178SOPE  H17X20353   2.338   2.020   8.569 -0.8935  0.0687  1.4192
  178SOPE  H17Y20354   2.494   1.974   8.516  0.3280 -1.4189 -0.0806
  178SOPE  C31820355   2.488   2.054   8.721 -0.4216 -0.1066  0.7123
  178SOPE  H18X20356   2.410   2.065   8.799  0.6706  2.3729  1.5034
  178SOPE  H18Y20357   2.521   2.153   8.685 -0.3876 -1.0222 -1.9050
  178SOPE  H18Z20358   2.571   1.992   8.762 -1.6296 -0.3528  2.8773
  179SOPE     N20359   6.595   2.764   6.402 -0.1114  0.4912 -0.6591
  179SOPE   HN120360   6.681   2.821   6.394  0.5175 -0.4550 -0.7950
  179SOPE   HN220361   6.618   2.676   6.352  0.3507  1.3758 -2.0114
  179SOPE   HN320362   6.518   2.811   6.351  0.9280  0.1488 -2.5766
  179SOPE   C1220363   6.561   2.737   6.545  0.4024  0.3660 -0.3290
  179SOPE  H12A20364   6.628   2.654   6.579  0.3636  0.4382 -0.0765
  179SOPE  H12B20365   6.455   2.703   6.544  0.3510  0.2460  2.8836
  179SOPE   C1120366   6.572   2.867   6.630 -0.2596 -0.0390  1.0440
  179SOPE  H11A20367   6.673   2.904   6.605 -0.0247  0.1793  2.2849
  179SOPE  H11B20368   6.569   2.843   6.738  1.1492  0.0327  1.1079
  179SOPE     P20369   6.491   3.097   6.535 -0.0303 -0.3774 -0.2593
  179SOPE   O1320370   6.374   3.182   6.554  0.6098 -0.4863  0.7379
  179SOPE   O1420371   6.530   3.074   6.399  0.3823  0.1153 -0.2612
  179SOPE   O1220372   6.463   2.962   6.608 -0.0877  0.2287  0.1802
  179SOPE   O1120373   6.619   3.163   6.614  1.1252 -0.2864  0.3885
  179SOPE    C120374   6.618   3.178   6.754 -0.1483  0.0046  0.5770
  179SOPE    HA20375   6.672   3.089   6.793 -1.7464 -0.9202  0.7382
  179SOPE    HB20376   6.519   3.163   6.802 -0.3277  1.4369  0.6564
  179SOPE    C220377   6.669   3.320   6.784  0.5961 -0.0458  0.1501
  179SOPE    HS20378   6.774   3.329   6.747  1.0737 -0.9240  1.2474
  179SOPE   O2120379   6.666   3.336   6.931  0.3608 -0.1120  0.3798
  179SOPE   C2120380   6.766   3.279   6.985  0.2450 -0.2331 -0.2796
  179SOPE   O2220381   6.851   3.210   6.936  0.4073  0.2885  0.1994
  179SOPE   C2220382   6.750   3.303   7.141 -0.1039  0.6913 -0.3016
  179SOPE   H2R20383   6.646   3.339   7.157 -1.6924 -3.5434 -0.4850
  179SOPE   H2S20384   6.825   3.382   7.161  1.2265 -0.7186  0.3720
  179SOPE    C320385   6.576   3.433   6.721 -0.2655 -0.0751 -0.0252
  179SOPE    HX20386   6.471   3.408   6.749 -1.0144  2.4291 -0.4843
  179SOPE    HY20387   6.576   3.430   6.610 -0.9804  1.3943 -0.0680
  179SOPE   O3120388   6.606   3.562   6.778 -0.0045  0.4240  0.7183
  179SOPE   C3120389   6.720   3.617   6.732  0.6468  0.4942  0.3126
  179SOPE   O3220390   6.797   3.560   6.659 -0.2937  0.0840  0.8985
  179SOPE   C3220391   6.728   3.757   6.781  0.1007  0.2418 -0.4063
  179SOPE   H2X20392   6.632   3.801   6.817 -0.1767 -1.6238  1.2087
  179SOPE   H2Y20393   6.766   3.820   6.698 -0.5793  0.6474 -0.4168
  179SOPE   C2320394   6.771   3.182   7.234 -0.1286  0.3636  0.3986
  179SOPE   H3R20395   6.860   3.126   7.200  0.1120  0.7336  0.4099
  179SOPE   H3S20396   6.696   3.105   7.205 -0.2554  0.0990  1.4066
  179SOPE   C2420397   6.759   3.216   7.383  0.3879 -0.3850  0.3669
  179SOPE   H4R20398   6.655   3.254   7.395  1.3201  2.8818 -1.2947
  179SOPE   H4S20399   6.754   3.123   7.444  0.2731  0.7556  2.1256
  179SOPE   C2520400   6.860   3.321   7.440 -0.3576  0.3213 -0.1208
  179SOPE   H5R20401   6.941   3.334   7.366 -1.5652 -0.9742 -1.7248
  179SOPE   H5S20402   6.805   3.417   7.451 -0.2779  0.2171  1.2993
  179SOPE   C2620403   6.928   3.292   7.573  0.0990  0.7177 -0.2836
  179SOPE   H6R20404   6.984   3.197   7.560  0.0360  0.4285  1.4373
  179SOPE   H6S20405   6.997   3.378   7.589 -0.8694  1.3979  0.2770
  179SOPE   C2720406   6.824   3.268   7.683  0.1969  0.2070 -0.1692
  179SOPE   H7R20407   6.728   3.322   7.669 -0.3741 -0.4902  0.9897
  179SOPE   H7S20408   6.797   3.160   7.677  1.6212 -0.4580  3.7068
  179SOPE   C2820409   6.879   3.291   7.828 -0.1071 -0.3848 -0.5990
  179SOPE   H8R20410   6.958   3.217   7.853  0.6413  0.3685 -0.7066
  179SOPE   H8S20411   6.931   3.389   7.826  2.1510 -1.5322  0.3592
  179SOPE   C2920412   6.766   3.306   7.924  0.1660 -0.6266  0.1000
  179SOPE   H9120413   6.680   3.363   7.885 -0.4651 -1.8179 -0.2824
  179SOPE  C21020414   6.760   3.263   8.049 -0.2812 -0.7706  0.2721
  179SOPE  H10120415   6.664   3.286   8.098  0.8290 -0.3473  2.3110
  179SOPE  C21120416   6.869   3.196   8.132 -0.5934  0.4909 -0.1009
  179SOPE  H11R20417   6.974   3.215   8.101 -0.7224  3.8170  1.2484
  179SOPE  H11S20418   6.850   3.089   8.110  0.8775 -0.1365  1.5209
  179SOPE  C21220419   6.858   3.212   8.285 -0.2548 -0.0335  0.3637
  179SOPE  H12R20420   6.857   3.323   8.290 -1.1804 -0.0756  1.0298
  179SOPE  H12S20421   6.949   3.177   8.338  1.3505 -0.5032 -2.5681
  179SOPE  C21320422   6.730   3.144   8.335 -0.0735 -0.5656  0.4340
  179SOPE  H13R20423   6.762   3.038   8.347 -1.2019 -1.0211 -0.3660
  179SOPE  H13S20424   6.654   3.141   8.253 -0.3159 -1.5855  0.6857
  179SOPE  C21420425   6.675   3.201   8.467  0.1684  0.0532 -0.1939
  179SOPE  H14R20426   6.645   3.305   8.441 -2.7032 -0.9553 -1.0791
  179SOPE  H14S20427   6.755   3.196   8.544 -0.1682  0.1260  0.1622
  179SOPE  C21520428   6.551   3.130   8.505 -0.0242 -0.5743  0.9078
  179SOPE  H15R20429   6.563   3.019   8.503  0.0764 -0.5556  0.5675
  179SOPE  H15S20430   6.476   3.146   8.425 -2.7296 -1.7660  3.0860
  179SOPE  C21620431   6.498   3.164   8.645  0.1353  0.1236  0.6154
  179SOPE  H16R20432   6.459   3.267   8.633 -1.2869 -0.3997  0.6399
  179SOPE  H16S20433   6.587   3.161   8.712  0.5556  1.7942  0.1405
  179SOPE  C21720434   6.387   3.063   8.690 -0.4500 -0.7947  0.1803
  179SOPE  H17R20435   6.372   3.082   8.798  0.4985 -0.7784  0.3113
  179SOPE  H17S20436   6.419   2.957   8.679  0.9295 -0.4817  1.0889
  179SOPE  C21820437   6.247   3.085   8.622 -1.0017  0.3216 -0.7530
  179SOPE  H18R20438   6.216   3.183   8.664 -0.2422  0.6653 -0.9726
  179SOPE  H18S20439   6.185   2.997   8.648  1.6769 -1.8218 -1.3067
  179SOPE  H18T20440   6.259   3.107   8.513 -2.5251  0.5690 -0.8738
  179SOPE   C3320441   6.836   3.754   6.884  0.5494 -0.4342 -0.4138
  179SOPE   H3X20442   6.870   3.859   6.899 -0.7523  0.0868 -1.0155
  179SOPE   H3Y20443   6.928   3.696   6.862  1.8213  1.5803 -0.5523
  179SOPE   C3420444   6.784   3.702   7.016  0.4243  0.5565 -0.5872
  179SOPE   H4X20445   6.750   3.596   7.012  2.1382 -0.0275 -0.1088
  179SOPE   H4Y20446   6.687   3.753   7.035  1.1351  2.7266 -2.5672
  179SOPE   C3520447   6.866   3.712   7.147 -0.1202  0.0592 -0.6161
  179SOPE   H5X20448   6.906   3.814   7.167 -1.2653 -0.0317  2.3715
  179SOPE   H5Y20449   6.951   3.640   7.139 -0.1360  0.1036 -1.2187
  179SOPE   C3620450   6.784   3.685   7.269  0.1135  0.3519 -0.2609
  179SOPE   H6X20451   6.748   3.580   7.273  2.3008 -0.5062 -1.7738
  179SOPE   H6Y20452   6.703   3.760   7.281  2.0171  2.3651  0.2299
  179SOPE   C3720453   6.868   3.725   7.386 -0.7365 -0.2099 -0.4115
  179SOPE   H7X20454   6.913   3.827   7.382  0.9476 -0.9176 -0.0590
  179SOPE   H7Y20455   6.961   3.664   7.395 -0.3646  0.2649 -0.9762
  179SOPE   C3820456   6.783   3.719   7.517  0.2223 -0.7963  0.3152
  179SOPE   H8X20457   6.731   3.621   7.523  1.3489 -1.4455 -0.5883
  179SOPE   H8Y20458   6.701   3.794   7.510  0.9103 -0.2032 -1.7228
  179SOPE   C3920459   6.865   3.758   7.641 -0.2521  0.1253  0.2241
  179SOPE   H9X20460   6.908   3.858   7.616  2.7056 -0.7732  1.4421
  179SOPE   H9Y20461   6.949   3.685   7.640 -1.5114 -1.3543 -0.4275
  179SOPE  C31020462   6.780   3.759   7.762 -0.2779  0.4762  0.0063
  179SOPE  H10X20463   6.710   3.674   7.748  2.3608 -1.5083 -1.5813
  179SOPE  H10Y20464   6.713   3.847   7.757  0.7539  1.2883  0.1301
  179SOPE  C31120465   6.855   3.760   7.900  0.8287 -0.0935  0.1588
  179SOPE  H11X20466   6.929   3.842   7.907 -0.4490  0.8941  2.7015
  179SOPE  H11Y20467   6.918   3.670   7.914 -0.7893 -1.2772 -0.0072
  179SOPE  C31220468   6.748   3.790   8.007 -0.5711  0.0441 -0.9439
  179SOPE  H12X20469   6.667   3.715   7.992 -0.4465 -0.0420 -1.1929
  179SOPE  H12Y20470   6.706   3.891   7.989 -2.1728  0.1515  2.9140
  179SOPE  C31320471   6.801   3.788   8.146  0.5152  0.6208  0.5601
  179SOPE  H13X20472   6.715   3.811   8.212  0.6934  0.1813  0.9463
  179SOPE  H13Y20473   6.879   3.865   8.164  3.1526 -2.3115  2.1787
  179SOPE  C31420474   6.869   3.653   8.191  0.4561 -0.3394  0.0817
  179SOPE  H14X20475   6.949   3.623   8.120 -0.5434 -1.2083 -0.6788
  179SOPE  H14Y20476   6.794   3.574   8.172  2.7426 -2.6612  0.5179
  179SOPE  C31520477   6.933   3.646   8.325 -0.9093 -0.1234 -0.3268
  179SOPE  H15X20478   6.949   3.750   8.358 -2.7365 -0.3678  1.4242
  179SOPE  H15Y20479   7.026   3.588   8.346 -2.3457 -2.4113 -0.0386
  179SOPE  C31620480   6.835   3.598   8.431 -0.7376 -0.2081 -0.0987
  179SOPE  H16X20481   6.807   3.491   8.419 -0.3814 -0.3979  0.7399
  179SOPE  H16Y20482   6.744   3.660   8.417 -2.9641 -3.3067 -0.0611
  179SOPE  C31720483   6.878   3.642   8.574 -0.1651 -0.1541 -0.4406
  179SOPE  H17X20484   6.888   3.752   8.581 -0.6909 -0.0138 -1.6178
  179SOPE  H17Y20485   6.983   3.608   8.580 -0.9958 -2.7403 -0.0150
  179SOPE  C31820486   6.785   3.601   8.693  0.0944  0.1614 -0.4488
  179SOPE  H18X20487   6.837   3.628   8.787 -1.4445 -0.2123  0.5276
  179SOPE  H18Y20488   6.769   3.491   8.691  1.7455 -0.0998  0.5829
  179SOPE  H18Z20489   6.681   3.639   8.684 -0.2816 -0.1493  2.2925
  180SOPE     N20490   5.443   3.399   5.955 -0.4969 -0.8642 -0.5888
  180SOPE   HN120491   5.394   3.477   6.002  0.8851 -0.5732  0.3932
  180SOPE   HN220492   5.544   3.396   5.978 -0.6397 -1.5888 -0.0409
  180SOPE   HN320493   5.437   3.414   5.852  1.0247 -0.1498 -0.5807
  180SOPE   C1220494   5.389   3.270   5.991 -0.2176 -0.0883 -0.1241
  180SOPE  H12A20495   5.416   3.195   5.914  1.9200 -0.3013  0.7925
  180SOPE  H12B20496   5.278   3.279   5.985 -0.2095  0.7412  0.9047
  180SOPE   C1120497   5.444   3.228   6.130  0.1293 -0.5280 -0.2147
  180SOPE  H11A20498   5.410   3.124   6.152  3.1932 -1.3621  0.8825
  180SOPE  H11B20499   5.399   3.291   6.209  0.7141  1.7295 -1.6385
  180SOPE     P20500   5.665   3.163   6.248 -0.0658 -0.1181  0.0532
  180SOPE   O1320501   5.800   3.122   6.192  0.0951  0.3826  0.5464
  180SOPE   O1420502   5.578   3.053   6.305 -0.0455  0.5441 -0.3384
  180SOPE   O1220503   5.585   3.234   6.135 -0.5723  0.4586  0.5796
  180SOPE   O1120504   5.695   3.268   6.358 -0.4953  0.0826  0.0848
  180SOPE    C120505   5.594   3.333   6.436 -0.3899 -0.1799  0.6192
  180SOPE    HA20506   5.510   3.263   6.457  0.5079 -1.3959  0.1680
  180SOPE    HB20507   5.557   3.413   6.368  0.9905 -0.1920 -0.1574
  180SOPE    C220508   5.658   3.394   6.562 -0.4589 -0.2565 -0.3912
  180SOPE    HS20509   5.737   3.463   6.526  0.4222 -0.5927  0.8677
  180SOPE   O2120510   5.703   3.293   6.649  0.3447 -0.2651 -0.0350
  180SOPE   C2120511   5.830   3.251   6.631  0.5523  0.3816 -0.8400
  180SOPE   O2220512   5.910   3.315   6.572 -0.5920 -0.0124 -0.5748
  180SOPE   C2220513   5.847   3.114   6.702 -0.0193  0.2468  0.7103
  180SOPE   H2R20514   5.909   3.064   6.625 -2.7089  1.8031 -2.6134
  180SOPE   H2S20515   5.754   3.057   6.723 -0.3409  0.7249  0.6041
  180SOPE    C320516   5.555   3.482   6.637  0.5347 -0.1034  0.8636
  180SOPE    HX20517   5.465   3.417   6.644  1.6589 -1.9699 -1.2025
  180SOPE    HY20518   5.545   3.569   6.569  0.1391 -0.5607  0.3322
  180SOPE   O3120519   5.609   3.538   6.763  0.3366 -0.0351  0.4370
  180SOPE   C3120520   5.605   3.452   6.867  0.6230 -0.4239 -0.0443
  180SOPE   O3220521   5.552   3.344   6.873 -0.3948  0.2786 -0.4506
  180SOPE   C3220522   5.669   3.522   6.987  0.5028  0.0589  0.2579
  180SOPE   H2X20523   5.617   3.616   7.014  1.0405  0.9033 -1.5301
  180SOPE   H2Y20524   5.777   3.529   6.961  0.1314  0.5522 -1.1770
  180SOPE   C2320525   5.920   3.108   6.833 -0.4362 -0.1353  0.4224
  180SOPE   H3R20526   6.013   3.168   6.827 -0.7526  0.3296  0.0928
  180SOPE   H3S20527   5.943   3.000   6.844 -0.9125 -0.2540  0.2775
  180SOPE   C2420528   5.833   3.149   6.951  0.4396 -0.3024 -0.7038
  180SOPE   H4R20529   5.818   3.259   6.954  1.4384 -0.1269 -1.5679
  180SOPE   H4S20530   5.731   3.112   6.926  0.6274  0.2190 -2.2710
  180SOPE   C2520531   5.893   3.087   7.072  0.4134 -0.4186 -1.0889
  180SOPE   H5R20532   5.886   2.976   7.073 -0.0195 -0.3871  0.1739
  180SOPE   H5S20533   6.004   3.100   7.070  0.3860 -0.0326 -0.3348
  180SOPE   C2620534   5.824   3.121   7.202 -0.0421 -0.5698 -0.4126
  180SOPE   H6R20535   5.843   3.228   7.229 -1.6894 -0.2980 -0.2686
  180SOPE   H6S20536   5.713   3.121   7.192 -0.1152 -0.1222  0.3318
  180SOPE   C2720537   5.883   3.032   7.308  0.2572 -0.0859 -0.0036
  180SOPE   H7R20538   5.881   2.929   7.266 -0.8859 -0.8286  1.7794
  180SOPE   H7S20539   5.986   3.072   7.315  0.3094 -0.5643  2.3804
  180SOPE   C2820540   5.817   3.039   7.442 -0.2663  0.9795  0.6472
  180SOPE   H8R20541   5.806   3.147   7.465  0.2770  1.4184 -1.0808
  180SOPE   H8S20542   5.713   3.000   7.435  0.1093  0.5231 -3.6752
  180SOPE   C2920543   5.903   2.958   7.537  0.1348  0.0604  0.0507
  180SOPE   H9120544   5.949   2.870   7.490 -0.9449  0.3273 -1.5748
  180SOPE  C21020545   5.899   2.972   7.668 -0.3453  0.3654 -0.6046
  180SOPE  H10120546   5.963   2.912   7.735 -1.0190  1.7649  1.3342
  180SOPE  C21120547   5.813   3.064   7.751  0.2635 -0.5527  0.0626
  180SOPE  H11R20548   5.729   3.092   7.683 -1.1582 -2.1810  1.0902
  180SOPE  H11S20549   5.862   3.159   7.780  1.8932 -0.9284 -1.4018
  180SOPE  C21220550   5.742   3.002   7.886 -0.1872 -0.6765  0.4254
  180SOPE  H12R20551   5.677   3.087   7.917 -1.4630 -1.6612  0.5385
  180SOPE  H12S20552   5.822   2.964   7.954  1.6229  0.2655 -1.1549
  180SOPE  C21320553   5.644   2.887   7.858 -0.9320  0.5143 -0.2990
  180SOPE  H13R20554   5.698   2.807   7.803  1.2929  1.2742  0.6991
  180SOPE  H13S20555   5.562   2.907   7.787 -1.2692  3.1537  0.7815
  180SOPE  C21420556   5.584   2.833   7.991 -0.5103 -0.1766 -0.0163
  180SOPE  H14R20557   5.674   2.826   8.055 -1.2774 -2.0207  0.9064
  180SOPE  H14S20558   5.546   2.729   7.979  0.1344 -0.3659 -0.3950
  180SOPE  C21520559   5.468   2.921   8.044 -0.0572 -0.0842  0.2470
  180SOPE  H15R20560   5.397   2.945   7.962 -0.2214 -1.3160  0.0120
  180SOPE  H15S20561   5.511   3.014   8.087  0.1856 -0.7967  1.5677
  180SOPE  C21620562   5.401   2.850   8.161 -0.1149  0.1586  0.1287
  180SOPE  H16R20563   5.468   2.847   8.249  1.0570  1.4250 -0.7044
  180SOPE  H16S20564   5.379   2.746   8.128  1.5733 -0.6222  1.4107
  180SOPE  C21720565   5.269   2.920   8.200 -0.6081 -0.0957  0.0670
  180SOPE  H17R20566   5.206   2.929   8.110 -0.4073  1.1524  0.0506
  180SOPE  H17S20567   5.301   3.023   8.227  1.6976 -0.9179  0.5732
  180SOPE  C21820568   5.197   2.865   8.324  0.3058 -0.2203  0.0819
  180SOPE  H18R20569   5.265   2.849   8.410  1.6640 -0.9903 -1.1271
  180SOPE  H18S20570   5.147   2.768   8.303  1.3897 -0.9531  0.8500
  180SOPE  H18T20571   5.113   2.933   8.350 -0.5822 -1.1116 -0.3956
  180SOPE   C3320572   5.642   3.447   7.114 -0.1035 -0.1438 -0.2012
  180SOPE   H3X20573   5.696   3.351   7.102 -0.6927 -0.1268 -3.2116
  180SOPE   H3Y20574   5.534   3.421   7.116 -0.0913 -0.3170 -1.7906
  180SOPE   C3420575   5.706   3.504   7.246 -0.3871  0.5193  0.2819
  180SOPE   H4X20576   5.674   3.611   7.246 -0.4123  0.5102 -0.1151
  180SOPE   H4Y20577   5.817   3.500   7.237 -0.2513 -1.6370  2.5663
  180SOPE   C3520578   5.655   3.441   7.376 -0.3631 -0.8882  0.3351
  180SOPE   H5X20579   5.652   3.330   7.373 -0.1609 -0.8665 -0.8328
  180SOPE   H5Y20580   5.550   3.473   7.392 -0.5821 -0.3073 -2.1468
  180SOPE   C3620581   5.746   3.505   7.490  0.0026 -0.4467 -0.0181
  180SOPE   H6X20582   5.733   3.616   7.487  2.3699 -0.1351  0.0545
  180SOPE   H6Y20583   5.855   3.482   7.483  0.7088  2.8317 -0.8598
  180SOPE   C3720584   5.698   3.450   7.628  0.0259 -0.1071 -0.0249
  180SOPE   H7X20585   5.733   3.346   7.644 -2.7815 -0.9582  0.7854
  180SOPE   H7Y20586   5.587   3.445   7.628 -0.0370  1.1007  1.5328
  180SOPE   C3820587   5.744   3.543   7.741 -1.1078 -0.1554  0.5836
  180SOPE   H8X20588   5.721   3.650   7.718 -3.1264 -0.9054 -0.9619
  180SOPE   H8Y20589   5.854   3.531   7.742 -1.1182 -0.2474  0.5800
  180SOPE   C3920590   5.687   3.500   7.873  0.2932 -0.4511  0.2264
  180SOPE   H9X20591   5.730   3.401   7.898 -0.5136 -0.5676  1.1832
  180SOPE   H9Y20592   5.577   3.501   7.861  0.4375 -3.1546 -1.7452
  180SOPE  C31020593   5.729   3.610   7.979 -0.5778 -0.1332 -0.1124
  180SOPE  H10X20594   5.681   3.707   7.951  1.2474  0.9431  0.3642
  180SOPE  H10Y20595   5.836   3.631   7.999 -0.1011 -1.8278 -0.8162
  180SOPE  C31120596   5.680   3.567   8.109  0.2940 -0.3071 -0.5226
  180SOPE  H11X20597   5.744   3.482   8.138  0.8664 -0.2096 -1.4961
  180SOPE  H11Y20598   5.571   3.547   8.111  0.2183 -0.0467 -1.8367
  180SOPE  C31220599   5.703   3.680   8.212  0.0562  0.5287  0.3408
  180SOPE  H12X20600   5.626   3.675   8.292 -1.4579  1.0797 -1.0523
  180SOPE  H12Y20601   5.692   3.777   8.160  1.8731  0.3806 -0.3712
  180SOPE  C31320602   5.851   3.687   8.263  1.2380 -0.1677 -0.0873
  180SOPE  H13X20603   5.846   3.774   8.332 -1.1265  0.5237 -1.0455
  180SOPE  H13Y20604   5.919   3.698   8.176 -1.3772  0.9699 -2.0899
  180SOPE  C31420605   5.899   3.569   8.348 -0.2790 -0.0015  0.2668
  180SOPE  H14X20606   6.007   3.588   8.367  0.0898  0.3594 -2.0369
  180SOPE  H14Y20607   5.887   3.472   8.296  1.2143  0.2017 -0.4952
  180SOPE  C31520608   5.816   3.559   8.477  0.5642  0.3888  0.0060
  180SOPE  H15X20609   5.714   3.522   8.456  0.5371  0.6409 -0.3154
  180SOPE  H15Y20610   5.792   3.658   8.522 -0.2913  0.3286 -0.3155
  180SOPE  C31620611   5.856   3.453   8.580 -0.5093 -0.4517 -0.2849
  180SOPE  H16X20612   5.842   3.354   8.532 -0.0348 -0.6465 -0.0280
  180SOPE  H16Y20613   5.783   3.458   8.664 -0.2155  2.1605 -0.1497
  180SOPE  C31720614   6.002   3.466   8.630 -0.4760  0.1998 -0.1218
  180SOPE  H17X20615   6.074   3.456   8.547  0.7258 -0.3672  0.9775
  180SOPE  H17Y20616   6.016   3.380   8.699 -0.3368  1.8796  2.0016
  180SOPE  C31820617   6.034   3.602   8.701  0.1344 -0.5290  0.3755
  180SOPE  H18X20618   6.142   3.611   8.726  0.0852 -0.4601  0.5585
  180SOPE  H18Y20619   5.971   3.611   8.792  1.1184  0.1086  1.0063
  180SOPE  H18Z20620   6.015   3.689   8.635  1.2902  0.5531  1.4394
  181SOPE     N20621   5.488   0.595   5.998 -0.0321 -0.0745  0.0279
  181SOPE   HN120622   5.418   0.564   5.928 -1.1299 -2.5384  2.1512
  181SOPE   HN220623   5.500   0.521   6.070 -3.0752  0.2202  0.8972
  181SOPE   HN320624   5.453   0.679   6.049  2.0441 -0.7439  2.6670
  181SOPE   C1220625   5.622   0.622   5.931 -0.1615 -0.1111  0.3915
  181SOPE  H12A20626   5.676   0.678   6.010 -0.8832 -0.7654  1.3679
  181SOPE  H12B20627   5.607   0.696   5.849  0.9495  0.4110  0.6518
  181SOPE   C1120628   5.699   0.500   5.893 -0.7882 -0.3183 -0.0265
  181SOPE  H11A20629   5.798   0.538   5.858 -0.6559 -2.3177 -1.9449
  181SOPE  H11B20630   5.649   0.454   5.805  2.3396 -1.5015 -1.2971
  181SOPE     P20631   5.796   0.299   6.044 -0.4861 -0.3077 -0.2753
  181SOPE   O1320632   5.796   0.206   5.926  0.4580 -0.3163  0.0111
  181SOPE   O1420633   5.763   0.234   6.171 -0.0599 -0.8809 -0.2914
  181SOPE   O1220634   5.699   0.420   6.009  0.2822  0.2513  0.0579
  181SOPE   O1120635   5.939   0.352   6.063  0.0503 -0.5032 -0.0640
  181SOPE    C120636   5.964   0.482   6.114 -0.1931  0.3099 -0.0822
  181SOPE    HA20637   5.910   0.564   6.062 -0.9824  1.1311  1.9613
  181SOPE    HB20638   6.075   0.489   6.113 -0.2240  1.1840  0.8260
  181SOPE    C220639   5.943   0.489   6.267  0.6765 -0.1423  0.3167
  181SOPE    HS20640   5.842   0.448   6.287  1.3422 -1.2616  1.5361
  181SOPE   O2120641   5.959   0.620   6.326  0.1416  0.3180 -0.3647
  181SOPE   C2120642   5.857   0.705   6.295 -0.2102 -0.0417 -0.0765
  181SOPE   O2220643   5.762   0.681   6.223  0.1003 -0.2323  0.9744
  181SOPE   C2220644   5.872   0.838   6.373 -0.9380 -1.2198 -0.2562
  181SOPE   H2R20645   5.886   0.909   6.288  1.4010 -0.0274  1.0976
  181SOPE   H2S20646   5.964   0.834   6.435 -1.5935 -0.8219  0.7548
  181SOPE    C320647   6.029   0.384   6.344  0.4116  0.6014 -0.2487
  181SOPE    HX20648   6.138   0.393   6.322  0.3311 -1.4255 -1.7202
  181SOPE    HY20649   6.009   0.282   6.304  2.9135 -0.2909  0.6962
  181SOPE   O3120650   6.000   0.382   6.484  0.1639 -0.3583 -0.0994
  181SOPE   C3120651   6.083   0.441   6.567  0.5040  0.0813 -0.2087
  181SOPE   O3220652   6.201   0.474   6.544  0.2812  0.4702 -0.0477
  181SOPE   C3220653   6.009   0.477   6.690 -0.3362  0.6391 -0.3548
  181SOPE   H2X20654   5.996   0.380   6.742  0.9768 -0.2468 -1.6263
  181SOPE   H2Y20655   5.910   0.514   6.656 -0.2260  0.6930 -0.6248
  181SOPE   C2320656   5.751   0.881   6.463  0.1991 -0.2748  0.2617
  181SOPE   H3R20657   5.664   0.858   6.398 -0.8074  0.8601  1.1759
  181SOPE   H3S20658   5.753   0.991   6.480 -2.1639  0.0764 -1.5221
  181SOPE   C2420659   5.729   0.815   6.599 -0.1106  0.3082  0.0934
  181SOPE   H4R20660   5.631   0.846   6.641  0.1850 -0.0665  1.0708
  181SOPE   H4S20661   5.728   0.705   6.582 -0.7916  0.1283  1.2051
  181SOPE   C2520662   5.833   0.842   6.706 -0.5577 -0.1253 -0.1215
  181SOPE   H5R20663   5.816   0.768   6.788  0.0851 -0.7248 -0.5216
  181SOPE   H5S20664   5.934   0.822   6.665  0.1953  0.4641  1.4302
  181SOPE   C2620665   5.830   0.980   6.782 -0.6316 -0.5269  0.0218
  181SOPE   H6R20666   5.856   1.059   6.708 -2.6265  1.3881  1.3057
  181SOPE   H6S20667   5.727   0.993   6.821  1.0522  3.5995  3.4358
  181SOPE   C2720668   5.926   0.998   6.902  0.4404 -0.1097 -0.4607
  181SOPE   H7R20669   5.892   0.921   6.975 -1.0738 -0.2810 -1.3446
  181SOPE   H7S20670   6.025   0.971   6.859  0.2291 -0.0793 -0.9588
  181SOPE   C2820671   5.939   1.135   6.968  0.0138 -0.3404  0.4121
  181SOPE   H8R20672   6.018   1.118   7.044  0.7659  0.9730 -0.0604
  181SOPE   H8S20673   5.977   1.210   6.895  0.3594 -0.3020  0.6322
  181SOPE   C2920674   5.807   1.174   7.035  0.7335  0.6499 -0.5142
  181SOPE   H9120675   5.716   1.125   6.998 -0.5679  2.0330  0.8007
  181SOPE  C21020676   5.797   1.246   7.149 -1.0563  0.6275 -0.8249
  181SOPE  H10120677   5.697   1.273   7.185 -1.2772  0.3662 -1.2402
  181SOPE  C21120678   5.901   1.316   7.230 -0.2111  0.6296  0.1761
  181SOPE  H11R20679   5.874   1.423   7.244 -0.6679  0.7842 -1.7957
  181SOPE  H11S20680   5.996   1.320   7.173 -0.9661 -0.1809 -1.1712
  181SOPE  C21220681   5.923   1.245   7.362 -0.1507 -0.3766  0.1577
  181SOPE  H12R20682   5.987   1.308   7.427  0.7923 -1.7668  0.6023
  181SOPE  H12S20683   5.976   1.148   7.349 -0.0133 -0.0773 -1.6228
  181SOPE  C21320684   5.801   1.212   7.449 -0.2725 -0.7226 -0.9717
  181SOPE  H13R20685   5.820   1.176   7.553 -1.6797 -0.3799 -0.5807
  181SOPE  H13S20686   5.750   1.122   7.409 -3.4909  0.6231 -0.0993
  181SOPE  C21420687   5.698   1.317   7.468 -0.0256 -0.3189  0.2863
  181SOPE  H14R20688   5.609   1.277   7.521 -2.5555  1.6549 -2.3315
  181SOPE  H14S20689   5.649   1.360   7.378 -2.4113 -3.8869 -0.1898
  181SOPE  C21520690   5.743   1.436   7.560  0.1676  1.0419 -0.2767
  181SOPE  H15R20691   5.820   1.495   7.506  0.6541  1.2116  0.5998
  181SOPE  H15S20692   5.781   1.395   7.656 -0.1410 -1.6726 -1.2586
  181SOPE  C21620693   5.620   1.521   7.609 -1.2816 -0.0392 -0.0359
  181SOPE  H16R20694   5.545   1.540   7.530 -1.5249 -1.1246 -0.0823
  181SOPE  H16S20695   5.661   1.614   7.653 -1.7086  0.9253 -1.6225
  181SOPE  C21720696   5.548   1.446   7.722  0.2565 -0.3217 -0.6057
  181SOPE  H17R20697   5.610   1.464   7.812  0.2036  0.9563 -0.8116
  181SOPE  H17S20698   5.547   1.336   7.710 -0.3108 -0.4776  0.7548
  181SOPE  C21820699   5.407   1.493   7.751 -0.2223 -0.1734 -0.1315
  181SOPE  H18R20700   5.387   1.600   7.772 -0.0764 -0.3781  1.0580
  181SOPE  H18S20701   5.367   1.436   7.838  0.7071 -1.3776 -0.4936
  181SOPE  H18T20702   5.339   1.464   7.668  1.1384 -4.1645  0.0664
  181SOPE   C3320703   6.074   0.582   6.778 -0.2972 -0.2866  0.0405
  181SOPE   H3X20704   5.990   0.612   6.843 -0.4265 -0.5361 -0.0091
  181SOPE   H3Y20705   6.098   0.671   6.716 -2.1106  0.6869  0.7089
  181SOPE   C3420706   6.192   0.537   6.867  0.6510  0.2766  0.4675
  181SOPE   H4X20707   6.285   0.529   6.808  1.2815  2.4220  1.1325
  181SOPE   H4Y20708   6.171   0.439   6.917 -1.6015  1.2243  1.4434
  181SOPE   C3520709   6.209   0.646   6.974  0.3136  1.2714  0.3238
  181SOPE   H5X20710   6.191   0.747   6.933 -2.2303  0.1337 -1.5489
  181SOPE   H5Y20711   6.314   0.633   7.007  0.0450  1.4156  1.2692
  181SOPE   C3620712   6.121   0.634   7.094  0.1060  0.2821  0.8856
  181SOPE   H6X20713   6.142   0.534   7.138 -1.3825  0.8436  2.9711
  181SOPE   H6Y20714   6.016   0.638   7.059  0.1287 -1.8427  0.5440
  181SOPE   C3720715   6.157   0.733   7.204  0.0512 -0.4760  0.5014
  181SOPE   H7X20716   6.116   0.830   7.168  1.9110 -0.1929 -0.9250
  181SOPE   H7Y20717   6.267   0.738   7.222  0.3224 -2.9500 -0.2951
  181SOPE   C3820718   6.088   0.693   7.327  0.1683 -0.3264 -0.4764
  181SOPE   H8X20719   6.110   0.588   7.354  1.1064 -0.3386 -1.2773
  181SOPE   H8Y20720   5.978   0.696   7.312 -0.3665  2.7816  3.1956
  181SOPE   C3920721   6.103   0.775   7.460  0.4228  0.0136  0.3796
  181SOPE   H9X20722   6.090   0.882   7.431 -2.1088 -0.7863 -1.5483
  181SOPE   H9Y20723   6.209   0.765   7.493  0.9320 -0.4566 -1.3519
  181SOPE  C31020724   6.009   0.732   7.567  0.3597  0.6744  0.4087
  181SOPE  H10X20725   6.025   0.627   7.600 -0.2706  0.8152  1.1712
  181SOPE  H10Y20726   5.902   0.736   7.535  0.5092  0.8653 -0.0777
  181SOPE  C31120727   6.024   0.813   7.694  0.3351 -0.6216  0.2452
  181SOPE  H11X20728   6.069   0.912   7.671 -1.0014 -0.3412 -1.2736
  181SOPE  H11Y20729   6.101   0.765   7.758 -2.5072 -0.4378  4.0232
  181SOPE  C31220730   5.886   0.848   7.748 -0.0414 -0.4947 -0.9667
  181SOPE  H12X20731   5.820   0.761   7.766  0.2651 -0.2699  1.4179
  181SOPE  H12Y20732   5.831   0.904   7.669 -4.3445 -2.8480  0.1966
  181SOPE  C31320733   5.889   0.939   7.871 -0.1005  0.9859 -0.0015
  181SOPE  H13X20734   5.954   1.027   7.853  0.5197  0.3699 -0.8058
  181SOPE  H13Y20735   5.932   0.874   7.951  0.1439  1.8199  0.5481
  181SOPE  C31420736   5.751   0.996   7.905  0.2088  0.6558  0.6369
  181SOPE  H14X20737   5.677   0.916   7.927  0.0692  0.7276  0.4339
  181SOPE  H14Y20738   5.710   1.056   7.821  0.5416 -0.2971 -0.2172
  181SOPE  C31520739   5.761   1.085   8.023 -0.0524 -0.0400 -0.3528
  181SOPE  H15X20740   5.806   1.182   7.992 -1.9074  0.7583 -0.6130
  181SOPE  H15Y20741   5.813   1.032   8.106  0.6109  1.1662  0.0147
  181SOPE  C31620742   5.625   1.107   8.088  0.1410 -0.1224  0.1043
  181SOPE  H16X20743   5.643   1.130   8.196  0.3989  0.3211 -0.0300
  181SOPE  H16Y20744   5.560   1.018   8.082 -0.3800  0.1811  1.0981
  181SOPE  C31720745   5.562   1.222   8.021  0.4945 -0.2240  1.1848
  181SOPE  H17X20746   5.549   1.199   7.913  0.9680 -0.3879  1.1609
  181SOPE  H17Y20747   5.634   1.306   8.016 -1.1973  1.2006 -0.1067
  181SOPE  C31820748   5.425   1.275   8.080 -0.2672  0.5786 -0.2682
  181SOPE  H18X20749   5.423   1.300   8.188  0.9754  0.3351 -0.1786
  181SOPE  H18Y20750   5.344   1.199   8.082 -1.8530  2.2860  1.5328
  181SOPE  H18Z20751   5.399   1.362   8.016 -2.6210 -1.6406 -2.4959
  182SOPE     N20752   6.401   3.055   6.168 -0.4127  0.5942  0.2018
  182SOPE   HN120753   6.472   3.050   6.244  1.4558 -0.6664 -1.5716
  182SOPE   HN220754   6.395   2.960   6.127  1.5811 -0.0766  1.3953
  182SOPE   HN320755   6.441   3.123   6.100  0.3007  0.1501  0.1677
  182SOPE   C1220756   6.268   3.088   6.229  0.7520 -0.8213  0.0431
  182SOPE  H12A20757   6.193   3.109   6.149 -0.4862 -2.7856  0.6426
  182SOPE  H12B20758   6.263   3.188   6.278 -0.0414 -0.4661 -0.7593
  182SOPE   C1120759   6.216   2.975   6.322 -0.6589 -0.2840 -0.2969
  182SOPE  H11A20760   6.137   3.020   6.385 -2.6682 -1.2889 -1.9963
  182SOPE  H11B20761   6.290   2.945   6.399 -1.0598  1.7117  0.8771
  182SOPE     P20762   6.270   2.735   6.235  0.1112  0.9044  0.8564
  182SOPE   O1320763   6.401   2.789   6.202  0.7047 -0.4842  0.4090
  182SOPE   O1420764   6.198   2.652   6.134 -0.9824 -0.0501 -0.5728
  182SOPE   O1220765   6.169   2.857   6.260 -0.0162  0.1808 -0.1231
  182SOPE   O1120766   6.270   2.663   6.375 -0.0720 -0.1647 -0.2332
  182SOPE    C120767   6.151   2.610   6.436 -0.2538  0.1191  0.1678
  182SOPE    HA20768   6.175   2.516   6.489 -1.3793  0.4146  1.2354
  182SOPE    HB20769   6.065   2.595   6.366 -1.3703  0.2338  1.4947
  182SOPE    C220770   6.094   2.701   6.546  0.7083  0.1802  0.3465
  182SOPE    HS20771   6.082   2.807   6.516 -0.8038 -0.0534  0.0720
  182SOPE   O2120772   6.178   2.682   6.660  0.3742  0.1455  0.0109
  182SOPE   C2120773   6.194   2.783   6.739 -0.5265  0.0265 -0.2085
  182SOPE   O2220774   6.157   2.894   6.719 -0.0512  0.3567  0.5386
  182SOPE   C2220775   6.268   2.731   6.860  0.2880  0.1811  0.1027
  182SOPE   H2R20776   6.376   2.708   6.845  1.0724  1.6088  3.2192
  182SOPE   H2S20777   6.228   2.634   6.895 -0.4975  1.4319  2.7680
  182SOPE    C320778   5.947   2.658   6.579  0.3934  1.1787 -0.8008
  182SOPE    HX20779   5.959   2.549   6.598  4.8571  1.5539 -0.9994
  182SOPE    HY20780   5.885   2.666   6.488  0.3698 -1.9785 -1.1329
  182SOPE   O3120781   5.888   2.723   6.695 -0.3428 -0.0933  0.6152
  182SOPE   C3120782   5.755   2.687   6.715  0.2911  0.4042  0.1806
  182SOPE   O3220783   5.702   2.591   6.665 -0.3071  0.5434  0.3297
  182SOPE   C3220784   5.691   2.785   6.822 -0.2913  0.0081 -0.0881
  182SOPE   H2X20785   5.625   2.864   6.780 -0.6842  0.2849  1.0467
  182SOPE   H2Y20786   5.772   2.843   6.871 -0.8418 -0.3017  1.2125
  182SOPE   C2320787   6.264   2.826   6.979 -0.2772  0.1392 -0.4821
  182SOPE   H3R20788   6.156   2.839   7.000  0.2551  0.0507  2.5186
  182SOPE   H3S20789   6.309   2.926   6.959 -0.3660  0.1198 -0.7810
  182SOPE   C2420790   6.336   2.771   7.109 -0.1343  0.4863 -0.1222
  182SOPE   H4R20791   6.303   2.666   7.120 -1.5704  0.8893 -0.5150
  182SOPE   H4S20792   6.446   2.764   7.093 -0.0120 -1.4173  1.4303
  182SOPE   C2520793   6.305   2.850   7.238  0.2269  0.0251 -0.0899
  182SOPE   H5R20794   6.373   2.937   7.245  0.5033 -0.3075  1.3747
  182SOPE   H5S20795   6.200   2.885   7.231  0.5002  0.7939 -0.4023
  182SOPE   C2620796   6.333   2.769   7.367 -0.8455 -0.2522  0.3378
  182SOPE   H6R20797   6.277   2.674   7.371  2.9294 -2.6185 -0.1763
  182SOPE   H6S20798   6.442   2.748   7.367 -0.2561  2.6236 -0.1544
  182SOPE   C2720799   6.314   2.858   7.493  0.0954  0.2885  0.0102
  182SOPE   H7R20800   6.399   2.929   7.487 -1.0982  1.7330 -0.4390
  182SOPE   H7S20801   6.215   2.910   7.489 -0.4181 -0.6958 -0.1867
  182SOPE   C2820802   6.313   2.784   7.631  0.0612 -0.4727  0.2692
  182SOPE   H8R20803   6.419   2.751   7.636  0.5070  0.6017 -1.6761
  182SOPE   H8S20804   6.310   2.859   7.713  0.0026 -0.4331  0.2298
  182SOPE   C2920805   6.213   2.675   7.649  0.2320  0.5582 -0.0267
  182SOPE   H9120806   6.106   2.701   7.647  0.0543  0.1789  2.5949
  182SOPE  C21020807   6.236   2.544   7.686 -0.3264 -0.3508 -0.2664
  182SOPE  H10120808   6.145   2.484   7.700  0.3168 -1.0995  0.8180
  182SOPE  C21120809   6.375   2.485   7.726  0.2539  0.2244 -0.2062
  182SOPE  H11R20810   6.458   2.544   7.682  1.0826  0.7064  1.9191
  182SOPE  H11S20811   6.386   2.388   7.673 -0.7224  0.1336 -0.2498
  182SOPE  C21220812   6.388   2.473   7.875 -0.0821 -0.3487  0.2796
  182SOPE  H12R20813   6.364   2.573   7.916 -3.0898 -1.2062  0.7553
  182SOPE  H12S20814   6.487   2.441   7.914  1.0767  0.4032 -1.9374
  182SOPE  C21320815   6.292   2.371   7.937 -0.0254  0.0320  0.5378
  182SOPE  H13R20816   6.286   2.278   7.877  3.3834  0.1162 -0.0205
  182SOPE  H13S20817   6.193   2.417   7.959 -1.3797 -2.4318 -0.2005
  182SOPE  C21420818   6.355   2.315   8.066  0.1452 -0.0875 -0.1796
  182SOPE  H14R20819   6.442   2.248   8.050  0.2170  0.4029 -1.9768
  182SOPE  H14S20820   6.273   2.252   8.107 -1.4268  2.5588  0.8701
  182SOPE  C21520821   6.400   2.416   8.173  0.3611  0.1795 -0.9570
  182SOPE  H15R20822   6.338   2.508   8.173  1.0136  0.6263  0.5415
  182SOPE  H15S20823   6.504   2.446   8.151  0.6992 -0.4240 -0.1878
  182SOPE  C21620824   6.385   2.354   8.312  0.2463  0.5148  0.1172
  182SOPE  H16R20825   6.415   2.247   8.308  1.8102  0.8515  2.0897
  182SOPE  H16S20826   6.277   2.364   8.339 -0.0637 -1.2377 -0.3968
  182SOPE  C21720827   6.478   2.427   8.418  0.1766  0.4568 -0.3786
  182SOPE  H17R20828   6.447   2.534   8.415 -3.2307 -0.4411 -0.1394
  182SOPE  H17S20829   6.579   2.408   8.376  0.5605  1.2386  0.1847
  182SOPE  C21820830   6.474   2.369   8.558 -0.9052  0.3575 -0.7033
  182SOPE  H18R20831   6.531   2.437   8.624 -1.3773  0.2012 -0.1344
  182SOPE  H18S20832   6.514   2.265   8.561  1.6504  1.3559  3.0044
  182SOPE  H18T20833   6.378   2.355   8.612 -0.9288  0.0947 -0.8102
  182SOPE   C3320834   5.606   2.698   6.920 -0.6937 -0.1188 -0.3826
  182SOPE   H3X20835   5.665   2.608   6.949  0.0496  0.1780 -0.9565
  182SOPE   H3Y20836   5.520   2.654   6.865  1.0883 -1.4032 -2.2491
  182SOPE   C3420837   5.558   2.777   7.042  0.0526  0.1548  0.2650
  182SOPE   H4X20838   5.654   2.827   7.069  0.0442 -0.4492  1.4601
  182SOPE   H4Y20839   5.525   2.721   7.132 -0.5525  0.5170  0.2753
  182SOPE   C3520840   5.443   2.879   7.014 -0.1249 -0.2153 -0.3517
  182SOPE   H5X20841   5.352   2.815   7.007  0.0556 -0.4703 -0.3630
  182SOPE   H5Y20842   5.464   2.926   6.915  1.4442 -0.4305 -0.1293
  182SOPE   C3620843   5.426   2.999   7.111 -0.3443  0.5783  0.3080
  182SOPE   H6X20844   5.332   3.046   7.077 -1.2689 -0.0992  1.8529
  182SOPE   H6Y20845   5.511   3.071   7.110 -0.2492  0.4612 -0.4442
  182SOPE   C3720846   5.405   2.960   7.261 -0.5618  0.0267  0.3084
  182SOPE   H7X20847   5.496   2.898   7.278 -1.1687 -1.4804 -1.7911
  182SOPE   H7Y20848   5.317   2.893   7.268  0.1459 -0.9875 -0.3292
  182SOPE   C3820849   5.395   3.083   7.354 -0.2771 -0.3715  0.1334
  182SOPE   H8X20850   5.297   3.126   7.325 -0.3911  1.2974  2.7973
  182SOPE   H8Y20851   5.477   3.155   7.330  2.3394 -2.5946  2.0336
  182SOPE   C3920852   5.397   3.045   7.503  0.2561 -0.4532 -0.7983
  182SOPE   H9X20853   5.502   3.021   7.531  0.4549  1.2319 -0.0822
  182SOPE   H9Y20854   5.339   2.952   7.522 -1.5161  0.8527  0.3769
  182SOPE  C31020855   5.358   3.159   7.597  0.1515 -0.7179  0.4064
  182SOPE  H10X20856   5.251   3.185   7.582  1.1286  2.4097 -1.7696
  182SOPE  H10Y20857   5.413   3.246   7.554 -1.1673 -0.9521 -1.8611
  182SOPE  C31120858   5.376   3.136   7.744  0.5979  0.0004  0.0419
  182SOPE  H11X20859   5.478   3.104   7.775  1.0002  1.7844  0.6460
  182SOPE  H11Y20860   5.308   3.062   7.792 -0.9717  1.3008 -0.1119
  182SOPE  C31220861   5.327   3.264   7.821  0.5568 -0.2076  0.1459
  182SOPE  H12X20862   5.238   3.312   7.776  0.1015 -0.8724  0.3431
  182SOPE  H12Y20863   5.403   3.344   7.805  0.7672 -0.4999 -0.3448
  182SOPE  C31320864   5.309   3.244   7.973 -0.0078  0.6234 -0.2043
  182SOPE  H13X20865   5.409   3.209   8.006  0.1283 -0.0343 -1.3083
  182SOPE  H13Y20866   5.246   3.155   7.994 -0.7641  0.6731 -2.1571
  182SOPE  C31420867   5.266   3.368   8.048  0.6225  0.4004 -0.4555
  182SOPE  H14X20868   5.173   3.416   8.011  0.5778  0.9392  0.3291
  182SOPE  H14Y20869   5.337   3.453   8.054 -1.6307  2.3648 -0.8428
  182SOPE  C31520870   5.255   3.337   8.195  0.4349 -0.4146 -0.2500
  182SOPE  H15X20871   5.351   3.294   8.230 -0.0571  0.3239  2.1758
  182SOPE  H15Y20872   5.171   3.264   8.202  1.1334 -1.4543 -2.2925
  182SOPE  C31620873   5.228   3.468   8.274 -0.2463 -0.2365  0.2649
  182SOPE  H16X20874   5.120   3.490   8.257  0.3527  2.2424 -0.5979
  182SOPE  H16Y20875   5.299   3.549   8.246  0.7522 -0.0547  3.1469
  182SOPE  C31720876   5.249   3.460   8.431  0.0077  0.0829  0.2642
  182SOPE  H17X20877   5.238   3.554   8.488 -1.0350  0.3089 -0.3018
  182SOPE  H17Y20878   5.357   3.438   8.440 -0.2682 -1.5691 -0.2341
  182SOPE  C31820879   5.158   3.348   8.489  0.4745  0.1396  0.6523
  182SOPE  H18X20880   5.052   3.378   8.484  1.0908  2.9310  2.9291
  182SOPE  H18Y20881   5.170   3.343   8.600  0.2178  1.4488  0.7515
  182SOPE  H18Z20882   5.177   3.247   8.446  1.7042 -0.8204  3.3207
  183SOPE     N20883   1.248   6.634   6.311  0.2055 -0.0624  0.4691
  183SOPE   HN120884   1.183   6.556   6.335 -0.3364  0.9724  2.4397
  183SOPE   HN220885   1.251   6.652   6.209 -1.9592  1.0389  0.5692
  183SOPE   HN320886   1.345   6.609   6.337 -0.2398 -0.4460  1.8074
  183SOPE   C1220887   1.192   6.758   6.374  0.7485 -0.1715  0.8527
  183SOPE  H12A20888   1.108   6.731   6.441  0.0576 -2.6902 -0.9761
  183SOPE  H12B20889   1.137   6.809   6.292  1.9539  1.6848  1.1671
  183SOPE   C1120890   1.298   6.864   6.426  0.2902  0.2255  0.3956
  183SOPE  H11A20891   1.360   6.806   6.497 -1.0678 -1.1752  0.4460
  183SOPE  H11B20892   1.241   6.942   6.482  0.4275 -0.1439  1.0559
  183SOPE     P20893   1.520   6.902   6.291  0.4191  0.7309  0.0037
  183SOPE   O1320894   1.569   6.980   6.177 -0.9188  0.4573  0.1204
  183SOPE   O1420895   1.553   6.754   6.284 -0.6234 -0.4707 -0.3277
  183SOPE   O1220896   1.367   6.924   6.317  0.0514 -0.3488  1.0080
  183SOPE   O1120897   1.585   6.953   6.423  0.3274 -0.1508  0.6740
  183SOPE    C120898   1.557   7.097   6.439 -0.7547  0.2109 -0.0070
  183SOPE    HA20899   1.451   7.129   6.429 -1.2694 -1.4339  0.1113
  183SOPE    HB20900   1.609   7.157   6.361  0.9195  0.3802  1.2116
  183SOPE    C220901   1.611   7.141   6.585 -0.5453  0.2972  0.8051
  183SOPE    HS20902   1.586   7.246   6.612  1.0302  1.0430 -0.5474
  183SOPE   O2120903   1.757   7.143   6.591  0.6957 -0.1052  0.8534
  183SOPE   C2120904   1.819   7.241   6.531  0.1546  0.0887 -0.8126
  183SOPE   O2220905   1.765   7.338   6.479  0.3398 -0.2172  0.0722
  183SOPE   C2220906   1.975   7.212   6.528  1.1003  0.0181  0.4264
  183SOPE   H2R20907   2.003   7.231   6.422  1.5985 -2.4663  0.0855
  183SOPE   H2S20908   1.984   7.102   6.540 -1.2993 -0.0934  1.4636
  183SOPE    C320909   1.544   7.050   6.688 -0.9765  0.2264 -0.0156
  183SOPE    HX20910   1.544   6.942   6.662 -0.2500  0.0922  0.5450
  183SOPE    HY20911   1.436   7.076   6.699 -1.3585 -0.5041 -1.8425
  183SOPE   O3120912   1.595   7.079   6.823  0.6493  0.5709 -0.0412
  183SOPE   C3120913   1.689   7.000   6.862  0.0976  0.0077 -0.0908
  183SOPE   O3220914   1.741   6.909   6.800  0.0216 -0.3434  0.7036
  183SOPE   C3220915   1.734   7.044   7.009 -0.0506  0.1096 -0.1281
  183SOPE   H2X20916   1.645   7.041   7.074 -0.4475 -0.0920 -0.6758
  183SOPE   H2Y20917   1.754   7.153   7.004  1.5160 -0.1887 -1.0583
  183SOPE   C2320918   2.047   7.300   6.636 -0.0531 -0.2871 -0.0737
  183SOPE   H3R20919   2.033   7.409   6.617  1.5064  0.3717  2.2598
  183SOPE   H3S20920   2.155   7.274   6.642  0.2030  1.1041  2.2129
  183SOPE   C2420921   1.993   7.276   6.775 -0.6350  0.0481  0.2123
  183SOPE   H4R20922   1.883   7.288   6.785 -0.5755  1.4164 -0.7542
  183SOPE   H4S20923   2.018   7.174   6.812  0.2236  0.3664  0.5226
  183SOPE   C2520924   2.073   7.359   6.873  0.2851 -0.1783 -0.3809
  183SOPE   H5R20925   2.183   7.346   6.867  0.1503 -1.5219 -0.0322
  183SOPE   H5S20926   2.051   7.466   6.854  0.4079  0.2615  1.8324
  183SOPE   C2620927   2.026   7.344   7.017  0.0161  1.0316 -0.4198
  183SOPE   H6R20928   1.916   7.356   7.010 -0.1331 -0.1656 -0.2097
  183SOPE   H6S20929   2.047   7.245   7.062 -1.7110  0.2228 -1.3587
  183SOPE   C2720930   2.084   7.452   7.110  0.2706  0.0442  0.1343
  183SOPE   H7R20931   2.193   7.433   7.107  0.2050 -0.1625 -1.7715
  183SOPE   H7S20932   2.055   7.552   7.069  0.0679  0.5004  1.3696
  183SOPE   C2820933   2.025   7.444   7.253  0.5023 -0.0464  0.1893
  183SOPE   H8R20934   1.914   7.455   7.252  0.4328 -0.7896 -1.2124
  183SOPE   H8S20935   2.042   7.345   7.299  1.7116 -0.2550 -0.6880
  183SOPE   C2920936   2.097   7.550   7.340 -0.0664 -0.5300  0.7848
  183SOPE   H9120937   2.164   7.617   7.283  1.8913 -1.3476  2.0580
  183SOPE  C21020938   2.106   7.552   7.476  0.6006  0.0137 -0.0728
  183SOPE  H10120939   2.174   7.625   7.523  1.0588 -0.3032 -0.2411
  183SOPE  C21120940   2.028   7.456   7.560 -0.5828  0.5300  1.1181
  183SOPE  H11R20941   2.103   7.383   7.597  1.6773  2.1672 -0.0934
  183SOPE  H11S20942   1.954   7.398   7.503  0.3679 -0.4930  0.9011
  183SOPE  C21220943   1.959   7.533   7.666 -0.1336 -0.1024 -1.0146
  183SOPE  H12R20944   1.906   7.618   7.618 -0.8599 -1.8398 -3.3871
  183SOPE  H12S20945   2.040   7.579   7.727 -1.1295  0.7598 -0.3226
  183SOPE  C21320946   1.870   7.443   7.751 -1.0375  0.5367 -0.1841
  183SOPE  H13R20947   1.921   7.355   7.797  2.0890  1.7748 -1.1828
  183SOPE  H13S20948   1.800   7.398   7.677 -0.6652 -0.3636  0.0025
  183SOPE  C21420949   1.799   7.528   7.868 -0.3089  0.2945 -0.0504
  183SOPE  H14R20950   1.763   7.624   7.826  4.1738  2.2913  0.4347
  183SOPE  H14S20951   1.871   7.554   7.948 -0.9222  0.5155  0.4329
  183SOPE  C21520952   1.692   7.442   7.939 -0.2784  0.6076 -0.0537
  183SOPE  H15R20953   1.727   7.346   7.982 -0.8615 -0.1222 -1.1666
  183SOPE  H15S20954   1.616   7.425   7.860 -1.9256  0.5138  1.4963
  183SOPE  C21620955   1.621   7.521   8.054  0.4744  0.1840 -0.0373
  183SOPE  H16R20956   1.622   7.629   8.029  2.6603  0.2125  0.0824
  183SOPE  H16S20957   1.674   7.508   8.151  0.6392  1.2261  0.0251
  183SOPE  C21720958   1.482   7.484   8.088  0.2245 -0.2261 -0.5496
  183SOPE  H17R20959   1.462   7.376   8.076 -0.4450 -0.2305  0.5393
  183SOPE  H17S20960   1.406   7.546   8.036  0.4811 -0.2020 -0.8940
  183SOPE  C21820961   1.448   7.515   8.237  0.0316  0.1108 -0.3149
  183SOPE  H18R20962   1.338   7.506   8.253 -0.0745  0.4306 -0.8335
  183SOPE  H18S20963   1.476   7.621   8.255  0.3665  0.1029 -0.7904
  183SOPE  H18T20964   1.498   7.446   8.308 -1.4717 -0.5527  0.1185
  183SOPE   C3320965   1.865   6.978   7.067 -0.3315  0.2222 -0.9388
  183SOPE   H3X20966   1.956   6.989   7.004 -0.7036 -0.6936 -1.6581
  183SOPE   H3Y20967   1.857   6.868   7.083 -0.1279  0.5881  1.9184
  183SOPE   C3420968   1.894   7.031   7.208 -0.6054  0.2798  0.4161
  183SOPE   H4X20969   1.939   7.132   7.208  1.9540 -0.8041  3.5474
  183SOPE   H4Y20970   1.969   6.963   7.252  0.2096  0.9172  0.0213
  183SOPE   C3520971   1.767   7.035   7.290 -0.6086  0.3307  0.4005
  183SOPE   H5X20972   1.706   6.946   7.264 -0.9599  0.6445  0.1535
  183SOPE   H5Y20973   1.710   7.125   7.259  0.7600  0.3297 -2.1540
  183SOPE   C3620974   1.807   7.042   7.441 -0.1079 -0.5398 -0.3016
  183SOPE   H6X20975   1.890   7.115   7.450  0.9817 -1.7486 -0.3525
  183SOPE   H6Y20976   1.851   6.942   7.461  1.0478 -0.1751 -0.9834
  183SOPE   C3720977   1.684   7.077   7.533 -0.3140  0.5346 -0.4840
  183SOPE   H7X20978   1.608   6.997   7.525 -1.1705  1.4091 -1.0718
  183SOPE   H7Y20979   1.642   7.170   7.491  0.3022 -0.5366 -3.6037
  183SOPE   C3820980   1.715   7.094   7.679  0.6672  0.1858 -0.6591
  183SOPE   H8X20981   1.774   7.188   7.689 -1.0821  1.0192  2.0916
  183SOPE   H8Y20982   1.783   7.014   7.716  0.5146 -1.4686 -3.7814
  183SOPE   C3920983   1.585   7.097   7.758 -0.8344 -0.6611  0.0704
  183SOPE   H9X20984   1.494   7.122   7.700 -1.1812 -1.4503  0.2676
  183SOPE   H9Y20985   1.591   7.171   7.840  1.9613 -0.1409 -0.5204
  183SOPE  C31020986   1.558   6.953   7.824  0.3956  0.9269 -0.0687
  183SOPE  H10X20987   1.646   6.915   7.881 -0.0470 -0.3023 -0.1804
  183SOPE  H10Y20988   1.547   6.882   7.739 -0.5368  0.3823  0.5018
  183SOPE  C31120989   1.435   6.941   7.917  0.2556 -0.1414  0.5659
  183SOPE  H11X20990   1.429   6.835   7.948  0.3347 -0.4150 -0.3517
  183SOPE  H11Y20991   1.349   6.967   7.851  0.6397 -2.1297 -0.7395
  183SOPE  C31220992   1.445   7.040   8.033  0.0679  0.2049  0.2467
  183SOPE  H12X20993   1.362   7.010   8.101 -0.1221  3.0466  1.3210
  183SOPE  H12Y20994   1.424   7.138   7.986 -0.5311 -0.1632 -0.2630
  183SOPE  C31320995   1.581   7.047   8.100  0.4594  0.3239 -0.0571
  183SOPE  H13X20996   1.640   7.100   8.023  1.1399 -0.8978 -0.3847
  183SOPE  H13Y20997   1.632   6.951   8.122 -0.4262 -0.8992 -3.0292
  183SOPE  C31420998   1.576   7.130   8.233 -0.2594  0.1186  0.8610
  183SOPE  H14X20999   1.528   7.227   8.207 -1.0585 -0.4539  0.1888
  183SOPE  H14Y21000   1.684   7.147   8.256 -0.3450  3.0940 -0.5703
  183SOPE  C31521001   1.503   7.048   8.336 -0.6193 -0.2345 -0.1750
  183SOPE  H15X21002   1.556   6.951   8.346  1.5904  0.8725 -0.7811
  183SOPE  H15Y21003   1.400   7.025   8.302 -0.3533 -4.2240  1.4731
  183SOPE  C31621004   1.490   7.110   8.474 -0.1913 -0.3042 -0.0878
  183SOPE  H16X21005   1.458   7.028   8.541  0.2032 -0.4694 -0.1018
  183SOPE  H16Y21006   1.426   7.201   8.472  0.8501  0.4147 -1.0249
  183SOPE  C31721007   1.620   7.149   8.544 -0.0003 -0.0072 -0.0799
  183SOPE  H17X21008   1.674   7.230   8.491  0.8090 -0.4300  0.0958
  183SOPE  H17Y21009   1.687   7.060   8.545  0.0601  0.0040 -1.8632
  183SOPE  C31821010   1.616   7.188   8.695  0.5914  0.1171  1.1197
  183SOPE  H18X21011   1.537   7.265   8.710 -0.6104 -0.4833 -1.6960
  183SOPE  H18Y21012   1.709   7.244   8.718  0.8103 -0.0118  0.5682
  183SOPE  H18Z21013   1.609   7.096   8.757  0.5381  0.7458  2.0495
  184SOPE     N21014   0.899   0.475   5.931  0.7561 -0.7280 -0.0315
  184SOPE   HN121015   0.953   0.394   5.893  0.0326 -1.7910  1.1778
  184SOPE   HN221016   0.807   0.459   5.885  0.4682 -1.2622  0.7260
  184SOPE   HN321017   0.947   0.563   5.903  0.8128 -0.7348  0.0462
  184SOPE   C1221018   0.885   0.479   6.081  0.3786 -0.4330  0.1411
  184SOPE  H12A21019   0.980   0.520   6.122 -0.1752  0.3935  0.6159
  184SOPE  H12B21020   0.864   0.379   6.124  0.7501  0.3678  2.2526
  184SOPE   C1121021   0.777   0.569   6.137  0.5842 -0.0753 -0.2711
  184SOPE  H11A21022   0.767   0.561   6.247  1.2281  0.8706 -0.1358
  184SOPE  H11B21023   0.679   0.529   6.103  0.0199  0.3444  0.8350
  184SOPE     P21024   0.857   0.814   6.187  0.1673 -0.2388  0.4034
  184SOPE   O1321025   0.756   0.876   6.281  0.2552  0.3121 -0.0906
  184SOPE   O1421026   0.928   0.906   6.093  0.0474  0.0472  0.4781
  184SOPE   O1221027   0.788   0.705   6.094  0.5400  0.3141 -0.5329
  184SOPE   O1121028   0.966   0.733   6.266  0.2355  0.0834  0.3799
  184SOPE    C121029   1.103   0.751   6.286  1.3649 -0.1651 -1.2246
  184SOPE    HA21030   1.161   0.796   6.203  2.1211 -0.5150 -0.9027
  184SOPE    HB21031   1.137   0.645   6.280  3.2763  0.4529 -1.8404
  184SOPE    C221032   1.149   0.802   6.425 -0.0568  0.0463 -1.0006
  184SOPE    HS21033   1.258   0.820   6.420  0.1534 -0.0192  2.1119
  184SOPE   O2121034   1.114   0.721   6.536 -0.0390 -0.1582  0.7471
  184SOPE   C2121035   1.181   0.610   6.558  0.0502 -0.4753  0.8220
  184SOPE   O2221036   1.278   0.575   6.494 -0.0457 -0.3392  0.4652
  184SOPE   C2221037   1.098   0.528   6.652 -0.4277  0.4178  0.1011
  184SOPE   H2R21038   1.030   0.468   6.588 -0.8989  1.0264  0.0279
  184SOPE   H2S21039   1.040   0.590   6.723 -1.6136  1.3360 -1.6416
  184SOPE    C321040   1.094   0.947   6.448 -1.0265 -0.5511 -0.2651
  184SOPE    HX21041   0.983   0.942   6.444 -0.9989 -1.9674  0.3438
  184SOPE    HY21042   1.136   1.019   6.374 -1.6794  1.1895  1.0321
  184SOPE   O3121043   1.105   1.004   6.582 -0.4383  0.3066  0.3093
  184SOPE   C3121044   1.227   1.005   6.637 -0.1438  0.1878 -0.2222
  184SOPE   O3221045   1.330   0.989   6.581 -0.0562 -0.2818 -0.2394
  184SOPE   C3221046   1.230   1.020   6.788 -0.2755 -0.2196  0.4015
  184SOPE   H2X21047   1.262   1.126   6.794 -0.8097  0.0173 -0.8726
  184SOPE   H2Y21048   1.316   0.954   6.813  0.0253 -0.5576 -1.4326
  184SOPE   C2321049   1.176   0.429   6.737  0.2201 -0.9771 -0.3626
  184SOPE   H3R21050   1.234   0.370   6.663  2.0843 -1.1171  1.1667
  184SOPE   H3S21051   1.105   0.354   6.777 -0.4459  0.3283  0.9818
  184SOPE   C2421052   1.268   0.493   6.849 -0.5244 -0.1133 -0.7140
  184SOPE   H4R21053   1.334   0.409   6.880 -0.3346 -0.6114 -2.4006
  184SOPE   H4S21054   1.332   0.572   6.804  0.1681  0.9293  2.0210
  184SOPE   C2521055   1.191   0.538   6.973 -0.0586 -1.0719 -0.9579
  184SOPE   H5R21056   1.096   0.593   6.956  0.1148 -0.1115  1.0095
  184SOPE   H5S21057   1.154   0.446   7.023  1.2809 -1.2462 -0.2640
  184SOPE   C2621058   1.275   0.608   7.080 -0.7329 -0.2239 -0.4963
  184SOPE   H6R21059   1.321   0.695   7.029 -0.3385  0.5929  1.2328
  184SOPE   H6S21060   1.209   0.640   7.163 -0.6044  1.0347 -0.8718
  184SOPE   C2721061   1.380   0.515   7.130  0.3967  0.3722  0.5860
  184SOPE   H7R21062   1.376   0.414   7.085  0.6529  1.9265 -3.0927
  184SOPE   H7S21063   1.478   0.562   7.108  0.0019  1.2971  0.7688
  184SOPE   C2821064   1.380   0.482   7.277 -0.3672 -0.1861  0.0028
  184SOPE   H8R21065   1.462   0.416   7.312  2.0261  1.9389 -1.4097
  184SOPE   H8S21066   1.402   0.578   7.330  2.0297 -0.2307 -0.8523
  184SOPE   C2921067   1.251   0.412   7.311 -0.2634 -0.0288  0.6171
  184SOPE   H9121068   1.198   0.378   7.220  1.7741  0.5639 -0.8293
  184SOPE  C21021069   1.199   0.400   7.430 -0.4140 -0.1278 -0.0354
  184SOPE  H10121070   1.102   0.353   7.450 -0.0334 -1.1487 -0.5417
  184SOPE  C21121071   1.275   0.462   7.547  0.6546  0.5269  0.6803
  184SOPE  H11R21072   1.297   0.569   7.525 -1.5825  0.5653 -1.5321
  184SOPE  H11S21073   1.369   0.406   7.566 -1.4140 -1.9876  4.1947
  184SOPE  C21221074   1.186   0.468   7.676  1.0150  0.2747 -0.1061
  184SOPE  H12R21075   1.141   0.367   7.688  0.3175  0.6617  0.5893
  184SOPE  H12S21076   1.104   0.539   7.652  0.8734  0.0245 -0.3627
  184SOPE  C21321077   1.261   0.522   7.793  0.0843 -0.6247  0.0271
  184SOPE  H13R21078   1.304   0.618   7.757 -0.7530 -0.0006  0.6844
  184SOPE  H13S21079   1.346   0.454   7.816 -0.3682 -1.0642  0.3974
  184SOPE  C21421080   1.177   0.536   7.930  0.3948  0.0312  0.5414
  184SOPE  H14R21081   1.084   0.591   7.908  0.5585  0.7968  1.6995
  184SOPE  H14S21082   1.239   0.603   7.993  1.0487  0.2071 -0.2853
  184SOPE  C21521083   1.138   0.403   7.996 -0.1040 -0.4542 -0.2680
  184SOPE  H15R21084   1.215   0.324   7.981  0.1575 -0.2183 -0.1794
  184SOPE  H15S21085   1.055   0.361   7.936  0.1047 -0.7247 -0.3668
  184SOPE  C21621086   1.106   0.414   8.138 -0.0606 -0.0258 -0.5037
  184SOPE  H16R21087   1.044   0.505   8.150  0.9196  0.8023 -1.5604
  184SOPE  H16S21088   1.203   0.431   8.190  0.7627 -0.8590 -1.7385
  184SOPE  C21721089   1.046   0.282   8.192  0.0788  0.2721  0.3349
  184SOPE  H17R21090   1.106   0.197   8.153 -0.5934  0.1714 -0.4957
  184SOPE  H17S21091   0.947   0.275   8.142 -1.1898  1.0174  2.6497
  184SOPE  C21821092   1.020   0.285   8.341  0.7071  0.4076 -0.6744
  184SOPE  H18R21093   0.915   0.318   8.362  0.8811  0.8248 -0.4339
  184SOPE  H18S21094   1.082   0.364   8.388  0.1801  1.7087 -2.1315
  184SOPE  H18T21095   1.042   0.187   8.387 -0.4117  0.1804 -0.6177
  184SOPE   C3321096   1.102   0.995   6.858  0.0519 -0.5412 -0.0577
  184SOPE   H3X21097   1.092   0.884   6.867  0.9458 -0.7891 -1.8858
  184SOPE   H3Y21098   1.014   1.021   6.797 -2.1088  1.0172  3.5445
  184SOPE   C3421099   1.082   1.061   6.999 -0.2770 -0.4846  0.3234
  184SOPE   H4X21100   0.978   1.045   7.035  0.2483 -0.6005  1.8282
  184SOPE   H4Y21101   1.099   1.169   6.980  2.6398 -0.6966  1.4002
  184SOPE   C3521102   1.175   0.991   7.100 -0.1432  0.2457  0.5747
  184SOPE   H5X21103   1.282   1.004   7.072 -0.2911  0.9635  0.3178
  184SOPE   H5Y21104   1.157   0.882   7.095  1.3518  0.0259 -0.1420
  184SOPE   C3621105   1.163   1.025   7.253  0.3671 -0.9193  0.0390
  184SOPE   H6X21106   1.059   0.990   7.270  0.8517 -2.6735 -0.5506
  184SOPE   H6Y21107   1.169   1.135   7.268  2.7096 -1.1292  0.8647
  184SOPE   C3721108   1.244   0.947   7.358 -0.4285  0.2968  0.0347
  184SOPE   H7X21109   1.338   0.999   7.386 -1.1562  0.8455  1.4763
  184SOPE   H7Y21110   1.274   0.848   7.316 -0.6898  0.0863  0.3422
  184SOPE   C3821111   1.164   0.913   7.487 -0.5772 -0.1098  0.4340
  184SOPE   H8X21112   1.218   0.855   7.565 -0.6713 -0.4301  0.2612
  184SOPE   H8Y21113   1.078   0.850   7.456  0.2618 -1.2961  0.4905
  184SOPE   C3921114   1.105   1.035   7.568  0.1276  0.0767 -0.4189
  184SOPE   H9X21115   1.017   1.079   7.517  0.7211  0.3199 -1.2417
  184SOPE   H9Y21116   1.184   1.113   7.573  1.0308 -0.6809 -2.4237
  184SOPE  C31021117   1.084   1.002   7.715  0.0913 -0.1351 -0.4793
  184SOPE  H10X21118   1.049   1.094   7.766  0.5977  0.1430 -0.6366
  184SOPE  H10Y21119   1.182   0.968   7.753  1.3152  2.4426 -1.2310
  184SOPE  C31121120   0.974   0.891   7.739  0.1756 -0.3924  0.3535
  184SOPE  H11X21121   1.011   0.786   7.731 -2.8883 -1.4888 -0.2220
  184SOPE  H11Y21122   0.888   0.916   7.672  1.1560  1.5086 -0.2176
  184SOPE  C31221123   0.930   0.887   7.889 -0.1019 -0.6266  0.3002
  184SOPE  H12X21124   1.020   0.883   7.955  2.0710 -0.0961 -2.5353
  184SOPE  H12Y21125   0.856   0.807   7.907 -0.4361 -0.8892 -2.0868
  184SOPE  C31321126   0.847   1.016   7.932 -0.2727 -0.2830 -0.9350
  184SOPE  H13X21127   0.770   1.035   7.855 -0.9189 -1.5262 -0.6042
  184SOPE  H13Y21128   0.916   1.103   7.942  0.4873 -0.9262 -0.4777
  184SOPE  C31421129   0.776   0.991   8.061  0.2597 -0.1745  0.3631
  184SOPE  H14X21130   0.714   0.899   8.050  0.7819 -0.4975  0.1110
  184SOPE  H14Y21131   0.707   1.074   8.088  1.8907  1.2827  0.1276
  184SOPE  C31521132   0.872   0.992   8.180 -0.4504  0.1589  0.4042
  184SOPE  H15X21133   0.885   1.090   8.231  0.7271  0.5454 -0.6039
  184SOPE  H15Y21134   0.974   0.960   8.151 -1.6169 -1.3203 -2.1922
  184SOPE  C31621135   0.831   0.892   8.287 -0.2952 -0.2038  0.1802
  184SOPE  H16X21136   0.721   0.883   8.283 -0.2116 -2.2456  1.5089
  184SOPE  H16Y21137   0.860   0.930   8.387  1.6174  1.7419 -1.0585
  184SOPE  C31721138   0.874   0.747   8.276 -0.2467 -0.3842  0.1736
  184SOPE  H17X21139   0.983   0.736   8.292  0.4338  1.4682 -2.8667
  184SOPE  H17Y21140   0.857   0.721   8.169  0.1674 -3.3528  0.7755
  184SOPE  C31821141   0.788   0.640   8.351 -0.5398 -0.2550 -0.3975
  184SOPE  H18X21142   0.814   0.540   8.310  0.9141 -1.1647  2.6366
  184SOPE  H18Y21143   0.678   0.650   8.349 -0.3672  1.9077 -1.4338
  184SOPE  H18Z21144   0.824   0.630   8.456 -0.4496 -0.4723 -0.4496
  185SAPI   C1221145   4.740   4.544  11.179  0.4406  0.2216  0.0881
  185SAPI    H221146   4.731   4.649  11.143 -0.8058  0.1487  0.1562
  185SAPI    O221147   4.837   4.464  11.110 -0.3280  0.5536  0.1254
  185SAPI   HO221148   4.807   4.466  11.019 -1.2344  1.5209  0.4481
  185SAPI   C1321149   4.780   4.549  11.323 -0.2016  0.2264  0.1519
  185SAPI    H321150   4.706   4.613  11.376 -1.1775  0.0618 -0.9813
  185SAPI    O321151   4.909   4.608  11.342 -0.2268  0.9747  0.1587
  185SAPI   HO321152   4.977   4.547  11.315  0.0980  1.5551 -0.3674
  185SAPI   C1421153   4.779   4.406  11.377  0.6121  0.3028  0.2810
  185SAPI    H421154   4.857   4.344  11.329  0.3284 -0.9384  1.3859
  185SAPI    O421155   4.818   4.394  11.514 -0.2650 -0.1259  0.0038
  185SAPI   HO421156   4.745   4.419  11.571  0.3787 -0.0652  0.8067
  185SAPI   C1521157   4.648   4.342  11.363 -0.1903  0.1520  0.0691
  185SAPI    H521158   4.575   4.391  11.431  1.1698  2.2711  0.0409
  185SAPI    O521159   4.647   4.207  11.404 -0.1420  0.3193  0.0520
  185SAPI   HO521160   4.739   4.179  11.404  0.6644  2.8189 -1.0558
  185SAPI   C1621161   4.596   4.339  11.222 -0.3686 -0.0786  0.6463
  185SAPI    H621162   4.653   4.276  11.150 -0.4709  0.3858  0.1559
  185SAPI    O621163   4.462   4.298  11.220 -0.2161 -0.2699  0.2091
  185SAPI   HO621164   4.448   4.213  11.179 -0.5422 -0.8049  1.3953
  185SAPI   C1121165   4.604   4.479  11.165  0.8226  0.7282  0.0400
  185SAPI    H121166   4.533   4.539  11.225  0.2634  0.1669 -0.0553
  185SAPI     P21167   4.494   4.614  10.960  0.1994  0.0009  0.2209
  185SAPI   O1321168   4.403   4.678  11.061 -0.1272  0.0249 -0.0871
  185SAPI   O1421169   4.419   4.585  10.837  0.6444 -0.3712  0.0970
  185SAPI   O1221170   4.564   4.481  11.019 -0.0484 -0.0703  0.3751
  185SAPI   O1121171   4.606   4.715  10.922  0.0253  0.4359 -0.1021
  185SAPI    C121172   4.578   4.856  10.886  0.1751  0.0192  0.0193
  185SAPI    HA21173   4.522   4.899  10.972  0.3415  0.0093  0.1347
  185SAPI    HB21174   4.676   4.908  10.877  0.8897 -0.8136  2.5972
  185SAPI    C221175   4.490   4.870  10.758 -0.4048 -0.3155  0.1375
  185SAPI    HS21176   4.385   4.832  10.760 -0.1455 -1.0082  0.7555
  185SAPI   O2121177   4.559   4.808  10.650 -0.5988 -0.3996  0.7441
  185SAPI   C2121178   4.498   4.736  10.557 -0.0382 -0.1789  0.3690
  185SAPI   O2221179   4.380   4.715  10.551  0.3498 -0.2329 -0.2214
  185SAPI   C2221180   4.596   4.664  10.464  0.0184 -0.2181  0.7599
  185SAPI   H2R21181   4.551   4.656  10.362  0.0751 -1.7037  0.8474
  185SAPI   H2S21182   4.686   4.729  10.457  0.3124 -0.8314 -1.5039
  185SAPI    C321183   4.489   5.025  10.735  0.3203  0.6868 -0.5402
  185SAPI    HX21184   4.591   5.068  10.731  0.5744  0.2183  0.8787
  185SAPI    HY21185   4.432   5.074  10.817 -2.2216 -0.9309 -1.2791
  185SAPI   O3121186   4.427   5.057  10.610 -0.1473 -0.6078  0.4400
  185SAPI   C3121187   4.376   5.176  10.595 -0.1324 -0.4512 -0.4923
  185SAPI   O3221188   4.393   5.263  10.678  0.3198 -0.2166  0.4305
  185SAPI   C3221189   4.301   5.193  10.457  0.4292 -0.6695  0.7900
  185SAPI   H2X21190   4.355   5.268  10.394 -0.4535  0.7837  1.7225
  185SAPI   H2Y21191   4.206   5.244  10.485 -0.4837 -1.8538 -0.1256
  185SAPI   C2321192   4.630   4.529  10.516 -0.2361  0.3125 -0.1873
  185SAPI   H3R21193   4.671   4.531  10.619  1.0863  0.2521 -0.7040
  185SAPI   H3S21194   4.723   4.493  10.465 -0.3914  0.4577 -0.5760
  185SAPI   C2421195   4.511   4.439  10.497 -0.4533 -0.6417 -0.2767
  185SAPI   H4R21196   4.464   4.454  10.397  1.9043  1.2331 -1.1579
  185SAPI   H4S21197   4.436   4.463  10.575 -1.3254 -0.9953 -0.9980
  185SAPI   C2521198   4.547   4.293  10.525 -0.5299 -0.2986 -0.0277
  185SAPI   H5R21199   4.596   4.274  10.622 -2.9748 -1.0455  1.0824
  185SAPI   C2621200   4.531   4.194  10.437 -0.4602  0.2341  0.5002
  185SAPI   H6R21201   4.554   4.089  10.460  2.0275  0.6729  0.2184
  185SAPI   C2721202   4.486   4.206  10.291 -0.1125 -0.4952  0.2890
  185SAPI   H7R21203   4.401   4.277  10.289  0.7283  0.5029 -0.2731
  185SAPI   H7S21204   4.443   4.112  10.251 -2.5279  0.0086  1.5927
  185SAPI   C2821205   4.599   4.268  10.211  0.0307  0.1590  0.3869
  185SAPI   H8R21206   4.613   4.374  10.236 -0.3540  0.2386  0.2527
  185SAPI   C2921207   4.679   4.208  10.123 -0.2423  0.0080 -0.0520
  185SAPI   H9R21208   4.739   4.281  10.068 -0.2849  0.9508  1.1405
  185SAPI  C21021209   4.679   4.065  10.074  0.2945  0.2270 -0.0308
  185SAPI  H10R21210   4.627   3.993  10.141  0.4540 -0.0399 -0.1948
  185SAPI  H10S21211   4.783   4.027  10.067  0.1879 -0.4363  1.7983
  185SAPI  C21121212   4.608   4.055   9.944 -0.0673  0.2272  0.2486
  185SAPI  H11R21213   4.503   4.025   9.955  0.7984 -2.8987  0.5121
  185SAPI  C21221214   4.655   4.069   9.818 -0.1489 -0.1515  0.3781
  185SAPI  H12R21215   4.583   4.045   9.738  0.4265 -1.4864  0.2429
  185SAPI  C21321216   4.805   4.089   9.794 -0.1875 -0.1319  0.1881
  185SAPI  H13R21217   4.858   4.025   9.868  1.3880  1.3059  0.3335
  185SAPI  H13S21218   4.838   4.194   9.782  1.5846 -0.7624 -0.5128
  185SAPI  C21421219   4.844   4.019   9.663  0.2115  0.1126 -0.0094
  185SAPI  H14R21220   4.798   3.919   9.654  0.5500  0.1146 -1.9457
  185SAPI  C21521221   4.927   4.056   9.559 -0.4564 -0.3039  0.5441
  185SAPI  H15R21222   4.915   3.998   9.466 -0.4811  0.8682 -0.1997
  185SAPI  C21621223   5.004   4.182   9.539 -0.4279 -0.4296 -0.2623
  185SAPI  H16R21224   5.107   4.180   9.581 -0.8828 -2.0174  0.7732
  185SAPI  H16S21225   4.953   4.263   9.595  0.5492 -1.6490  2.4616
  185SAPI  C21721226   5.008   4.232   9.394  0.8277  0.1684  0.2890
  185SAPI  H17R21227   4.903   4.237   9.357  0.0939 -2.3789  1.8722
  185SAPI  H17S21228   5.067   4.158   9.335 -0.1015 -0.4904  0.1759
  185SAPI  C21821229   5.062   4.378   9.382  0.0376  0.3506  0.1239
  185SAPI  H18R21230   5.159   4.375   9.436 -0.5083 -1.7804  1.0426
  185SAPI  H18S21231   5.002   4.449   9.443 -0.7113  0.7389 -1.0540
  185SAPI  C21921232   5.079   4.417   9.232  0.3186  0.2971 -0.1091
  185SAPI  H19R21233   5.095   4.319   9.180 -0.1773  0.1947 -0.0651
  185SAPI  H19S21234   5.164   4.487   9.216 -1.2774  2.0714 -0.9875
  185SAPI  C22021235   4.949   4.455   9.162 -0.1076  0.2179 -0.1660
  185SAPI  H20R21236   4.969   4.473   9.054 -0.4373  1.1376 -0.0789
  185SAPI  H20S21237   4.892   4.538   9.209 -1.5645  0.3265 -2.0532
  185SAPI  H20T21238   4.872   4.375   9.160 -0.4318  0.5214  0.2710
  185SAPI   C3321239   4.281   5.069  10.382  0.0747  0.2725 -0.4691
  185SAPI   H3X21240   4.247   4.992  10.454  2.6243 -0.4493  0.0008
  185SAPI   H3Y21241   4.369   5.031  10.326 -0.5546  1.2612 -2.1818
  185SAPI   C3421242   4.163   5.091  10.287  0.3758  0.0864  0.6538
  185SAPI   H4X21243   4.178   5.187  10.232  1.9078 -0.9370 -0.7499
  185SAPI   H4Y21244   4.067   5.090  10.344 -0.7360 -0.5236 -1.1974
  185SAPI   C3521245   4.163   4.973  10.192 -0.3989 -0.1308  0.0338
  185SAPI   H5X21246   4.124   4.882  10.242  1.2949 -0.0757  1.5164
  185SAPI   H5Y21247   4.268   4.946  10.166 -0.5817 -1.3417  0.5007
  185SAPI   C3621248   4.096   4.994  10.058 -0.4550 -0.1869  0.4993
  185SAPI   H6X21249   4.171   4.998   9.976 -0.8529 -0.2942  0.1266
  185SAPI   H6Y21250   4.055   5.093  10.029  0.3871 -0.9274 -3.6598
  185SAPI   C3721251   3.996   4.880  10.029  0.6462  0.8011 -0.8330
  185SAPI   H7X21252   3.905   4.882  10.094  0.1734 -0.6537 -1.4403
  185SAPI   H7Y21253   4.051   4.791  10.064  4.6053  3.6645  0.5026
  185SAPI   C3821254   3.953   4.871   9.885  0.9296  0.1085 -0.2652
  185SAPI   H8X21255   3.957   4.768   9.844 -2.0652 -0.0029 -0.4044
  185SAPI   H8Y21256   4.018   4.936   9.821  0.4721  2.9115  2.0047
  185SAPI   C3921257   3.806   4.926   9.860 -0.2917  0.0495  0.1664
  185SAPI   H9X21258   3.808   5.023   9.915  2.8637 -0.2409  0.6596
  185SAPI   H9Y21259   3.728   4.869   9.915  0.9499  1.3422  3.4373
  185SAPI  C31021260   3.771   4.947   9.713  0.8334 -0.6927  0.1988
  185SAPI  H10X21261   3.859   4.995   9.665  1.8187 -1.4685  1.1906
  185SAPI  H10Y21262   3.684   5.016   9.708  2.2081  0.9692 -1.6556
  185SAPI  C31121263   3.751   4.821   9.641 -0.1268 -0.1360 -0.4173
  185SAPI  H11X21264   3.667   4.764   9.687  0.4770 -0.1163  0.7029
  185SAPI  H11Y21265   3.839   4.753   9.640  0.1093  0.1600 -2.5504
  185SAPI  C31221266   3.701   4.829   9.493  0.7410 -0.4908  0.3076
  185SAPI  H12X21267   3.775   4.878   9.426 -0.2228  1.2456  0.4643
  185SAPI  H12Y21268   3.608   4.890   9.486  0.4298 -1.1302 -1.3795
  185SAPI  C31321269   3.674   4.694   9.427  0.4632  0.7145 -0.3840
  185SAPI  H13X21270   3.595   4.635   9.477  1.9079 -0.7774  0.1809
  185SAPI  H13Y21271   3.767   4.634   9.435  0.3175  0.2452 -1.9177
  185SAPI  C31421272   3.637   4.714   9.274 -0.3073  0.2888 -0.3624
  185SAPI  H14X21273   3.707   4.787   9.227  1.0958 -1.5711 -1.2216
  185SAPI  H14Y21274   3.536   4.756   9.258 -0.8819 -2.1601 -3.4917
  185SAPI  C31521275   3.625   4.575   9.199  0.1577 -0.2224  0.4215
  185SAPI  H15X21276   3.602   4.591   9.091 -2.5135 -2.9705  0.5133
  185SAPI  H15Y21277   3.544   4.510   9.239  0.4741 -1.5137 -0.9762
  185SAPI  C31621278   3.748   4.489   9.201  0.5454 -0.2958 -0.6456
  185SAPI  H16X21279   3.783   4.446   9.297 -2.7393  1.2733  1.3400
  185SAPI  H16Y21280   3.834   4.551   9.169  0.8254  0.5785  1.6632
  185SAPI  C31721281   3.731   4.379   9.099 -0.1353 -0.6529 -0.3496
  185SAPI  H17X21282   3.699   4.433   9.007  1.0686  0.7317  0.0338
  185SAPI  H17Y21283   3.662   4.300   9.135  0.5450 -0.9150  0.3944
  185SAPI  C31821284   3.854   4.296   9.068  0.4326  0.0443  0.2397
  185SAPI  H18X21285   3.903   4.282   9.166 -1.1971  1.9742  1.3814
  185SAPI  H18Y21286   3.929   4.342   9.000 -0.1824 -1.6667 -1.6441
  185SAPI  H18Z21287   3.817   4.202   9.023  1.6016 -0.8567  1.1485
  186SAPI   C1221288   5.156   2.724  10.486  0.4191  0.3892 -0.6601
  186SAPI    H221289   5.074   2.763  10.422 -0.2483 -0.5714 -0.4020
  186SAPI    O221290   5.192   2.592  10.444  0.0499 -0.4075 -0.5566
  186SAPI   HO221291   5.120   2.553  10.394  1.5145 -1.8182 -1.6441
  186SAPI   C1321292   5.269   2.816  10.475 -0.0688  0.0028 -0.0893
  186SAPI    H321293   5.240   2.917  10.512  2.7237  0.5221  0.7848
  186SAPI    O321294   5.311   2.833  10.337 -0.0784  0.3528 -0.2545
  186SAPI   HO321295   5.317   2.748  10.292 -2.2176 -0.5767  1.1573
  186SAPI   C1421296   5.378   2.767  10.567 -0.4044  0.5219 -0.4180
  186SAPI    H421297   5.400   2.659  10.551 -2.3320 -0.2125  1.5478
  186SAPI    O421298   5.497   2.848  10.552  0.0821  0.5677 -0.0146
  186SAPI   HO421299   5.544   2.829  10.470 -1.6213  0.0726 -0.9097
  186SAPI   C1521300   5.326   2.771  10.710  0.3218 -0.0110  0.3164
  186SAPI    H521301   5.292   2.872  10.742 -1.0413  0.0798 -1.3582
  186SAPI    O521302   5.426   2.731  10.807  0.5582  0.0163 -0.0452
  186SAPI   HO521303   5.450   2.638  10.808  0.3649 -0.0230  0.9749
  186SAPI   C1621304   5.204   2.681  10.732  0.7778  0.8529  0.1938
  186SAPI    H621305   5.243   2.580  10.705  1.0661  1.5707 -2.2023
  186SAPI    O621306   5.137   2.685  10.862 -0.4675 -0.1872 -0.0485
  186SAPI   HO621307   5.099   2.598  10.879  2.2646 -1.5510 -0.7176
  186SAPI   C1121308   5.097   2.721  10.627  0.0625 -0.2812 -0.0394
  186SAPI    H121309   5.070   2.826  10.651 -1.0459 -0.5450 -0.1390
  186SAPI     P21310   4.840   2.687  10.692  0.2943  0.3438  0.3880
  186SAPI   O1321311   4.794   2.826  10.640 -0.1784  0.1450  0.2779
  186SAPI   O1421312   4.847   2.678  10.838 -0.3438  0.3824 -0.3506
  186SAPI   O1221313   4.980   2.641  10.627  0.4762 -0.5308 -0.2215
  186SAPI   O1121314   4.731   2.581  10.647  0.0177 -0.0336 -0.0797
  186SAPI    C121315   4.771   2.454  10.592  0.1919 -0.0275  0.0894
  186SAPI    HA21316   4.868   2.423  10.634  0.3209 -0.4655 -0.5125
  186SAPI    HB21317   4.711   2.371  10.637 -1.2179 -0.5339 -2.5867
  186SAPI    C221318   4.778   2.459  10.438 -0.0659  1.1858 -0.1246
  186SAPI    HS21319   4.846   2.545  10.423  0.0434  0.8670 -1.5059
  186SAPI   O2121320   4.640   2.475  10.396 -0.4715  0.0942 -0.1212
  186SAPI   C2121321   4.627   2.575  10.303  0.1546  0.5602  0.2404
  186SAPI   O2221322   4.722   2.628  10.248  0.2715 -0.5023  0.4910
  186SAPI   C2221323   4.480   2.608  10.286  0.1036 -0.1628 -0.4835
  186SAPI   H2R21324   4.407   2.524  10.282 -0.4905  0.3841 -1.1458
  186SAPI   H2S21325   4.455   2.663  10.380 -0.7443 -1.2103 -0.0939
  186SAPI    C321326   4.845   2.335  10.389 -0.3049  0.1834 -0.0804
  186SAPI    HX21327   4.786   2.246  10.419  0.3665 -0.4610 -0.6409
  186SAPI    HY21328   4.946   2.310  10.429 -1.2053 -2.7752  0.5167
  186SAPI   O3121329   4.855   2.329  10.243  0.0417 -0.3908  0.2467
  186SAPI   C3121330   4.968   2.395  10.199  0.4626 -0.3639 -0.6711
  186SAPI   O3221331   5.049   2.441  10.273  0.3598  0.5058 -0.2482
  186SAPI   C3221332   4.970   2.408  10.052 -0.1758  0.3572 -0.2136
  186SAPI   H2X21333   4.916   2.320  10.011  0.0086  0.5965 -0.9754
  186SAPI   H2Y21334   5.077   2.398  10.026  0.0766 -0.9383  1.2207
  186SAPI   C2321335   4.450   2.706  10.168  0.1261 -0.1292 -0.5780
  186SAPI   H3R21336   4.525   2.787  10.159 -0.5322  0.6265  0.6883
  186SAPI   H3S21337   4.352   2.755  10.188  0.0991  0.6434 -2.4946
  186SAPI   C2421338   4.431   2.637  10.028  0.0042  0.5819  0.2713
  186SAPI   H4R21339   4.385   2.711   9.959  0.2508  1.8185  1.3917
  186SAPI   H4S21340   4.358   2.553  10.032  1.2751 -0.6747 -2.3439
  186SAPI   C2521341   4.551   2.580   9.966 -0.3197  0.1078 -0.0896
  186SAPI   H5R21342   4.615   2.519  10.030  1.4578  0.8859 -1.0920
  186SAPI   C2621343   4.580   2.584   9.830 -0.7092 -0.5452  0.0147
  186SAPI   H6R21344   4.681   2.548   9.805 -0.1402 -0.3525  1.9338
  186SAPI   C2721345   4.500   2.638   9.716  0.5344  0.3041 -0.1080
  186SAPI   H7R21346   4.405   2.693   9.738  0.0212 -0.5425 -0.1726
  186SAPI   H7S21347   4.474   2.546   9.660 -1.7742  1.3534 -0.8458
  186SAPI   C2821348   4.569   2.741   9.632 -0.2963  0.1047 -0.1279
  186SAPI   H8R21349   4.597   2.829   9.692 -0.2833 -0.6606  1.0096
  186SAPI   C2921350   4.619   2.732   9.512  0.7056 -1.0982  0.7322
  186SAPI   H9R21351   4.653   2.830   9.475 -0.2829 -0.7102  0.8196
  186SAPI  C21021352   4.629   2.621   9.410  0.6615 -0.2125 -0.0054
  186SAPI  H10R21353   4.534   2.609   9.355  1.7549 -0.5030 -1.8805
  186SAPI  H10S21354   4.645   2.522   9.457 -0.5187  0.0537  0.9813
  186SAPI  C21121355   4.726   2.655   9.304 -0.4187  0.1458 -0.0887
  186SAPI  H11R21356   4.824   2.677   9.349 -0.1176 -3.6452  1.2266
  186SAPI  C21221357   4.717   2.678   9.172 -0.3002  0.2278 -0.0310
  186SAPI  H12R21358   4.802   2.723   9.120 -0.6518 -1.4402 -2.1306
  186SAPI  C21321359   4.581   2.670   9.098 -0.0882  0.1612 -0.1974
  186SAPI  H13R21360   4.509   2.594   9.137 -1.8589  0.4929 -2.6763
  186SAPI  H13S21361   4.596   2.630   8.995 -3.8618 -0.0833 -0.7203
  186SAPI  C21421362   4.528   2.808   9.091 -0.6904  0.6697  0.1157
  186SAPI  H14R21363   4.468   2.838   9.179 -2.6119  0.4988 -1.1233
  186SAPI  C21521364   4.536   2.898   8.988  0.4285 -1.7001  0.1606
  186SAPI  H15R21365   4.490   2.996   9.006  2.4799 -0.8146  0.6675
  186SAPI  C21621366   4.623   2.880   8.867 -0.2857  0.4787 -0.0461
  186SAPI  H16R21367   4.662   2.776   8.866 -1.5491 -0.0058  0.5584
  186SAPI  H16S21368   4.699   2.962   8.861  0.2171  0.1282  1.3357
  186SAPI  C21721369   4.543   2.905   8.741 -0.1419  0.0335 -0.4734
  186SAPI  H17R21370   4.522   3.014   8.749 -0.6318 -0.1046  0.2175
  186SAPI  H17S21371   4.449   2.845   8.743  0.5962 -1.1114  1.5461
  186SAPI  C21821372   4.617   2.887   8.612 -0.1937  0.3888 -1.1672
  186SAPI  H18R21373   4.675   2.793   8.603 -2.1571 -0.6487 -3.7411
  186SAPI  H18S21374   4.704   2.956   8.605  0.8989 -0.6811  1.1854
  186SAPI  C21921375   4.519   2.907   8.496 -0.3224  0.1412 -0.0911
  186SAPI  H19R21376   4.468   3.006   8.495 -2.3801 -0.8604  1.0606
  186SAPI  H19S21377   4.430   2.844   8.516 -0.3545  0.8015  2.0138
  186SAPI  C22021378   4.582   2.891   8.359  0.3660 -0.3237 -0.2108
  186SAPI  H20R21379   4.501   2.897   8.283  0.4364 -1.8824 -0.4400
  186SAPI  H20S21380   4.636   2.794   8.357 -0.6813 -0.9455  1.1322
  186SAPI  H20T21381   4.660   2.966   8.335 -0.4803  1.2961  1.9585
  186SAPI   C3321382   4.925   2.545   9.997  0.2096  0.8833 -0.6798
  186SAPI   H3X21383   4.956   2.631  10.059 -0.7551  1.0407 -0.4061
  186SAPI   H3Y21384   4.816   2.560  10.010 -0.1612 -1.2491 -1.0611
  186SAPI   C3421385   4.968   2.566   9.848  0.5589  0.7614  0.8853
  186SAPI   H4X21386   5.078   2.559   9.839  0.7619  3.6126  0.7032
  186SAPI   H4Y21387   4.945   2.672   9.823  0.1486  0.4567 -0.0459
  186SAPI   C3521388   4.927   2.467   9.738  0.1126  0.3316  0.4056
  186SAPI   H5X21389   4.819   2.443   9.739  0.0638  0.5383  2.0126
  186SAPI   H5Y21390   4.987   2.376   9.764 -1.5190 -0.7856  0.3012
  186SAPI   C3621391   4.975   2.512   9.603  0.7180  0.7816 -0.1674
  186SAPI   H6X21392   5.073   2.564   9.603  0.4327  1.3230 -0.6128
  186SAPI   H6Y21393   4.900   2.586   9.569 -1.8471 -1.4373  0.4838
  186SAPI   C3721394   4.972   2.395   9.500  0.4849  0.1550  0.2857
  186SAPI   H7X21395   4.869   2.358   9.486 -0.0230  1.9059 -0.6885
  186SAPI   H7Y21396   5.026   2.308   9.544 -1.7918  0.0319  3.0311
  186SAPI   C3821397   5.019   2.445   9.361 -0.7613  0.3015 -0.7241
  186SAPI   H8X21398   5.102   2.517   9.380 -0.9748  0.9179 -2.0605
  186SAPI   H8Y21399   4.936   2.507   9.321 -0.1837  2.8442  1.8258
  186SAPI   C3921400   5.051   2.344   9.255  0.9601  0.1328 -0.1707
  186SAPI   H9X21401   4.978   2.262   9.237  3.2420 -2.4260  1.9561
  186SAPI   H9Y21402   5.135   2.292   9.306  1.5187 -1.0261 -2.1836
  186SAPI  C31021403   5.117   2.395   9.127  0.3436 -0.5642 -0.4199
  186SAPI  H10X21404   5.180   2.313   9.086  1.8771 -0.8352  2.3127
  186SAPI  H10Y21405   5.194   2.470   9.154 -1.5855  1.3424 -0.0809
  186SAPI  C31121406   5.017   2.443   9.024  0.4320 -0.2850  0.5606
  186SAPI  H11X21407   5.068   2.473   8.930  1.4896 -1.2038  0.8221
  186SAPI  H11Y21408   4.960   2.529   9.065  0.3212  1.2799 -2.7632
  186SAPI  C31221409   4.912   2.340   8.993 -0.5999  0.0103 -0.1594
  186SAPI  H12X21410   4.849   2.314   9.081  0.1077 -0.3302  0.2547
  186SAPI  H12Y21411   4.949   2.241   8.959  1.0645 -0.4274  2.7000
  186SAPI  C31321412   4.824   2.395   8.874  0.6605  0.5510  0.3059
  186SAPI  H13X21413   4.887   2.409   8.783 -0.4055  0.2743 -0.4735
  186SAPI  H13Y21414   4.791   2.497   8.905  0.0449  0.1855  0.8503
  186SAPI  C31421415   4.700   2.314   8.840 -0.0408 -0.2774 -0.3892
  186SAPI  H14X21416   4.643   2.276   8.928 -1.0497  1.1659 -0.3962
  186SAPI  H14Y21417   4.726   2.221   8.785 -1.2142 -0.1027 -1.2614
  186SAPI  C31521418   4.586   2.398   8.771  0.5403  0.4208  0.3416
  186SAPI  H15X21419   4.549   2.481   8.834  1.7642 -0.0760  1.7348
  186SAPI  H15Y21420   4.489   2.343   8.767  0.5755  0.3140  0.8586
  186SAPI  C31621421   4.633   2.466   8.639  0.1526  0.5644  0.5877
  186SAPI  H16X21422   4.694   2.393   8.581 -0.3654  0.9695 -0.4779
  186SAPI  H16Y21423   4.698   2.551   8.670 -1.5597  1.9259  0.5260
  186SAPI  C31721424   4.517   2.506   8.544  0.1384  0.4528  0.2989
  186SAPI  H17X21425   4.557   2.542   8.447 -1.8746 -0.5781 -0.9468
  186SAPI  H17Y21426   4.464   2.590   8.594  0.8078  1.5046 -0.7410
  186SAPI  C31821427   4.412   2.395   8.508 -0.9127 -0.1546 -0.0713
  186SAPI  H18X21428   4.341   2.444   8.439  1.1485 -0.4173 -2.4620
  186SAPI  H18Y21429   4.353   2.358   8.595 -0.1960 -0.8782  0.1089
  186SAPI  H18Z21430   4.467   2.310   8.461  1.1240 -0.2646  2.3700
  187SAPI   C1221431   0.552   4.086   6.245  0.0064  0.5195 -0.0677
  187SAPI    H221432   0.649   4.067   6.194 -0.0133 -0.4241  0.2355
  187SAPI    O221433   0.574   4.192   6.345  0.4445 -0.5554  0.1464
  187SAPI   HO221434   0.663   4.201   6.379 -0.2632 -0.5480  2.0217
  187SAPI   C1321435   0.450   4.130   6.137 -0.4650  0.0131 -1.1127
  187SAPI    H321436   0.430   4.047   6.066 -2.9372 -0.4283  0.0351
  187SAPI    O321437   0.495   4.251   6.069  0.6960  0.0316 -0.4711
  187SAPI   HO321438   0.514   4.226   5.978  2.7057 -0.0775 -0.0518
  187SAPI   C1421439   0.316   4.148   6.206 -0.2728  0.1596 -0.2333
  187SAPI    H421440   0.318   4.230   6.281 -0.2433 -1.1072  1.1799
  187SAPI    O421441   0.215   4.190   6.113  0.1570 -0.5332 -0.6308
  187SAPI   HO421442   0.239   4.149   6.029 -0.1848  1.1570 -1.5759
  187SAPI   C1521443   0.271   4.021   6.280 -0.2956  0.7253  0.7374
  187SAPI    H521444   0.260   3.944   6.201  1.6917 -0.6001  1.6972
  187SAPI    O521445   0.140   4.046   6.340 -0.1564  0.2218 -0.6096
  187SAPI   HO521446   0.093   3.963   6.334 -0.6087  0.3703  0.7942
  187SAPI   C1621447   0.369   3.965   6.376 -0.3216  0.1385 -0.6730
  187SAPI    H621448   0.375   4.032   6.465  0.6316 -2.8946  1.6135
  187SAPI    O621449   0.330   3.841   6.429  0.0726  0.0997 -0.2061
  187SAPI   HO621450   0.375   3.837   6.514 -0.8912  0.1864  0.3216
  187SAPI   C1121451   0.502   3.957   6.306 -0.7866  0.2341 -0.2201
  187SAPI    H121452   0.492   3.888   6.220 -0.7909  0.7490 -0.6309
  187SAPI     P21453   0.717   3.819   6.369  0.1792  0.2336 -0.1179
  187SAPI   O1321454   0.836   3.848   6.446 -0.5592 -0.0627 -0.3290
  187SAPI   O1421455   0.741   3.819   6.224 -0.5676  0.4385 -0.5410
  187SAPI   O1221456   0.593   3.914   6.408 -0.0809  0.0513  0.3349
  187SAPI   O1121457   0.657   3.667   6.409 -0.4745 -0.2913  0.2924
  187SAPI    C121458   0.578   3.644   6.527 -0.5801  0.1760 -0.3393
  187SAPI    HA21459   0.568   3.730   6.597  0.8337 -1.6576  2.1968
  187SAPI    HB21460   0.476   3.611   6.498  0.9689 -3.1745 -2.2304
  187SAPI    C221461   0.642   3.531   6.611 -0.0978 -0.1944  0.0735
  187SAPI    HS21462   0.566   3.483   6.676 -0.7650  2.5251  1.3706
  187SAPI   O2121463   0.755   3.584   6.697  0.3953  0.3431  0.1191
  187SAPI   C2121464   0.719   3.661   6.802 -0.2374 -0.3329  0.3046
  187SAPI   O2221465   0.606   3.687   6.842 -0.3430  0.5082 -0.3158
  187SAPI   C2221466   0.856   3.716   6.866 -0.1007  0.0387  0.2629
  187SAPI   H2R21467   0.895   3.620   6.907  0.4202  0.9659  2.0127
  187SAPI   H2S21468   0.921   3.756   6.785 -0.5150 -0.1253 -0.1510
  187SAPI    C321469   0.694   3.419   6.515  0.0327  0.7440  0.0313
  187SAPI    HX21470   0.773   3.461   6.449  0.8612 -2.9043 -1.4452
  187SAPI    HY21471   0.616   3.369   6.455 -0.4632  1.4519  0.0848
  187SAPI   O3121472   0.762   3.323   6.601 -0.2002 -0.1151  1.1008
  187SAPI   C3121473   0.885   3.320   6.608 -0.1234 -0.8969  0.1447
  187SAPI   O3221474   0.963   3.383   6.540 -0.4574  0.3548  0.0119
  187SAPI   C3221475   0.929   3.225   6.717 -0.0943  0.8521 -0.1539
  187SAPI   H2X21476   0.992   3.148   6.667 -2.6890 -1.5279  0.1866
  187SAPI   H2Y21477   0.838   3.168   6.744 -0.6309  1.4487 -0.6942
  187SAPI   C2321478   0.840   3.821   6.985 -0.4994 -0.2125 -0.4252
  187SAPI   H3R21479   0.761   3.896   6.960 -0.3038  1.3657  3.4295
  187SAPI   H3S21480   0.933   3.879   6.998 -0.0884 -0.9735  0.0917
  187SAPI   C2421481   0.816   3.754   7.123  1.0437  0.1739 -0.0462
  187SAPI   H4R21482   0.738   3.674   7.115 -0.2431  1.4761 -0.8209
  187SAPI   H4S21483   0.778   3.829   7.196  0.4227 -1.8083  1.7250
  187SAPI   C2521484   0.933   3.676   7.175  0.2460 -0.2184 -0.0671
  187SAPI   H5R21485   1.025   3.675   7.114  1.1127  2.6905  1.0629
  187SAPI   C2621486   0.942   3.632   7.299  0.4213 -0.3234 -0.2993
  187SAPI   H6R21487   1.035   3.588   7.338  1.1787  1.3993 -0.1284
  187SAPI   C2721488   0.839   3.649   7.407 -0.1372  0.1673  0.2629
  187SAPI   H7R21489   0.803   3.552   7.447  0.4909 -0.0569  0.2797
  187SAPI   H7S21490   0.743   3.697   7.376  0.2968  0.5154 -0.5467
  187SAPI   C2821491   0.885   3.743   7.516  0.0969 -0.3540  0.3240
  187SAPI   H8R21492   0.885   3.851   7.496 -2.0999  0.5016  4.4019
  187SAPI   C2921493   0.936   3.699   7.632 -0.1998 -0.0511 -0.2986
  187SAPI   H9R21494   0.987   3.774   7.693 -0.9438  0.4654 -0.3094
  187SAPI  C21021495   0.964   3.551   7.662 -0.0861 -0.9557 -0.1620
  187SAPI  H10R21496   0.984   3.496   7.568  0.8532  0.0379 -0.5591
  187SAPI  H10S21497   0.868   3.506   7.697 -0.0722 -0.6635  0.2516
  187SAPI  C21121498   1.072   3.527   7.768  1.0440 -0.1820  0.3675
  187SAPI  H11R21499   1.172   3.506   7.726  1.4470 -0.4019  1.4260
  187SAPI  C21221500   1.066   3.535   7.902 -0.6129 -0.6777  0.3475
  187SAPI  H12R21501   1.155   3.504   7.960 -0.9868 -1.8285  0.3268
  187SAPI  C21321502   0.942   3.576   7.986  0.6061 -0.1481 -0.4188
  187SAPI  H13R21503   0.854   3.583   7.920 -0.6487  1.6269  1.3842
  187SAPI  H13S21504   0.956   3.678   8.029 -2.4878  0.7035 -1.3137
  187SAPI  C21421505   0.910   3.468   8.088  0.3126  0.1515 -0.1394
  187SAPI  H14R21506   0.876   3.372   8.046 -1.6793  0.3267  0.9962
  187SAPI  C21521507   0.909   3.480   8.217  0.5034  0.0109  0.1053
  187SAPI  H15R21508   0.895   3.393   8.284  0.7742 -1.0945 -1.2486
  187SAPI  C21621509   0.942   3.598   8.300 -0.1671 -0.3305  0.6905
  187SAPI  H16R21510   0.858   3.605   8.373 -1.7406 -1.3680 -0.9689
  187SAPI  H16S21511   0.941   3.694   8.243 -1.1261 -0.6690  0.1133
  187SAPI  C21721512   1.075   3.583   8.380 -0.8648 -0.2988  0.4663
  187SAPI  H17R21513   1.088   3.492   8.442 -1.2370  0.1451  1.1960
  187SAPI  H17S21514   1.063   3.654   8.464  0.3487 -2.3734  2.4639
  187SAPI  C21821515   1.201   3.617   8.290 -0.4667 -0.6157  0.2518
  187SAPI  H18R21516   1.186   3.714   8.237 -0.4547 -0.5938  0.2898
  187SAPI  H18S21517   1.204   3.543   8.208 -0.2016  0.0892 -0.3853
  187SAPI  C21921518   1.338   3.607   8.366 -0.5136 -0.9359 -0.1696
  187SAPI  H19R21519   1.347   3.502   8.402 -1.8567 -1.7542 -2.1376
  187SAPI  H19S21520   1.344   3.669   8.457  2.4565 -0.5514 -0.5760
  187SAPI  C22021521   1.458   3.636   8.275 -0.5442 -0.1193 -0.2430
  187SAPI  H20R21522   1.553   3.618   8.329 -0.7939 -0.7317  0.0138
  187SAPI  H20S21523   1.457   3.740   8.238 -2.4389 -0.3607 -0.9687
  187SAPI  H20T21524   1.468   3.562   8.193  0.5435 -1.4732  1.0777
  187SAPI   C3321525   0.997   3.280   6.844 -0.0180 -0.2385 -0.3385
  187SAPI   H3X21526   0.999   3.391   6.833 -1.2404  0.0957  2.5315
  187SAPI   H3Y21527   1.101   3.245   6.862 -0.0658  0.0430  0.5211
  187SAPI   C3421528   0.907   3.246   6.965 -0.5787  0.3792 -0.4819
  187SAPI   H4X21529   0.904   3.136   6.977 -2.4809  0.5618  0.9904
  187SAPI   H4Y21530   0.803   3.281   6.947 -0.9022  0.3455  1.2432
  187SAPI   C3521531   0.938   3.307   7.104  0.3374  0.2799 -0.2965
  187SAPI   H5X21532   0.892   3.406   7.123 -2.4422 -1.0761  0.2864
  187SAPI   H5Y21533   1.049   3.295   7.108  0.5899  2.5378  0.5432
  187SAPI   C3621534   0.882   3.218   7.215  0.0994 -0.0790 -0.0772
  187SAPI   H6X21535   0.910   3.114   7.185  1.0763  0.6817 -1.8834
  187SAPI   H6Y21536   0.771   3.226   7.217 -0.0951 -2.2962 -0.0853
  187SAPI   C3721537   0.941   3.249   7.356 -0.0540 -0.5773  0.3333
  187SAPI   H7X21538   0.942   3.359   7.374 -0.7499 -0.2096 -1.7903
  187SAPI   H7Y21539   1.041   3.203   7.366  0.0467 -0.2498  0.8568
  187SAPI   C3821540   0.855   3.186   7.468  0.0668  0.1316  0.1794
  187SAPI   H8X21541   0.840   3.078   7.446  0.5847  0.3760 -1.4252
  187SAPI   H8Y21542   0.752   3.228   7.471  0.6979  1.6935  0.5092
  187SAPI   C3921543   0.905   3.197   7.608  0.6334 -0.6956  0.2852
  187SAPI   H9X21544   0.925   3.303   7.634  1.3360 -0.2914 -1.7889
  187SAPI   H9Y21545   1.004   3.148   7.598  0.5243 -0.6888 -0.9884
  187SAPI  C31021546   0.830   3.134   7.720  0.3331  0.3071  0.2078
  187SAPI  H10X21547   0.791   3.034   7.690 -0.4807  0.8531 -0.5774
  187SAPI  H10Y21548   0.740   3.196   7.741  0.6612  0.4065  1.3532
  187SAPI  C31121549   0.909   3.107   7.853  0.2685  0.6110 -0.0294
  187SAPI  H11X21550   0.938   3.207   7.892  0.4665  0.2795  0.6877
  187SAPI  H11Y21551   1.000   3.046   7.836 -0.0981 -0.2193  0.9431
  187SAPI  C31221552   0.830   3.047   7.967  0.4719 -0.4924  0.2145
  187SAPI  H12X21553   0.780   2.954   7.930  3.1367 -1.2854 -1.4889
  187SAPI  H12Y21554   0.752   3.119   8.000  0.3529 -0.8768  0.7862
  187SAPI  C31321555   0.926   3.009   8.091 -0.2277  0.1240 -1.3225
  187SAPI  H13X21556   0.971   3.104   8.126 -1.2042  0.8884 -2.1138
  187SAPI  H13Y21557   0.998   2.937   8.045  0.7386  2.2793 -3.3210
  187SAPI  C31421558   0.858   2.942   8.204  0.3904 -0.7816  0.9837
  187SAPI  H14X21559   0.934   2.907   8.277  0.1961 -1.9557  0.6238
  187SAPI  H14Y21560   0.794   2.857   8.173 -0.5845  0.4482 -0.5004
  187SAPI  C31521561   0.776   3.043   8.292  0.4265  0.7960  0.6776
  187SAPI  H15X21562   0.689   3.070   8.229 -0.4509 -2.5457  0.3303
  187SAPI  H15Y21563   0.842   3.132   8.303  0.8958  0.5842 -0.3685
  187SAPI  C31621564   0.733   2.981   8.419 -0.5482  0.1957  0.2634
  187SAPI  H16X21565   0.822   2.933   8.465 -0.2761 -1.3514 -1.8381
  187SAPI  H16Y21566   0.657   2.902   8.398  1.7106 -1.0323 -3.5580
  187SAPI  C31721567   0.670   3.071   8.528 -0.4273 -0.3359 -0.5038
  187SAPI  H17X21568   0.599   3.132   8.469 -3.9687 -0.7961  3.1167
  187SAPI  H17Y21569   0.747   3.137   8.573 -2.4406  1.9088 -0.2605
  187SAPI  C31821570   0.602   2.986   8.635 -0.2057 -0.1788  0.0646
  187SAPI  H18X21571   0.557   3.044   8.718 -1.1741 -0.6926 -0.0886
  187SAPI  H18Y21572   0.668   2.910   8.681 -2.5621 -2.4681 -0.2109
  187SAPI  H18Z21573   0.516   2.934   8.587 -0.3649  0.7111 -0.6495
  188SAPI   C1221574   3.004   0.002   6.538 -0.5649 -0.0942 -0.4869
  188SAPI    H221575   2.933   0.006   6.624 -1.6209  1.3917 -1.4133
  188SAPI    O221576   3.006   0.141   6.497  0.2016  0.4887  0.7522
  188SAPI   HO221577   2.927   0.134   6.444 -0.3563  1.4407  1.4479
  188SAPI   C1321578   3.145  -0.044   6.577 -0.7674  0.1392  0.2038
  188SAPI    H321579   3.126  -0.145   6.620 -2.2707 -0.9265 -2.8291
  188SAPI    O321580   3.207   0.035   6.679 -0.3329 -0.0242 -0.3638
  188SAPI   HO321581   3.191   0.121   6.640 -0.7977  0.9363  1.8676
  188SAPI   C1421582   3.237  -0.055   6.459  0.6792 -0.2106 -0.4125
  188SAPI    H421583   3.258   0.049   6.425  0.2826 -0.1014 -0.3303
  188SAPI    O421584   3.369  -0.097   6.497 -0.3800 -0.2534  0.4968
  188SAPI   HO421585   3.363  -0.161   6.568 -0.8657 -0.9748 -0.1786
  188SAPI   C1521586   3.173  -0.149   6.361  0.5854 -0.0869 -0.5245
  188SAPI    H521587   3.173  -0.249   6.410  0.1735 -0.2318 -0.8203
  188SAPI    O521588   3.253  -0.166   6.237  0.5420  0.7086  0.2706
  188SAPI   HO521589   3.280  -0.083   6.197 -2.1181  0.3640 -2.3515
  188SAPI   C1621590   3.034  -0.104   6.316  0.0964  0.2928 -0.0737
  188SAPI    H621591   3.045  -0.012   6.254 -0.1643  2.1122  2.5201
  188SAPI    O621592   2.969  -0.197   6.227 -0.1458  0.7553 -0.3044
  188SAPI   HO621593   2.885  -0.218   6.268  0.7109  0.4459  1.3260
  188SAPI   C1121594   2.942  -0.082   6.440 -0.4845  0.7316 -0.4714
  188SAPI    H121595   2.931  -0.187   6.476 -0.9297  0.6109 -0.9518
  188SAPI     P21596   2.677  -0.106   6.376 -0.0790  0.1325 -0.4611
  188SAPI   O1321597   2.701  -0.227   6.288  0.3708  0.0099  0.3169
  188SAPI   O1421598   2.571  -0.010   6.337 -0.4960  0.1247  0.1851
  188SAPI   O1221599   2.817  -0.029   6.404  0.2603 -0.0672  0.4599
  188SAPI   O1121600   2.631  -0.157   6.512 -0.3622  0.2175  0.0664
  188SAPI    C121601   2.582  -0.083   6.620  0.0354 -0.2735  0.3445
  188SAPI    HA21602   2.627   0.019   6.620  0.5492 -0.4975  0.5808
  188SAPI    HB21603   2.471  -0.083   6.618 -0.0169 -3.8382  1.2932
  188SAPI    C221604   2.631  -0.150   6.752  0.4447  0.4735 -0.0164
  188SAPI    HS21605   2.558  -0.132   6.834 -0.2207 -0.3734 -0.4149
  188SAPI   O2121606   2.756  -0.091   6.786 -0.3717  0.4892 -0.0252
  188SAPI   C2121607   2.741   0.033   6.844 -0.1552  0.3746  0.4657
  188SAPI   O2221608   2.633   0.092   6.837 -0.6861 -0.3655 -0.1527
  188SAPI   C2221609   2.864   0.095   6.900 -0.0592  0.9685 -0.3801
  188SAPI   H2R21610   2.937   0.111   6.818  0.7415 -2.2674 -0.3711
  188SAPI   H2S21611   2.830   0.187   6.951 -1.2869  0.6062 -0.5362
  188SAPI    C321612   2.655  -0.296   6.736 -0.3783 -0.1082  0.5828
  188SAPI    HX21613   2.733  -0.316   6.659 -0.2219 -3.5681  1.5427
  188SAPI    HY21614   2.568  -0.349   6.692 -0.3473 -1.5112  2.1752
  188SAPI   O3121615   2.683  -0.349   6.871  0.7153  0.3399  0.6873
  188SAPI   C3121616   2.809  -0.389   6.888  0.0130 -0.1578 -0.2386
  188SAPI   O3221617   2.903  -0.357   6.816  0.2453  0.8838 -0.1046
  188SAPI   C3221618   2.806  -0.492   7.014 -0.2021 -0.0356  0.9158
  188SAPI   H2X21619   2.900  -0.551   7.012  0.2487  0.7009 -0.0906
  188SAPI   H2Y21620   2.723  -0.565   7.004 -0.4951  0.0973  2.2000
  188SAPI   C2321621   2.941   0.014   7.001 -0.4203  0.2338 -0.5594
  188SAPI   H3R21622   3.034   0.056   7.046 -0.8578 -0.5496  1.1314
  188SAPI   H3S21623   2.981  -0.079   6.956 -1.7635 -1.2476  1.2301
  188SAPI   C2421624   2.851  -0.048   7.106  0.1561 -0.2522 -0.0902
  188SAPI   H4R21625   2.909  -0.130   7.154 -0.4200 -0.5877  0.0499
  188SAPI   H4S21626   2.782  -0.107   7.042  1.0537 -0.0625 -1.2555
  188SAPI   C2521627   2.784   0.044   7.207 -0.3094  0.1739  0.0153
  188SAPI   H5R21628   2.705   0.103   7.158  0.1837 -1.1154 -2.4051
  188SAPI   C2621629   2.819   0.059   7.337 -0.2220  0.3940 -0.3739
  188SAPI   H6R21630   2.771   0.134   7.401  1.1277  0.3271  0.7477
  188SAPI   C2721631   2.934  -0.022   7.400  0.0925  0.6082 -0.5736
  188SAPI   H7R21632   2.978   0.056   7.467 -1.9525  0.2044  1.3309
  188SAPI   H7S21633   3.020  -0.055   7.339  1.3809  0.3659  1.3141
  188SAPI   C2821634   2.881  -0.144   7.479  0.4532  0.0988 -0.5193
  188SAPI   H8R21635   2.832  -0.222   7.420  0.6020 -2.3326  2.4439
  188SAPI   C2921636   2.878  -0.162   7.614  0.4828  0.4301 -0.1071
  188SAPI   H9R21637   2.849  -0.260   7.654  1.5309  0.2813  0.2981
  188SAPI  C21021638   2.935  -0.065   7.711 -0.1309 -0.2302  0.1001
  188SAPI  H10R21639   3.011   0.001   7.664  0.0042 -1.1339 -0.9761
  188SAPI  H10S21640   2.977  -0.126   7.794  0.6955  1.1424  0.7058
  188SAPI  C21121641   2.820   0.023   7.756  0.5100  0.7166  0.5415
  188SAPI  H11R21642   2.742   0.041   7.681 -0.3087 -2.8982  0.4305
  188SAPI  C21221643   2.800   0.079   7.877  0.4892 -0.3937 -0.0237
  188SAPI  H12R21644   2.709   0.138   7.898  0.7083 -1.1462  3.3333
  188SAPI  C21321645   2.902   0.069   7.991 -0.4476  0.0318 -0.2025
  188SAPI  H13R21646   2.882   0.146   8.069  1.9897 -0.6813  1.1896
  188SAPI  H13S21647   3.008   0.081   7.962 -0.2037  0.7289  0.9338
  188SAPI  C21421648   2.892  -0.065   8.055  0.1768 -0.6837 -0.3910
  188SAPI  H14R21649   2.823  -0.139   8.011  0.3284 -1.2407  0.2991
  188SAPI  C21521650   2.946  -0.087   8.177  0.4013  0.2077  0.7387
  188SAPI  H15R21651   2.915  -0.183   8.222 -2.5708  0.9379  0.3768
  188SAPI  C21621652   3.024   0.007   8.261 -0.4744  0.1929 -0.4639
  188SAPI  H16R21653   2.967   0.042   8.350  2.2515  0.1482  1.3380
  188SAPI  H16S21654   3.054   0.089   8.193 -1.4485 -1.9494 -3.5680
  188SAPI  C21721655   3.148  -0.070   8.308  0.2003  0.6408  0.4382
  188SAPI  H17R21656   3.206  -0.111   8.223  0.7933  1.7735  0.2861
  188SAPI  H17S21657   3.109  -0.160   8.361 -1.1499  2.3403  2.4710
  188SAPI  C21821658   3.249   0.014   8.396 -0.7646 -0.2361 -0.3104
  188SAPI  H18R21659   3.256   0.113   8.346  0.6380 -0.6251 -0.8962
  188SAPI  H18S21660   3.348  -0.036   8.395  0.9733  3.0651 -1.0453
  188SAPI  C21921661   3.201   0.037   8.543 -0.2631  0.3742  0.6174
  188SAPI  H19R21662   3.200  -0.064   8.589 -3.1545  0.2711  0.4214
  188SAPI  H19S21663   3.097   0.074   8.541  0.2670  1.8905  0.4660
  188SAPI  C22021664   3.302   0.125   8.619  0.4857  0.0233 -0.8287
  188SAPI  H20R21665   3.266   0.132   8.723 -0.9957 -0.5276 -1.2921
  188SAPI  H20S21666   3.330   0.223   8.575  1.7962  0.5678  1.1907
  188SAPI  H20T21667   3.397   0.069   8.626  1.5727  1.6114 -2.2848
  188SAPI   C3321668   2.804  -0.415   7.147  0.0160 -0.3447 -0.1468
  188SAPI   H3X21669   2.747  -0.321   7.130 -1.7175 -1.5226 -1.0771
  188SAPI   H3Y21670   2.906  -0.376   7.167 -0.0796  1.6887 -3.2847
  188SAPI   C3421671   2.754  -0.496   7.260  0.0934  0.4780 -0.7794
  188SAPI   H4X21672   2.659  -0.548   7.241 -0.7520  2.3671 -1.8556
  188SAPI   H4Y21673   2.735  -0.423   7.342  0.7373  0.4445 -0.5907
  188SAPI   C3521674   2.865  -0.590   7.317 -0.3315 -0.0233  1.0210
  188SAPI   H5X21675   2.964  -0.540   7.320 -0.3328  0.0087  0.5686
  188SAPI   H5Y21676   2.872  -0.673   7.243  0.6799 -1.6356  2.8609
  188SAPI   C3621677   2.829  -0.652   7.452 -0.1940 -0.1280 -0.3484
  188SAPI   H6X21678   2.889  -0.745   7.459  0.4767  0.3060 -0.2903
  188SAPI   H6Y21679   2.724  -0.686   7.460  0.2087 -0.9756  1.7813
  188SAPI   C3721680   2.861  -0.568   7.572  0.1017 -0.3315  0.4519
  188SAPI   H7X21681   2.766  -0.516   7.598  1.3926  1.5723  1.5060
  188SAPI   H7Y21682   2.925  -0.480   7.547  1.0310 -1.3647 -0.8421
  188SAPI   C3821683   2.936  -0.631   7.692  0.0651 -0.6721  0.1718
  188SAPI   H8X21684   3.032  -0.672   7.653  0.7616 -2.1215  3.2285
  188SAPI   H8Y21685   2.870  -0.713   7.727 -0.8287 -1.3564 -3.0109
  188SAPI   C3921686   2.959  -0.516   7.794  0.2472  0.2358  0.5772
  188SAPI   H9X21687   2.861  -0.474   7.824  0.2071 -0.4203  1.3719
  188SAPI   H9Y21688   3.018  -0.434   7.748  0.6960 -1.0124 -1.1355
  188SAPI  C31021689   3.045  -0.548   7.910 -0.3221  0.3386  0.6786
  188SAPI  H10X21690   3.141  -0.576   7.862 -2.1075 -0.8955 -2.2807
  188SAPI  H10Y21691   2.991  -0.634   7.955  0.4038 -0.2406  0.4499
  188SAPI  C31121692   3.057  -0.444   8.012  0.3107 -0.6960  0.4311
  188SAPI  H11X21693   2.962  -0.387   8.027 -1.3074 -3.3848  0.7141
  188SAPI  H11Y21694   3.130  -0.368   7.976 -1.7614  1.7682  1.2236
  188SAPI  C31221695   3.127  -0.485   8.144 -0.0318  0.0858 -0.1185
  188SAPI  H12X21696   3.124  -0.395   8.209  0.4719 -0.5591  0.8104
  188SAPI  H12Y21697   3.232  -0.509   8.116 -0.3263 -1.2479 -0.1133
  188SAPI  C31321698   3.074  -0.601   8.228 -0.2975 -0.2973  1.1029
  188SAPI  H13X21699   3.071  -0.688   8.158 -1.2452 -0.2180  1.0383
  188SAPI  H13Y21700   2.969  -0.592   8.262 -1.1527 -2.5527 -0.7767
  188SAPI  C31421701   3.161  -0.618   8.358 -0.3773  0.1299 -0.1101
  188SAPI  H14X21702   3.126  -0.534   8.422  0.9387  4.2770 -4.5022
  188SAPI  H14Y21703   3.265  -0.598   8.327  0.1084  0.8498  1.9086
  188SAPI  C31521704   3.153  -0.759   8.424 -0.1551  0.0608  0.0038
  188SAPI  H15X21705   3.200  -0.824   8.348  0.6410  1.0653 -0.3833
  188SAPI  H15Y21706   3.049  -0.796   8.437  0.2454 -0.9417  0.3663
  188SAPI  C31621707   3.222  -0.768   8.561 -0.4040 -0.3563 -0.6965
  188SAPI  H16X21708   3.211  -0.870   8.604 -2.3917 -1.0350 -2.7050
  188SAPI  H16Y21709   3.180  -0.694   8.633  0.8537  1.6141 -1.9362
  188SAPI  C31721710   3.376  -0.739   8.552  0.1934  0.2182  0.4534
  188SAPI  H17X21711   3.416  -0.724   8.654  1.0247 -0.4265  0.2274
  188SAPI  H17Y21712   3.379  -0.643   8.496 -0.0225 -0.7030 -1.1701
  188SAPI  C31821713   3.441  -0.846   8.470  0.1432 -0.0458  0.2005
  188SAPI  H18X21714   3.395  -0.946   8.484 -0.8226  0.5382  1.2419
  188SAPI  H18Y21715   3.551  -0.846   8.488  0.2015 -1.2645 -0.1201
  188SAPI  H18Z21716   3.423  -0.818   8.364  3.1555  5.5013  0.9328
  189POPC     N21717   2.920   0.860  10.869  0.5079 -0.5230  0.2926
  189POPC   C1221718   3.018   0.905  10.975  0.5770 -0.2583 -0.3546
  189POPC  H12A21719   3.107   0.843  10.972  1.0323  0.4022 -0.5880
  189POPC  H12B21720   2.977   0.885  11.073 -1.7659  2.2088 -0.7913
  189POPC   C1321721   2.914   0.710  10.858  0.0218 -0.4183 -0.1329
  189POPC  H13A21722   3.012   0.665  10.850  0.9260  1.1346  1.6826
  189POPC  H13B21723   2.856   0.687  10.946 -1.7313 -0.4233 -1.2688
  189POPC  H13C21724   2.856   0.689  10.769  0.9322  0.1349 -0.8723
  189POPC   C1421725   2.780   0.902  10.893 -0.2384  0.6980  0.3351
  189POPC  H14A21726   2.770   1.010  10.882 -0.3507  0.7131  0.5872
  189POPC  H14B21727   2.712   0.867  10.816  0.0339  1.5058 -0.2895
  189POPC  H14C21728   2.737   0.880  10.989  0.7805 -2.0981  0.1961
  189POPC   C1521729   2.966   0.919  10.738  0.3848  0.9864  0.8791
  189POPC  H15A21730   2.992   1.024  10.742  0.5430  0.9173  1.6984
  189POPC  H15B21731   2.896   0.908  10.656 -0.4601  2.7559  1.3459
  189POPC  H15C21732   3.052   0.873  10.692 -1.3720  1.4690 -3.1235
  189POPC   C1121733   3.060   1.053  10.977 -0.0016  0.8889  0.4799
  189POPC  H11A21734   3.144   1.057  10.904 -0.7325 -2.8735 -0.6860
  189POPC  H11B21735   3.096   1.081  11.079  0.0309  0.5703  0.5576
  189POPC     P21736   2.983   1.267  10.864 -0.4214  0.0453 -0.3481
  189POPC   O1321737   3.092   1.334  10.938  0.0765 -0.0324  0.2068
  189POPC   O1421738   2.860   1.342  10.839 -0.5169  0.3961  0.2155
  189POPC   O1221739   2.953   1.135  10.940 -0.0057 -0.0320 -0.2790
  189POPC   O1121740   3.052   1.200  10.736 -0.6626 -0.0523 -0.2225
  189POPC    C121741   3.101   1.265  10.615  0.0029  0.1815 -0.3204
  189POPC    HA21742   3.189   1.208  10.577  1.2228  0.2709  2.2500
  189POPC    HB21743   3.120   1.370  10.643 -0.1105 -0.0720  0.7452
  189POPC    C221744   2.989   1.243  10.513 -0.5469  0.0368 -0.4343
  189POPC    HS21745   2.892   1.251  10.568 -1.3255  0.1793 -1.8119
  189POPC   O2121746   3.010   1.109  10.458  0.5456 -0.1052  0.1533
  189POPC   C2121747   2.903   1.075  10.387  0.1756  0.5695  0.0667
  189POPC   O2221748   2.802   1.145  10.361 -0.7122 -0.8754 -0.0266
  189POPC   C2221749   2.923   0.933  10.327  0.4962  0.8805  0.0629
  189POPC   H2R21750   2.838   0.878  10.373  1.0774 -0.4392 -0.4228
  189POPC   H2S21751   3.016   0.884  10.362 -0.4292 -0.6316  0.4648
  189POPC    C321752   2.997   1.358  10.407  0.0043 -0.2373 -0.2357
  189POPC    HX21753   3.008   1.448  10.472  0.6027  0.4366 -1.2591
  189POPC    HY21754   2.898   1.353  10.358 -1.1047  1.1709  1.7590
  189POPC   O3121755   3.111   1.348  10.315 -0.6531  0.5850 -0.3039
  189POPC   C3121756   3.197   1.445  10.317 -0.6469  0.0477  0.1586
  189POPC   O3221757   3.187   1.548  10.385 -0.3040  0.0143 -0.1928
  189POPC   C3221758   3.322   1.403  10.227  0.1106  0.4009 -0.4062
  189POPC   H2X21759   3.381   1.332  10.289  2.3955  0.8959 -1.9703
  189POPC   H2Y21760   3.382   1.496  10.219  0.4990  0.0669 -1.4158
  189POPC   C2321761   2.907   0.913  10.177  0.1756 -0.1729  0.0367
  189POPC   H3R21762   2.815   0.958  10.133  0.4981  1.7701  1.2788
  189POPC   H3S21763   2.901   0.804  10.161 -1.2523 -0.2229  0.8275
  189POPC   C2421764   3.025   0.964  10.096  0.0329  0.0648  0.9872
  189POPC   H4R21765   3.122   0.928  10.134 -0.8938 -2.9803  0.6689
  189POPC   H4S21766   3.021   1.073  10.114  2.6191  0.4572 -0.6562
  189POPC   C2521767   3.017   0.923   9.944 -0.1166 -0.2161  0.1494
  189POPC   H5R21768   2.918   0.961   9.909 -1.0698 -0.2494  2.6722
  189POPC   H5S21769   2.996   0.815   9.936 -0.5736 -0.1975  0.9496
  189POPC   C2621770   3.135   0.958   9.854  0.6250  0.2060 -0.1291
  189POPC   H6R21771   3.216   0.886   9.880  0.9553  0.8171  0.5436
  189POPC   H6S21772   3.164   1.063   9.872 -1.1496  1.1189 -2.3526
  189POPC   C2721773   3.116   0.946   9.709  0.3011 -0.1904  0.3146
  189POPC   H7R21774   3.074   1.034   9.656  0.8365 -0.3437 -0.3663
  189POPC   H7S21775   3.030   0.877   9.695 -0.1428  0.9014 -2.6300
  189POPC   C2821776   3.240   0.902   9.629 -1.0600 -0.3020  0.9011
  189POPC   H8R21777   3.275   0.808   9.677 -0.5938 -0.6729 -0.1511
  189POPC   H8S21778   3.323   0.972   9.652 -0.5730 -1.5422  3.0393
  189POPC   C2921779   3.224   0.886   9.480 -0.6166  0.3243  0.2165
  189POPC   H9121780   3.129   0.927   9.444 -0.0117 -0.5673 -2.4561
  189POPC  C21021781   3.312   0.822   9.397  0.5184 -0.1640 -0.1919
  189POPC  H10121782   3.281   0.816   9.292 -0.2318  3.2728 -0.2330
  189POPC  C21121783   3.443   0.758   9.434  0.3459 -0.1986  0.6052
  189POPC  H11R21784   3.473   0.782   9.538 -0.4929  1.4382  0.4830
  189POPC  H11S21785   3.523   0.802   9.371 -2.2567  0.8241 -2.1103
  189POPC  C21221786   3.441   0.605   9.410  0.1118 -0.0844  0.3720
  189POPC  H12R21787   3.335   0.572   9.416  0.4435 -0.8840  2.1956
  189POPC  H12S21788   3.500   0.556   9.491 -0.8612 -2.2661 -0.1887
  189POPC  C21321789   3.514   0.573   9.277 -0.2337  0.0585 -0.4801
  189POPC  H13R21790   3.555   0.470   9.274  2.4581  1.0260  1.5394
  189POPC  H13S21791   3.594   0.648   9.262 -0.2289  0.4425  1.3965
  189POPC  C21421792   3.422   0.585   9.160  0.0108  0.3085 -0.0826
  189POPC  H14R21793   3.375   0.684   9.145  3.2846  2.0109  0.3405
  189POPC  H14S21794   3.335   0.518   9.179 -0.5281  0.3508 -2.2495
  189POPC  C21521795   3.490   0.541   9.030  0.0771 -0.7045  0.3390
  189POPC  H15R21796   3.560   0.456   9.044  0.2142 -0.9676 -1.8091
  189POPC  H15S21797   3.547   0.631   9.000 -0.4371 -0.3199  0.5016
  189POPC  C21621798   3.393   0.497   8.921  0.7434  0.3298 -0.7069
  189POPC  H16R21799   3.332   0.414   8.963  3.4321 -1.2166  0.2526
  189POPC  H16S21800   3.450   0.452   8.838 -0.6688  0.8879 -2.0167
  189POPC  C21721801   3.308   0.609   8.865 -0.4332 -0.2703  0.9414
  189POPC  H17R21802   3.374   0.681   8.813  1.5962 -1.5688  1.6578
  189POPC  H17S21803   3.246   0.665   8.938 -1.4480  0.9781 -0.8542
  189POPC  C21821804   3.211   0.550   8.758  0.2461  0.3728 -0.5949
  189POPC  H18R21805   3.169   0.635   8.701 -1.1312 -0.7340 -1.2818
  189POPC  H18S21806   3.125   0.491   8.796  1.0836  0.5591  1.6670
  189POPC  H18T21807   3.278   0.490   8.691 -1.3122  0.8123 -2.5967
  189POPC   C3321808   3.273   1.346  10.092  0.3760  0.5497  0.4396
  189POPC   H3X21809   3.210   1.256  10.107 -0.5557  1.2023  0.5278
  189POPC   H3Y21810   3.361   1.305  10.038 -0.0897 -0.0585  0.1374
  189POPC   C3421811   3.204   1.463  10.012  0.4354 -0.1648  0.1151
  189POPC   H4X21812   3.266   1.555  10.020 -0.4153  0.2534  2.3827
  189POPC   H4Y21813   3.101   1.486  10.048  0.9648  0.1846  1.4536
  189POPC   C3521814   3.168   1.435   9.856  0.0279  0.3667 -1.0493
  189POPC   H5X21815   3.116   1.522   9.812 -0.6755  1.3117  1.5611
  189POPC   H5Y21816   3.118   1.338   9.835 -2.9115  1.7966 -0.9553
  189POPC   C3621817   3.299   1.436   9.779  0.3767 -0.5935 -0.4045
  189POPC   H6X21818   3.360   1.347   9.805 -0.3188 -0.7202  0.7952
  189POPC   H6Y21819   3.364   1.521   9.808 -0.8040  0.2300 -0.1615
  189POPC   C3721820   3.277   1.441   9.627 -0.2034  1.1758 -0.1800
  189POPC   H7X21821   3.376   1.475   9.588  1.3078 -0.6229  1.9951
  189POPC   H7Y21822   3.206   1.526   9.614 -0.0761  1.2898 -0.1381
  189POPC   C3821823   3.230   1.315   9.564  0.0207 -0.6128  0.3177
  189POPC   H8X21824   3.130   1.286   9.603 -0.8328 -0.2168 -1.5422
  189POPC   H8Y21825   3.294   1.226   9.581 -2.0574 -2.9112 -3.2866
  189POPC   C3921826   3.190   1.324   9.413 -0.0110  0.1388 -0.6432
  189POPC   H9X21827   3.102   1.386   9.383  0.3814  0.6817 -0.6900
  189POPC   H9Y21828   3.148   1.225   9.385 -1.5978  0.4993  0.3678
  189POPC  C31021829   3.309   1.359   9.330  0.2143  0.5708  0.7740
  189POPC  H10X21830   3.393   1.292   9.357 -2.1849 -2.6002  0.6101
  189POPC  H10Y21831   3.352   1.457   9.358  2.3377 -0.1461  0.1326
  189POPC  C31121832   3.277   1.365   9.174 -0.0576  0.5200  0.1096
  189POPC  H11X21833   3.190   1.433   9.163  0.4318  1.1017 -0.1599
  189POPC  H11Y21834   3.254   1.263   9.136 -1.0423  0.4274  0.9166
  189POPC  C31221835   3.404   1.398   9.098 -0.4359  0.0676 -0.9798
  189POPC  H12X21836   3.473   1.313   9.115  0.6734  1.0345 -0.5976
  189POPC  H12Y21837   3.446   1.492   9.139  1.9485 -0.4338 -2.1945
  189POPC  C31321838   3.382   1.403   8.948 -0.1384 -0.1278  0.5023
  189POPC  H13X21839   3.316   1.490   8.929 -0.7723 -0.1148  2.6732
  189POPC  H13Y21840   3.323   1.316   8.913 -1.2689 -0.5908  3.3768
  189POPC  C31421841   3.517   1.436   8.873  0.6706 -0.1330 -0.1058
  189POPC  H14X21842   3.598   1.373   8.915  2.6252  1.1556 -1.8785
  189POPC  H14Y21843   3.552   1.537   8.900  1.4621 -0.6395  0.7852
  189POPC  C31521844   3.510   1.426   8.720 -0.5213 -0.2922 -0.0637
  189POPC  H15X21845   3.440   1.503   8.682 -0.2315 -1.2747 -2.6752
  189POPC  H15Y21846   3.479   1.323   8.693 -0.0130  0.0226 -1.8618
  189POPC  C31621847   3.645   1.440   8.648 -0.5640 -0.5471 -0.5139
  189POPC  H16X21848   3.709   1.349   8.641 -0.5884 -0.6526  0.6219
  189POPC  H16Y21849   3.700   1.521   8.702  0.8093 -0.4084 -2.0652
  189POPC  H16Z21850   3.634   1.470   8.541 -0.5314 -0.0752 -0.3882
  190POPC     N21851   5.092   4.843  11.097 -0.3601 -0.1915  0.1368
  190POPC   C1221852   5.043   4.709  11.055  0.6280 -0.4324 -0.3765
  190POPC  H12A21853   4.964   4.713  10.982  0.2029  0.2855  0.1192
  190POPC  H12B21854   4.999   4.662  11.141 -1.3222  0.7426 -0.6966
  190POPC   C1321855   4.979   4.912  11.161  0.4318  0.7433 -0.4788
  190POPC  H13A21856   4.928   4.851  11.233 -0.1920 -0.4682 -1.9228
  190POPC  H13B21857   5.014   4.997  11.218  1.1206  0.8031 -0.9732
  190POPC  H13C21858   4.906   4.942  11.087  0.3707  1.3188 -0.1897
  190POPC   C1421859   5.203   4.847  11.200 -0.0734 -0.3739 -0.0811
  190POPC  H14A21860   5.298   4.834  11.151  0.7698  0.1049  1.3941
  190POPC  H14B21861   5.219   4.939  11.254  2.4797 -2.6979  3.3489
  190POPC  H14C21862   5.192   4.772  11.277  2.0086 -1.6025 -0.9671
  190POPC   C1521863   5.138   4.911  10.969  0.0433 -0.2999  0.4679
  190POPC  H15A21864   5.211   4.845  10.924  0.6152 -1.1217  2.5197
  190POPC  H15B21865   5.189   5.004  10.985  1.8011 -1.2472  0.4931
  190POPC  H15C21866   5.050   4.923  10.908  1.3257  1.0107 -1.1570
  190POPC   C1121867   5.150   4.614  11.002  1.0913 -0.7241  0.1994
  190POPC  H11A21868   5.192   4.671  10.916 -1.8113  0.9439 -0.1779
  190POPC  H11B21869   5.093   4.527  10.964  0.5999  0.7188 -2.5614
  190POPC     P21870   5.233   4.455  11.194  0.1512 -0.5081  0.0441
  190POPC   O1321871   5.133   4.474  11.297  0.8921  0.0648  0.1111
  190POPC   O1421872   5.371   4.422  11.244 -0.0241 -0.1912 -0.3864
  190POPC   O1221873   5.252   4.581  11.096  0.0334  0.5391 -0.0998
  190POPC   O1121874   5.182   4.327  11.113  0.1172  0.0755  0.3225
  190POPC    C121875   5.264   4.273  11.004  0.0046  0.1462  0.1879
  190POPC    HA21876   5.318   4.188  11.051  0.5369  0.7899  0.7396
  190POPC    HB21877   5.338   4.344  10.963  1.7187  0.0489  2.9858
  190POPC    C221878   5.180   4.231  10.887  0.2580 -0.3883  0.0911
  190POPC    HS21879   5.247   4.166  10.826  0.3946 -0.4220  0.2789
  190POPC   O2121880   5.124   4.345  10.816 -0.0333 -0.1069 -0.2974
  190POPC   C2121881   5.200   4.394  10.720 -0.5286 -0.3769  0.2339
  190POPC   O2221882   5.321   4.359  10.704 -0.5255 -0.1753  0.3620
  190POPC   C2221883   5.128   4.490  10.635  0.3270  0.0991 -0.4751
  190POPC   H2R21884   5.176   4.591  10.630  0.9210 -0.2271 -1.5618
  190POPC   H2S21885   5.031   4.516  10.682 -0.0780 -2.6142  0.2415
  190POPC    C321886   5.056   4.145  10.926 -0.1749  0.0483  0.2460
  190POPC    HX21887   5.006   4.212  10.999 -0.4524  1.9281 -1.6221
  190POPC    HY21888   5.074   4.049  10.978  0.1505  1.5697  3.0486
  190POPC   O3121889   4.974   4.109  10.810  0.2999  0.2858 -0.0257
  190POPC   C3121890   5.018   4.000  10.743 -0.0530  0.9319 -0.2510
  190POPC   O3221891   5.124   3.939  10.765  0.4075  0.1841  0.3485
  190POPC   C3221892   4.918   3.954  10.641 -0.9075  0.4446 -0.1791
  190POPC   H2X21893   4.817   3.967  10.684 -1.8271 -2.9326 -1.1649
  190POPC   H2Y21894   4.937   3.847  10.619 -0.5412  0.4438  0.1337
  190POPC   C2321895   5.087   4.424  10.496  0.1001  0.1015 -0.0336
  190POPC   H3R21896   5.025   4.334  10.512 -1.9820  1.1779 -1.6498
  190POPC   H3S21897   5.170   4.382  10.435  0.0576  0.9548 -0.7087
  190POPC   C2421898   5.005   4.530  10.424  0.4765 -0.1501 -0.6584
  190POPC   H4R21899   5.063   4.625  10.426 -0.1769  0.2610 -1.0997
  190POPC   H4S21900   4.914   4.554  10.484  1.1614 -0.2768  0.4486
  190POPC   C2521901   4.959   4.493  10.285 -0.4019 -0.0402 -0.1388
  190POPC   H5R21902   4.869   4.428  10.285 -1.5465  1.3929 -3.4170
  190POPC   H5S21903   5.040   4.444  10.228 -2.0642 -2.0301 -0.8466
  190POPC   C2621904   4.904   4.609  10.210 -0.4655 -0.1074 -0.0750
  190POPC   H6R21905   4.986   4.671  10.166 -1.2245 -0.9403 -2.7731
  190POPC   H6S21906   4.851   4.675  10.281 -0.3036 -0.1657  0.1024
  190POPC   C2721907   4.804   4.570  10.096 -0.6559 -0.3181 -0.5479
  190POPC   H7R21908   4.753   4.665  10.071 -2.5713 -1.5871 -1.6505
  190POPC   H7S21909   4.730   4.498  10.138  0.6140 -0.8955  0.7279
  190POPC   C2821910   4.876   4.517   9.971 -0.2690 -0.4950 -0.1112
  190POPC   H8R21911   4.921   4.417   9.985  2.4134  0.2122 -2.9855
  190POPC   H8S21912   4.967   4.581   9.970 -0.9478  0.4903 -0.0528
  190POPC   C2921913   4.805   4.512   9.841 -0.5177  0.2969  0.1945
  190POPC   H9121914   4.782   4.413   9.800 -0.2746  0.3814 -0.1508
  190POPC  C21021915   4.800   4.621   9.762 -0.1379  0.0290  0.0440
  190POPC  H10121916   4.738   4.606   9.672  0.6729  0.9335 -0.6734
  190POPC  C21121917   4.853   4.761   9.792  0.0642 -0.6572  0.3149
  190POPC  H11R21918   4.944   4.779   9.731 -0.5070 -0.3079 -0.4423
  190POPC  H11S21919   4.880   4.775   9.899 -0.6690 -0.4944  0.4797
  190POPC  C21221920   4.753   4.876   9.769 -0.2813  0.0799  0.9889
  190POPC  H12R21921   4.805   4.966   9.808  1.3508 -0.2954 -0.2726
  190POPC  H12S21922   4.659   4.852   9.824 -0.4379 -3.4038 -0.6665
  190POPC  C21321923   4.726   4.900   9.620  0.3384 -0.2496  0.0463
  190POPC  H13R21924   4.662   4.817   9.581 -3.0591  1.5460  1.5370
  190POPC  H13S21925   4.806   4.922   9.546 -2.7752 -0.2681 -3.5089
  190POPC  C21421926   4.642   5.026   9.605 -0.0521 -0.2642  1.1317
  190POPC  H14R21927   4.673   5.102   9.680 -1.0715  0.2043  1.0924
  190POPC  H14S21928   4.533   5.005   9.616 -0.2934  0.5904  0.4888
  190POPC  C21521929   4.656   5.094   9.463  0.4412 -0.5096 -0.8368
  190POPC  H15R21930   4.646   5.017   9.383  1.1163 -0.1011 -1.3194
  190POPC  H15S21931   4.758   5.131   9.441  1.5119 -2.0880  1.3772
  190POPC  C21621932   4.542   5.198   9.437 -0.1875  0.3154 -0.0832
  190POPC  H16R21933   4.572   5.293   9.486  3.8586  0.1246 -1.9640
  190POPC  H16S21934   4.447   5.159   9.480  0.7984 -1.0743  0.8742
  190POPC  C21721935   4.518   5.215   9.283  0.3734 -0.0401 -0.0811
  190POPC  H17R21936   4.487   5.120   9.234  0.3749  1.0413 -2.2383
  190POPC  H17S21937   4.610   5.259   9.239  0.9654 -0.0288  1.1637
  190POPC  C21821938   4.400   5.307   9.256  0.1726  0.7745  0.6695
  190POPC  H18R21939   4.381   5.387   9.331 -1.9785  1.2386 -0.3136
  190POPC  H18S21940   4.310   5.242   9.253  0.0029  1.0064  0.6803
  190POPC  H18T21941   4.415   5.343   9.152  1.3357 -2.2449 -0.2571
  190POPC   C3321942   4.933   4.034  10.516  0.5533  0.1059  0.0096
  190POPC   H3X21943   4.936   4.144  10.532  0.2734 -0.0255  1.0430
  190POPC   H3Y21944   4.842   4.020  10.453 -1.8808  2.6985  2.7830
  190POPC   C3421945   5.060   3.983  10.445 -0.1292 -0.8239  0.3133
  190POPC   H4X21946   5.080   3.874  10.450  2.6186 -0.5363 -2.6423
  190POPC   H4Y21947   5.149   4.027  10.495 -0.0413 -2.4929  1.6908
  190POPC   C3521948   5.068   4.019  10.295 -0.5328 -0.2358  0.3107
  190POPC   H5X21949   5.073   4.130  10.292 -0.3974 -0.1819  2.1715
  190POPC   H5Y21950   4.986   3.989  10.226  2.1419 -0.9653 -2.6964
  190POPC   C3621951   5.193   3.976  10.228  0.0304 -0.6853  0.1000
  190POPC   H6X21952   5.216   3.868  10.244  0.5064 -0.7372 -0.8890
  190POPC   H6Y21953   5.284   4.031  10.261 -0.9950  0.9369  0.2866
  190POPC   C3721954   5.175   4.003  10.081 -0.2022 -0.3169  1.0627
  190POPC   H7X21955   5.168   4.112  10.060 -2.2643 -1.1063 -2.6437
  190POPC   H7Y21956   5.082   3.954  10.047  0.1957 -2.3374  2.7730
  190POPC   C3821957   5.309   3.959  10.010  0.4117 -0.4689  0.0684
  190POPC   H8X21958   5.342   3.860  10.047 -0.9019 -1.2751 -0.8805
  190POPC   H8Y21959   5.384   4.032  10.048  0.3486 -0.5606  0.3685
  190POPC   C3921960   5.303   3.963   9.857 -0.1320 -0.1560  0.1861
  190POPC   H9X21961   5.243   4.050   9.822  1.9939  0.0318 -3.2850
  190POPC   H9Y21962   5.242   3.879   9.816  0.0469  0.7326 -1.9985
  190POPC  C31021963   5.441   3.954   9.788 -0.4995 -0.2486 -0.4522
  190POPC  H10X21964   5.472   3.849   9.808  0.2534 -0.0866 -0.7870
  190POPC  H10Y21965   5.507   4.028   9.838 -0.1287 -1.0218  0.2297
  190POPC  C31121966   5.446   3.974   9.636 -0.5806 -0.2134 -0.0367
  190POPC  H11X21967   5.547   3.945   9.600 -0.3609  0.4379  0.0551
  190POPC  H11Y21968   5.430   4.084   9.630 -3.6591 -0.5616  0.9592
  190POPC  C31221969   5.347   3.903   9.550  0.4205 -0.0513 -0.5463
  190POPC  H12X21970   5.241   3.908   9.583  0.3529 -0.8949 -0.6165
  190POPC  H12Y21971   5.369   3.794   9.557  0.7038  0.0637  0.4719
  190POPC  C31321972   5.343   3.949   9.404 -0.3957  0.1558 -0.1864
  190POPC  H13X21973   5.449   3.949   9.370 -0.8282 -2.4097 -1.6573
  190POPC  H13Y21974   5.292   4.048   9.402 -0.7962 -0.0297  0.8627
  190POPC  C31421975   5.256   3.855   9.321 -0.8151  0.1178 -0.6202
  190POPC  H14X21976   5.154   3.830   9.359 -0.9908  0.4382 -0.8757
  190POPC  H14Y21977   5.307   3.757   9.312 -0.3275  0.2396  0.6684
  190POPC  C31521978   5.237   3.910   9.184  0.0689 -0.2467  0.5725
  190POPC  H15X21979   5.330   3.909   9.123  1.8484  1.2679  3.1424
  190POPC  H15Y21980   5.211   4.018   9.191  0.7075  0.0929 -1.8960
  190POPC  C31621981   5.126   3.832   9.100 -0.0308  0.1879 -0.1782
  190POPC  H16X21982   5.097   3.897   9.014 -1.5313 -0.2958 -0.0449
  190POPC  H16Y21983   5.035   3.838   9.163 -1.2073  0.6299 -1.8934
  190POPC  H16Z21984   5.145   3.729   9.063 -0.0566  0.5219 -1.1402
  191POPC     N21985   4.720   5.007   6.217 -0.0211  0.4614  0.2020
  191POPC   C1221986   4.842   5.023   6.311  0.0204 -0.3006  0.0449
  191POPC  H12A21987   4.926   4.990   6.252 -0.3346  1.2576 -1.3837
  191POPC  H12B21988   4.831   4.955   6.394  0.4350  0.7984  1.0097
  191POPC   C1321989   4.740   4.882   6.142 -0.2588  0.6773 -0.6066
  191POPC  H13A21990   4.833   4.882   6.088 -1.3500  2.0462 -2.5582
  191POPC  H13B21991   4.729   4.798   6.209  0.8335  0.4342 -0.7249
  191POPC  H13C21992   4.661   4.872   6.069  0.4077 -3.9442 -0.8472
  191POPC   C1421993   4.599   5.019   6.299  0.5679  0.2905 -0.5008
  191POPC  H14A21994   4.514   5.003   6.235 -1.6753 -0.1973  2.5021
  191POPC  H14B21995   4.603   4.949   6.382  0.3056  0.0012 -0.7339
  191POPC  H14C21996   4.601   5.115   6.349  1.0677 -0.0096  0.0737
  191POPC   C1521997   4.716   5.115   6.121  0.4094  0.0844  0.4689
  191POPC  H15A21998   4.813   5.130   6.074  0.1479  1.1679  0.2456
  191POPC  H15B21999   4.698   5.211   6.168 -3.1796  0.4707 -1.4583
  191POPC  H15C22000   4.630   5.107   6.056 -0.5401 -2.3111  1.9741
  191POPC   C1122001   4.871   5.165   6.370 -0.3267  0.3276  0.0820
  191POPC  H11A22002   4.937   5.161   6.459  0.2923  1.6818 -0.3111
  191POPC  H11B22003   4.773   5.200   6.408 -0.1670  0.6058  0.2341
  191POPC     P22004   5.059   5.246   6.201  0.4615  0.3437  0.2846
  191POPC   O1322005   5.056   5.338   6.086  0.2920 -0.5119  0.8173
  191POPC   O1422006   5.100   5.107   6.182  0.4374  0.2355  0.2277
  191POPC   O1222007   4.923   5.257   6.276 -0.1652  0.4362  0.5793
  191POPC   O1122008   5.163   5.299   6.302 -0.4617  0.1489 -0.3926
  191POPC    C122009   5.141   5.437   6.354 -0.0027 -0.2254 -0.3475
  191POPC    HA22010   5.052   5.495   6.319 -0.4333 -1.2097 -0.8863
  191POPC    HB22011   5.224   5.504   6.322  0.0865  0.5734  1.4446
  191POPC    C222012   5.157   5.448   6.510  0.2932 -0.3987  0.0349
  191POPC    HS22013   5.063   5.476   6.564 -0.4413 -1.5791 -0.6163
  191POPC   O2122014   5.264   5.538   6.556 -0.4013  0.2208  0.0945
  191POPC   C2122015   5.230   5.660   6.574  0.2462  0.1060  0.0342
  191POPC   O2222016   5.124   5.714   6.544  0.4195 -0.2392 -0.6391
  191POPC   C2222017   5.349   5.735   6.627 -0.6142  0.0961  0.4191
  191POPC   H2R22018   5.409   5.760   6.537  1.9666 -0.6775  1.8667
  191POPC   H2S22019   5.408   5.665   6.689 -1.0135 -0.6477 -0.0285
  191POPC    C322020   5.188   5.307   6.573  0.3922 -0.4628 -0.1906
  191POPC    HX22021   5.272   5.262   6.516  1.5356  2.3976 -0.8587
  191POPC    HY22022   5.094   5.253   6.549  0.3108 -0.9286  1.1190
  191POPC   O3122023   5.214   5.320   6.711 -0.3455  0.3842  0.4145
  191POPC   C3122024   5.220   5.200   6.775  0.2932 -0.4824 -0.0122
  191POPC   O3222025   5.223   5.092   6.718  0.6961  0.2713 -0.1207
  191POPC   C3222026   5.239   5.224   6.925 -0.2389  0.3068  0.5924
  191POPC   H2X22027   5.176   5.314   6.945  0.9642  1.1701  0.5317
  191POPC   H2Y22028   5.345   5.243   6.949 -0.0594  0.7088 -0.4854
  191POPC   C2322029   5.312   5.878   6.680 -0.4729  0.4451 -0.0462
  191POPC   H3R22030   5.237   5.913   6.607  0.7646 -1.5484 -2.3484
  191POPC   H3S22031   5.406   5.937   6.673  0.1101 -0.5232 -0.6550
  191POPC   C2422032   5.249   5.893   6.818  0.7138 -0.3990 -0.0504
  191POPC   H4R22033   5.334   5.891   6.889  0.1848 -1.7690  0.5598
  191POPC   H4S22034   5.170   5.817   6.839 -0.6953  1.7420  2.6778
  191POPC   C2522035   5.174   6.031   6.826  0.1873  0.2566  0.4885
  191POPC   H5R22036   5.112   6.032   6.733  1.7417 -3.1028 -0.6674
  191POPC   H5S22037   5.249   6.112   6.823 -0.8999  1.2490 -0.7069
  191POPC   C2622038   5.080   6.048   6.948 -0.4842 -0.0319  0.0729
  191POPC   H6R22039   5.018   5.959   6.972  1.2416 -0.6409  2.4866
  191POPC   H6S22040   5.021   6.139   6.925  0.1851  0.3405 -0.2050
  191POPC   C2722041   5.156   6.093   7.074  0.5058  0.6999 -0.0471
  191POPC   H7R22042   5.237   6.159   7.036  0.9881  0.3711  0.4072
  191POPC   H7S22043   5.214   6.005   7.108  0.4265 -0.5002 -2.9038
  191POPC   C2822044   5.074   6.160   7.183  0.2038  0.5594  0.0090
  191POPC   H8R22045   5.013   6.244   7.142  0.3627  1.4891  1.6126
  191POPC   H8S22046   5.139   6.205   7.261  0.9858 -1.0999  0.3307
  191POPC   C2922047   4.970   6.069   7.247  0.0197  1.0072 -0.4684
  191POPC   H9122048   4.903   6.017   7.177  0.6825  2.6069 -2.3611
  191POPC  C21022049   4.934   6.061   7.375 -0.6289 -0.0928 -0.0041
  191POPC  H10122050   4.846   5.999   7.398 -0.7890  0.4299  0.8206
  191POPC  C21122051   4.988   6.138   7.494 -0.1169  0.3707 -0.2250
  191POPC  H11R22052   5.049   6.231   7.484  1.7780 -0.4311  3.0932
  191POPC  H11S22053   5.046   6.064   7.552 -2.5266 -0.4718  1.1756
  191POPC  C21222054   4.859   6.197   7.576 -0.0755  0.0916 -0.8715
  191POPC  H12R22055   4.806   6.115   7.628  1.7745 -0.7326 -0.2473
  191POPC  H12S22056   4.785   6.227   7.499  1.8900 -0.6277 -3.0913
  191POPC  C21322057   4.898   6.314   7.662  0.2452  0.2644  0.2624
  191POPC  H13R22058   4.810   6.370   7.700  0.0485 -0.5486  1.0137
  191POPC  H13S22059   4.946   6.387   7.593 -1.6643  1.0976 -0.2324
  191POPC  C21422060   4.989   6.281   7.777  0.4743  0.6184  0.1103
  191POPC  H14R22061   5.049   6.372   7.798  1.8782  0.0147 -1.2187
  191POPC  H14S22062   5.062   6.202   7.748  0.5587  0.3717  0.9627
  191POPC  C21522063   4.917   6.259   7.913 -0.3368  0.0707  0.0990
  191POPC  H15R22064   4.866   6.349   7.956 -3.1214 -0.4313 -2.0445
  191POPC  H15S22065   4.990   6.241   7.995  1.0067  0.4239 -0.9983
  191POPC  C21622066   4.813   6.141   7.928  0.0243 -0.2972  0.0199
  191POPC  H16R22067   4.862   6.045   7.901  0.5923  0.3005 -1.1341
  191POPC  H16S22068   4.725   6.155   7.862  1.0758  0.0867 -1.3264
  191POPC  C21722069   4.761   6.129   8.073 -0.0341 -0.5587 -0.3124
  191POPC  H17R22070   4.706   6.219   8.107 -0.3125 -0.8397 -0.0314
  191POPC  H17S22071   4.845   6.102   8.140  1.8999  1.5325 -1.7652
  191POPC  C21822072   4.655   6.017   8.093 -0.2379 -0.3353 -0.2970
  191POPC  H18R22073   4.573   6.023   8.018 -0.3195  0.0719 -0.1733
  191POPC  H18S22074   4.604   6.032   8.191 -0.0310  1.8120 -0.5017
  191POPC  H18T22075   4.688   5.911   8.101 -0.5526 -0.2499  2.4999
  191POPC   C3322076   5.193   5.101   7.006 -0.1073 -1.2194  0.9065
  191POPC   H3X22077   5.233   5.001   6.978  1.1872 -0.2006 -1.0086
  191POPC   H3Y22078   5.082   5.107   7.003 -0.0929 -1.1305  0.4924
  191POPC   C3422079   5.241   5.118   7.149 -0.3376 -0.0678  0.0174
  191POPC   H4X22080   5.216   5.226   7.160  0.9539  0.1049  1.3403
  191POPC   H4Y22081   5.348   5.092   7.160 -0.5911 -0.5091  1.5713
  191POPC   C3522082   5.167   5.042   7.250 -0.0138 -0.1107  0.1755
  191POPC   H5X22083   5.189   4.934   7.239 -1.5169 -0.3901 -0.2497
  191POPC   H5Y22084   5.057   5.052   7.236  0.0744  2.4041  0.9647
  191POPC   C3622085   5.202   5.094   7.390  0.3614  0.3384  0.5022
  191POPC   H6X22086   5.185   5.203   7.394  0.5506  0.3420  1.4838
  191POPC   H6Y22087   5.307   5.076   7.420  0.0126 -1.3520  0.7906
  191POPC   C3722088   5.121   5.024   7.498 -0.6468 -0.0737 -0.7737
  191POPC   H7X22089   5.134   4.914   7.490  0.0054  0.0317 -1.1531
  191POPC   H7Y22090   5.010   5.034   7.489 -0.8439 -1.9677 -0.8455
  191POPC   C3822091   5.163   5.075   7.637  0.4179  0.0586 -0.0942
  191POPC   H8X22092   5.136   5.182   7.651 -1.1574 -0.1501 -1.4519
  191POPC   H8Y22093   5.273   5.060   7.644  0.0200 -2.3895  1.2106
  191POPC   C3922094   5.101   4.995   7.748 -0.5240 -0.3575  0.3071
  191POPC   H9X22095   5.130   4.888   7.746  0.1551 -0.1670 -0.2070
  191POPC   H9Y22096   4.993   5.004   7.723 -0.5680 -2.1487 -0.2100
  191POPC  C31022097   5.134   5.042   7.884 -0.3917 -0.0866 -0.2514
  191POPC  H10X22098   5.094   5.146   7.894 -1.1447 -0.1826 -1.9647
  191POPC  H10Y22099   5.242   5.052   7.908 -1.1920  0.5729  3.2870
  191POPC  C31122100   5.074   4.949   7.994  0.4393 -0.0556  0.2009
  191POPC  H11X22101   5.125   4.851   8.006 -1.3561 -0.9907  0.3654
  191POPC  H11Y22102   4.968   4.930   7.966  0.0410  1.2182  0.7909
  191POPC  C31222103   5.067   5.008   8.138  0.5171 -0.5109  0.0837
  191POPC  H12X22104   4.983   4.966   8.197  0.8415  0.4520  1.2532
  191POPC  H12Y22105   5.042   5.116   8.123  0.0917 -0.3503  1.8754
  191POPC  C31322106   5.187   4.992   8.224 -0.3044  0.4731 -1.6634
  191POPC  H13X22107   5.276   5.047   8.185 -0.1662  2.1090  0.8381
  191POPC  H13Y22108   5.216   4.885   8.223 -0.1655  0.4618  1.0405
  191POPC  C31422109   5.173   5.036   8.368 -0.3898  0.0610  0.1491
  191POPC  H14X22110   5.074   4.999   8.403  0.1971 -0.4847  1.2802
  191POPC  H14Y22111   5.175   5.146   8.381 -1.4683 -0.0446  1.3540
  191POPC  C31522112   5.283   4.983   8.467  0.2868  0.2224  0.8877
  191POPC  H15X22113   5.374   5.033   8.429  1.8346 -2.2952  1.1308
  191POPC  H15Y22114   5.284   4.871   8.467 -0.2428  0.2131  0.8355
  191POPC  C31622115   5.264   5.038   8.608 -0.2534 -0.5967 -0.9624
  191POPC  H16X22116   5.245   5.147   8.595 -1.7776 -1.0987 -3.1570
  191POPC  H16Y22117   5.357   5.005   8.660  0.2213  0.1954 -1.2962
  191POPC  H16Z22118   5.175   4.991   8.655  0.5253  0.1150  1.3119
  192POPC     N22119   4.251   0.437   6.141  0.6993  0.0706  0.4024
  192POPC   C1222120   4.141   0.543   6.123 -0.4866  0.4393  0.4053
  192POPC  H12A22121   4.051   0.495   6.087 -0.5093  0.6133  0.2239
  192POPC  H12B22122   4.165   0.601   6.035  0.9791 -2.9224 -1.4919
  192POPC   C1322123   4.381   0.498   6.171  0.3537  0.0283  0.3533
  192POPC  H13A22124   4.376   0.579   6.241 -0.3638  0.4357 -0.1682
  192POPC  H13B22125   4.447   0.424   6.215  0.1461 -0.7801 -0.6757
  192POPC  H13C22126   4.422   0.535   6.078  1.0417 -0.7424  0.3340
  192POPC   C1422127   4.215   0.343   6.254  0.1732  0.3430  0.3140
  192POPC  H14A22128   4.111   0.312   6.253 -0.3111  1.8025  2.7180
  192POPC  H14B22129   4.262   0.246   6.255 -1.6477 -0.5593  0.9985
  192POPC  H14C22130   4.213   0.395   6.348 -0.1391 -3.8410  2.7534
  192POPC   C1522131   4.276   0.355   6.015  0.4107  0.1972 -0.4271
  192POPC  H15A22132   4.363   0.294   6.032  0.8248  1.1226  0.7601
  192POPC  H15B22133   4.294   0.414   5.927  1.2283  1.5764  0.6526
  192POPC  H15C22134   4.196   0.283   6.001  1.7859 -1.1339 -1.6298
  192POPC   C1122135   4.101   0.633   6.242 -0.1093 -0.2083 -0.2301
  192POPC  H11A22136   4.065   0.559   6.318 -0.7040 -0.0830 -0.3865
  192POPC  H11B22137   4.017   0.704   6.226 -0.1455 -0.4048 -0.8989
  192POPC     P22138   4.263   0.827   6.234  0.4060  0.3450  0.1374
  192POPC   O1322139   4.196   0.844   6.104  0.1351 -0.0123 -0.7735
  192POPC   O1422140   4.406   0.813   6.218  0.5003 -0.4377  0.0757
  192POPC   O1222141   4.202   0.707   6.306 -0.0572 -0.3357  0.0075
  192POPC   O1122142   4.231   0.944   6.337  0.3778  0.1484  0.4316
  192POPC    C122143   4.100   0.981   6.385 -0.6246 -0.1771 -0.0435
  192POPC    HA22144   4.016   0.924   6.339 -0.5847  0.6645 -1.2009
  192POPC    HB22145   4.090   1.088   6.354 -1.3280 -0.4170 -0.6753
  192POPC    C222146   4.089   0.984   6.540  0.4684  0.1129 -0.2037
  192POPC    HS22147   3.988   1.019   6.571  1.0205 -1.3247  3.4999
  192POPC   O2122148   4.198   1.061   6.588  0.3687  0.2632  0.2157
  192POPC   C2122149   4.174   1.190   6.569  0.3953  0.5460 -0.2113
  192POPC   O2222150   4.081   1.240   6.513  0.3156 -0.6001 -0.2904
  192POPC   C2222151   4.285   1.271   6.628  0.1365  0.0568  0.3937
  192POPC   H2R22152   4.277   1.382   6.619 -0.5377 -0.0151  0.1100
  192POPC   H2S22153   4.372   1.240   6.566  0.1387 -1.2420  1.0259
  192POPC    C322154   4.102   0.842   6.605  0.3726 -0.5279 -0.0817
  192POPC    HX22155   4.196   0.800   6.565  0.5776  2.0308 -2.4680
  192POPC    HY22156   4.018   0.780   6.567  0.6389 -0.5319 -0.6544
  192POPC   O3122157   4.102   0.848   6.752 -0.1174 -0.0166 -0.3177
  192POPC   C3122158   4.062   0.729   6.804  0.2769  0.2083 -0.0301
  192POPC   O3222159   4.020   0.634   6.740  0.6551  0.3472  0.2908
  192POPC   C3222160   4.076   0.723   6.951 -0.0146 -0.9222  0.2825
  192POPC   H2X22161   4.179   0.696   6.981 -0.3888 -1.2837  1.2806
  192POPC   H2Y22162   4.011   0.649   7.003  0.6454 -1.6806  0.0288
  192POPC   C2322163   4.311   1.239   6.778 -0.7409  0.2181 -0.1983
  192POPC   H3R22164   4.397   1.304   6.804  0.9154 -1.4976 -1.2060
  192POPC   H3S22165   4.347   1.135   6.798 -0.0877  0.3682 -0.5835
  192POPC   C2422166   4.206   1.276   6.877  0.3606  0.0703 -0.2430
  192POPC   H4R22167   4.107   1.241   6.843  1.0163 -1.6265 -0.4856
  192POPC   H4S22168   4.191   1.386   6.874 -2.2724 -0.2509 -0.1570
  192POPC   C2522169   4.235   1.217   7.017 -0.4018 -0.4531 -0.0272
  192POPC   H5R22170   4.236   1.106   7.011  0.4116 -0.7076  3.5189
  192POPC   H5S22171   4.161   1.231   7.099 -0.8830 -2.7299 -0.0225
  192POPC   C2622172   4.371   1.247   7.084  0.1132  0.1386  0.2793
  192POPC   H6R22173   4.373   1.355   7.110 -1.4312  0.5669 -1.2901
  192POPC   H6S22174   4.447   1.220   7.007  0.1922 -1.2197  0.8277
  192POPC   C2722175   4.377   1.157   7.211 -0.6025 -0.2971  0.6224
  192POPC   H7R22176   4.398   1.054   7.176 -0.1819 -0.4657  1.3640
  192POPC   H7S22177   4.277   1.157   7.260 -1.7674  2.4425 -1.6175
  192POPC   C2822178   4.492   1.196   7.305 -0.1070 -0.2804  0.1760
  192POPC   H8R22179   4.591   1.174   7.259 -0.7020 -0.6814 -0.9081
  192POPC   H8S22180   4.482   1.133   7.396 -2.6389 -2.1814 -1.3672
  192POPC   C2922181   4.483   1.343   7.342 -0.5026 -0.9690  0.3976
  192POPC   H9122182   4.526   1.406   7.263 -2.1704 -0.4475 -0.1042
  192POPC  C21022183   4.415   1.392   7.452  1.1068  0.4350  0.0189
  192POPC  H10122184   4.422   1.499   7.476 -0.4206  0.7245 -0.7689
  192POPC  C21122185   4.340   1.315   7.562  0.3584 -0.2167  0.1650
  192POPC  H11R22186   4.379   1.211   7.568  0.7591 -0.1402 -0.9828
  192POPC  H11S22187   4.234   1.304   7.531  0.6483  1.3613 -1.4086
  192POPC  C21222188   4.359   1.390   7.693 -0.1089 -0.6925 -0.3682
  192POPC  H12R22189   4.295   1.338   7.767  1.3630  0.1551  1.5705
  192POPC  H12S22190   4.323   1.495   7.694  1.1671 -0.2162 -2.0096
  192POPC  C21322191   4.501   1.399   7.759  0.3835  0.1101  0.2092
  192POPC  H13R22192   4.488   1.459   7.851  0.0373  0.5979 -0.1535
  192POPC  H13S22193   4.565   1.448   7.682  1.8012  0.3239  1.5098
  192POPC  C21422194   4.559   1.264   7.789 -0.0584 -1.0689  0.1198
  192POPC  H14R22195   4.581   1.213   7.694 -2.3175 -0.6188 -0.6808
  192POPC  H14S22196   4.500   1.195   7.853  0.4194 -1.1125  0.5159
  192POPC  C21522197   4.692   1.284   7.861  0.2534 -0.3494 -0.0329
  192POPC  H15R22198   4.666   1.311   7.965  4.7182  0.3151  0.9950
  192POPC  H15S22199   4.741   1.378   7.826 -0.3485  0.6207  1.6890
  192POPC  C21622200   4.793   1.163   7.865  0.3527  0.5173  0.7693
  192POPC  H16R22201   4.835   1.143   7.764 -0.4479  1.9992  0.1194
  192POPC  H16S22202   4.753   1.072   7.914 -0.2932  1.1529  1.4271
  192POPC  C21722203   4.912   1.198   7.960  0.6519 -0.2467 -0.4837
  192POPC  H17R22204   4.859   1.220   8.055  0.4223  1.4409 -0.9861
  192POPC  H17S22205   4.959   1.295   7.933  1.0326  0.2490  1.8373
  192POPC  C21822206   5.007   1.080   7.981  0.0883  0.8224  0.0931
  192POPC  H18R22207   4.949   0.987   7.997  0.5884  0.6996  1.2372
  192POPC  H18S22208   5.085   1.092   8.059  1.0064  0.8593 -0.8082
  192POPC  H18T22209   5.065   1.065   7.887 -0.6762 -1.3038 -0.0788
  192POPC   C3322210   4.028   0.856   7.013  0.6377  0.6207 -0.4075
  192POPC   H3X22211   3.923   0.860   6.978  0.6626 -3.1306 -1.1607
  192POPC   H3Y22212   4.086   0.945   6.980 -1.0704  3.1006  3.0246
  192POPC   C3422213   4.019   0.852   7.167 -0.0373 -0.2528 -1.0230
  192POPC   H4X22214   3.954   0.765   7.190  2.3428 -2.1754 -1.4036
  192POPC   H4Y22215   3.965   0.939   7.211 -1.2289 -2.0399  1.1573
  192POPC   C3522216   4.156   0.837   7.229 -0.0849  0.1974 -0.3215
  192POPC   H5X22217   4.231   0.900   7.176  0.4916  0.9820  1.3762
  192POPC   H5Y22218   4.187   0.731   7.217  1.9397  0.7984 -0.6128
  192POPC   C3622219   4.157   0.871   7.379  1.3056 -0.2381 -0.1043
  192POPC   H6X22220   4.073   0.813   7.423  1.3868  1.0206  1.7305
  192POPC   H6Y22221   4.135   0.979   7.393  2.8499  0.1084 -0.2572
  192POPC   C3722222   4.282   0.847   7.457 -0.0923 -0.0386 -0.2148
  192POPC   H7X22223   4.373   0.891   7.412 -1.9784  2.1515 -2.0354
  192POPC   H7Y22224   4.300   0.737   7.451  1.7857  0.2086  0.6049
  192POPC   C3822225   4.273   0.901   7.598 -0.8728 -0.0377  0.3656
  192POPC   H8X22226   4.230   1.003   7.607 -0.3471  0.1102  1.2220
  192POPC   H8Y22227   4.375   0.922   7.636 -0.0919  1.0894 -2.2401
  192POPC   C3922228   4.195   0.806   7.697 -0.2621 -0.0624  0.5436
  192POPC   H9X22229   4.259   0.725   7.738 -0.5337 -1.3298 -1.5234
  192POPC   H9Y22230   4.106   0.773   7.640 -0.7902  1.8409  0.2139
  192POPC  C31022231   4.146   0.869   7.826  0.5146  0.1701 -0.8217
  192POPC  H10X22232   4.062   0.801   7.855 -0.6410  2.1566  0.5803
  192POPC  H10Y22233   4.100   0.968   7.806 -1.8557 -1.2505 -2.8356
  192POPC  C31122234   4.254   0.881   7.938 -0.4818 -0.1479  0.2721
  192POPC  H11X22235   4.345   0.935   7.904 -0.5643 -0.0910  0.1406
  192POPC  H11Y22236   4.292   0.779   7.956 -0.8340 -0.2733  0.3089
  192POPC  C31222237   4.197   0.949   8.063 -0.7585 -0.8856 -0.2894
  192POPC  H12X22238   4.127   0.878   8.112  1.0126 -3.2062 -0.9792
  192POPC  H12Y22239   4.139   1.039   8.034 -1.9107 -1.5521 -0.0669
  192POPC  C31322240   4.296   0.979   8.171 -0.1916  0.1789 -0.3142
  192POPC  H13X22241   4.337   0.881   8.206  1.5689  1.0486  0.1018
  192POPC  H13Y22242   4.233   1.015   8.255  2.5073 -1.2614  2.4477
  192POPC  C31422243   4.413   1.071   8.138  0.8595 -0.4156 -0.4807
  192POPC  H14X22244   4.381   1.171   8.101  2.3722  0.2918  0.0595
  192POPC  H14Y22245   4.472   1.031   8.053  1.2033  0.0433 -0.4629
  192POPC  C31522246   4.492   1.099   8.264 -0.2303  0.4323  0.4481
  192POPC  H15X22247   4.516   0.994   8.294  0.3202  0.0509 -1.2732
  192POPC  H15Y22248   4.428   1.147   8.340 -0.5122 -1.5711  1.5136
  192POPC  C31622249   4.630   1.165   8.242  0.0316 -0.0167  0.2849
  192POPC  H16X22250   4.611   1.273   8.221 -1.5915 -0.4979 -0.7385
  192POPC  H16Y22251   4.689   1.129   8.156 -2.3209  0.1120 -1.4079
  192POPC  H16Z22252   4.692   1.163   8.335  0.1437 -1.3092  0.1832
  193SOD    SOD22253   4.299   2.221   5.530 -0.1646 -0.3097 -0.2213
  194SOD    SOD22254   6.254   4.096   5.453 -0.3548  0.0701  0.0520
  195SOD    SOD22255   1.496   3.349   4.926 -0.0431  0.1989 -0.4145
  196SOD    SOD22256   4.342   5.048   0.233  0.0882 -0.7195  0.0373
  197SOD    SOD22257   5.231   6.405  16.786  0.1942  0.2385 -0.0958
  198SOD    SOD22258   0.881   0.839  11.642  0.1590 -0.1054 -0.1019
  199SOD    SOD22259   4.747   2.168   0.619  0.0565 -0.0258 -0.2890
  200SOD    SOD22260   3.652   3.764   5.305  0.2842 -0.3029 -0.5125
  201SOD    SOD22261   5.418   4.418  13.227 -0.6395  0.0359  0.4133
  202SOD    SOD22262   3.477   4.125  10.479  0.1988  0.2584 -0.1567
  203SOD    SOD22263   5.627   1.349   0.814 -0.0144 -0.2250  0.0358
  204SOD    SOD22264   1.980   5.761   4.279 -0.2285  0.4350  0.2901
  205SOD    SOD22265   5.239   1.494   2.453 -0.0333 -0.1307 -0.0168
  206SOD    SOD22266   1.768   5.147  12.925  0.1962  0.0323 -0.1086
  207SOD    SOD22267   5.446   2.282  12.207  0.5279  0.0140  0.1659
  208SOD    SOD22268   3.432   0.392  13.746  0.1133  0.3714  0.0533
  209SOD    SOD22269   3.785   0.132  11.461 -0.0858 -0.1265  0.1287
  210SOD    SOD22270   3.331   2.232  12.085 -0.2679 -0.1080 -0.1503
  211SOD    SOD22271   6.764   2.076   0.709  0.5639 -0.2024  0.0703
  212SOD    SOD22272   6.229   6.092   5.390  0.6914 -0.1198  0.6305
  213SOD    SOD22273   6.766   5.059   1.967  0.0485  0.4366  0.4843
  214SOD    SOD22274   0.487   3.802  12.519  0.2269  0.1208 -0.2916
  215SOD    SOD22275   1.026   5.985   5.509  0.0498 -0.6095  0.0286
  216SOD    SOD22276   3.485   0.304   2.989  0.6909  0.2610  0.3660
  217SOD    SOD22277   2.638   4.513  16.625 -0.4075 -0.1162 -0.3887
  218SOD    SOD22278   1.164   3.311   6.135  0.1616  0.5590 -0.0794
  219SOD    SOD22279   4.461   2.710  14.520 -0.1107 -0.2031 -0.0639
  220SOD    SOD22280   2.517   3.750  15.919 -0.1769 -0.3051 -0.1999
  221SOD    SOD22281   6.454   6.639  15.502  0.2992  0.0670 -0.3186
  222SOD    SOD22282   5.714   3.702   6.148 -0.0534 -0.2260  0.3081
  223SOD    SOD22283   5.475   2.579   6.228  0.5385 -0.0952 -0.2696
  224SOD    SOD22284   0.302   1.884   6.113 -0.0408  0.5322 -0.0541
  225SOD    SOD22285   0.997   6.463  14.684 -0.2438  0.0435  0.0627
  226SOD    SOD22286   6.197   3.731   3.418  0.1035 -0.2174  0.3002
  227SOD    SOD22287   3.623   4.100  11.315 -0.2768  0.0709  0.4170
  228SOD    SOD22288   5.368   3.275  16.689  0.0061 -0.1027 -0.2037
  229SOD    SOD22289   1.753   6.607   3.026 -0.2351  0.2693  0.1820
  230SOD    SOD22290   1.713   1.867  12.114 -0.2422  0.2005  0.3833
  231SOD    SOD22291   5.225   0.278   0.823  0.0507  0.0662  0.1375
  232SOD    SOD22292   0.310   1.991   0.122 -0.2172 -0.2709  0.1012
  233SOD    SOD22293   4.676   0.574  14.291 -0.1479 -0.3746  0.0804
  234SOD    SOD22294   2.408   0.976  15.466 -0.5442  0.2853 -0.1799
  235SOD    SOD22295   5.905   3.205  13.343  0.1493 -0.1084  0.3007
  236SOD    SOD22296   1.176   0.700   1.250  0.4147  0.1677 -0.0966
  237SOD    SOD22297   0.859   3.972   4.435  0.2997  0.0369 -0.3909
  238SOD    SOD22298   1.808   1.470   6.418  0.1639  0.0478 -0.7144
  239SOD    SOD22299   2.483   5.515   5.620 -0.1263  0.2069  0.2013
  240SOD    SOD22300   4.958   2.676  11.331  0.2699  0.1387  0.0009
  241SOD    SOD22301   2.199   5.339  15.305  0.2987 -0.0565  0.1023
  242SOD    SOD22302   3.158   5.168   5.999 -0.0349 -0.1564  0.1274
  243SOD    SOD22303   5.978   2.024   3.849 -0.0318 -0.1455  0.3762
  244SOD    SOD22304   5.823   3.891   2.740  0.0802  0.1315 -0.1670
  245SOD    SOD22305   5.037   2.301  14.542 -0.0636 -0.2408  0.6326
  246SOD    SOD22306   2.679   3.502   4.979  0.0157  0.1387  0.2702
  247SOD    SOD22307   5.835   0.441  16.967  0.1680 -0.3323  0.3487
  248SOD    SOD22308   5.338   3.420   1.856 -0.2420 -0.3560  0.1790
  249SOD    SOD22309   6.559   1.689   6.181  0.0365  0.0484 -0.2558
  250SOD    SOD22310   4.355   3.298   4.021  0.2972  0.0274 -0.0915
  251SOD    SOD22311   0.968   1.867   3.003 -0.1429  0.0930  0.0225
  252SOD    SOD22312   5.472   5.898   5.820 -0.5243  0.1279  0.7186
  253SOD    SOD22313   0.113   5.599   0.836 -0.0976 -0.2576  0.4025
  254SOD    SOD22314   4.522   5.406  16.692 -0.1140  0.6914  0.2276
  255SOD    SOD22315   2.807   4.431  14.678  0.0921 -0.4135  0.2242
  256SOD    SOD22316   4.661   1.655  16.107  0.1779 -0.2119 -0.2478
  257SOD    SOD22317   1.110   4.669  11.182 -0.0641  0.0036 -0.3513
  258SOD    SOD22318   2.204   1.476  14.213 -0.5454 -0.1395 -0.6447
  259SOD    SOD22319   2.069   0.506  12.795  0.0823  0.1777  0.3602
  260SOD    SOD22320   4.228   2.202  15.618  0.0609 -0.1936  0.1724
  261SOD    SOD22321   5.248   0.298  13.326 -0.1929  0.3362  0.2553
  262SOD    SOD22322   2.577   1.688  15.400 -0.0749  0.2745  0.2234
  263SOD    SOD22323   5.666   4.606  10.995 -0.0298  0.2424  0.1636
  264SOD    SOD22324   2.256   0.327   3.434  0.5515 -0.0582  0.1850
  265SOD    SOD22325   6.733   6.565   1.506  0.3772 -0.0192 -0.0300
  266SOD    SOD22326   4.757   5.002  11.451  0.1203  0.4852  0.6011
  267SOD    SOD22327   2.181   4.755  12.036  0.4507 -0.0746 -0.0486
  268SOD    SOD22328   4.825   6.545   6.111  0.2063  0.3609 -0.0986
  269SOD    SOD22329   6.709   1.822  11.920  0.3922 -0.4224  0.0481
  270CLA    CLA22330   0.169   3.496   2.665 -0.5430  0.1836 -0.0985
  271CLA    CLA22331   4.614   0.894   4.641  0.4149  0.6308  0.1449
  272CLA    CLA22332   0.316   5.041   3.958  0.4688 -0.1622 -0.0054
  273CLA    CLA22333   2.220   3.408   3.155 -0.2941 -0.2925  0.3246
  274CLA    CLA22334   4.940   2.216  12.703 -0.0118  0.2072 -0.2091
  275CLA    CLA22335   4.954   2.128   5.399  0.4797 -0.0113  0.1659
  276CLA    CLA22336   2.963   4.359  15.104 -0.1427 -0.5635 -0.3447
  277CLA    CLA22337   5.302   2.880  14.116  0.2616 -0.4837 -0.3040
  278CLA    CLA22338   4.289   1.803  15.879 -0.3447 -0.0026 -0.0400
  279CLA    CLA22339   1.801   4.124  13.470  0.1581  0.5360 -0.1712
  280CLA    CLA22340   0.934   5.115  14.158 -0.1251  0.1214 -0.1719
  281CLA    CLA22341   4.988   5.669  11.428  0.3308  0.1104 -0.0632
  282CLA    CLA22342   1.716   2.014  13.673 -0.0221  0.2020  0.2383
  283CLA    CLA22343   3.065   2.649  15.859 -0.2534 -0.2195 -0.0276
  284CLA    CLA22344   3.006   0.690  15.829  0.0952 -0.2456  0.1024
  285CLA    CLA22345   5.576   2.661  13.780  0.0564 -0.0611 -0.3199
  286CLA    CLA22346   2.931   3.949  12.280 -0.0987  0.3839  0.1038
  287CLA    CLA22347   0.542   4.801  12.643 -0.1969 -0.0107 -0.0821
  288CLA    CLA22348   3.891   4.341   4.967  0.0385 -0.2991 -0.2374
  289CLA    CLA22349   5.214   2.910  16.298  0.1035  0.1412  0.0360
  290CLA    CLA22350   5.716   3.765   3.133  0.2952  0.3004 -0.1227
  291CLA    CLA22351   1.861   0.393   1.596  0.0527  0.3938 -0.0169
  292CLA    CLA22352   3.112   3.611   4.848 -0.2374  0.6065 -0.0293
  293CLA    CLA22353   0.208   1.325   3.027  0.1953  0.0629 -0.0456
  294CLA    CLA22354   4.738   2.428   5.093 -0.5076 -0.1831  0.1238
  295CLA    CLA22355   6.421   5.496  12.871  0.2059 -0.0610 -0.1908
  296CLA    CLA22356   5.580   1.703   4.270  0.2466  0.6867 -0.0291
  297CLA    CLA22357   5.858   2.082  15.712  0.3026  0.2996 -0.0155
  298CLA    CLA22358   5.982   0.201   0.195 -0.3234 -0.1481  0.4629
  299CLA    CLA22359   0.472   2.007  16.733  0.2502 -0.1680  0.2365
  300CLA    CLA22360   2.967   4.219  17.123  0.0702  0.4823  0.1344
  301CLA    CLA22361   6.664   1.864   1.161  0.0980 -0.2624 -0.1461
  302CLA    CLA22362   1.339   5.629   0.754  0.3421 -0.2406 -0.3863
  303CLA    CLA22363   2.675   3.872   4.591  0.1667 -0.0364 -0.2679
  304CLA    CLA22364   3.214   5.774  14.448 -0.2715  0.2214 -0.3620
  305CLA    CLA22365   6.722   3.348   1.578  0.1336 -0.2318  0.1757
  306CLA    CLA22366   5.890   2.514  16.092 -0.1259 -0.0050  0.3969
  307CLA    CLA22367   3.603   2.631   3.032  0.1035  0.1437 -0.1390
  308CLA    CLA22368   0.469   2.110   5.000  0.3898  0.1483 -0.0901
  309CLA    CLA22369   6.034   0.071  15.450 -0.0883 -0.7584  0.1741
  310CLA    CLA22370   2.717   5.971   0.903 -0.0964  0.1113  0.6502
  311CLA    CLA22371   2.068   0.107  15.929 -0.1497  0.2665  0.4499
  312CLA    CLA22372   4.914   1.492   3.655 -0.3313  0.3833 -0.4172
  313CLA    CLA22373   2.152   2.987  14.537 -0.1792 -0.1295  0.3105
  314CLA    CLA22374   5.530   5.108   3.065  0.1560 -0.2410 -0.3515
  315CLA    CLA22375   6.459   2.765  15.041  0.5030  0.1009 -0.1792
  316CLA    CLA22376   1.636   6.061  15.828  0.0243  0.1348  0.0420
  317CLA    CLA22377   1.690   1.341  12.528  0.0839  0.3289  0.1815
  318CLA    CLA22378   4.273   6.232  15.436  0.2936 -0.2280  0.4388
  319CLA    CLA22379   6.460   2.797   3.722 -0.4356  0.0404 -0.1648
  320CLA    CLA22380   6.335   6.616   1.214  0.1714  0.0435 -0.3524
  321CLA    CLA22381   1.892   6.598   3.678  0.2125 -0.3191 -0.1249
  322CLA    CLA22382   3.060   0.122   0.737 -0.1700 -0.4351  0.2365
  323TIP3   OH222383   6.692   4.197  11.824  0.2298 -0.0211  0.4361
  323TIP3    H122384   6.755   4.175  11.756  0.3529  0.9626  0.2242
  323TIP3    H222385   6.626   4.250  11.780 -0.4329 -0.5352  0.7901
  324TIP3   OH222386   2.992   6.759   5.162 -0.3677 -0.3592 -0.2854
  324TIP3    H122387   3.017   6.702   5.234 -2.4516 -0.7914  0.1391
  324TIP3    H222388   3.040   6.725   5.086  1.6149 -0.0676  0.8201
  325TIP3   OH222389   5.194   5.765  10.654 -0.5083 -0.0390  0.0962
  325TIP3    H122390   5.111   5.766  10.607  0.0778 -0.0843 -0.9560
  325TIP3    H222391   5.175   5.720  10.736 -1.3418 -0.7471 -0.4761
  326TIP3   OH222392   0.231   2.613  13.517 -0.5515  0.2159  0.0478
  326TIP3    H122393   0.275   2.554  13.578  1.1723  0.8778 -0.5266
  326TIP3    H222394   0.286   2.612  13.439 -0.4396  2.6363  0.0592
  327TIP3   OH222395   2.439   3.828  16.138  0.0487 -0.6486  0.3651
  327TIP3    H122396   2.490   3.850  16.216 -1.3170 -0.8986  1.3626
  327TIP3    H222397   2.384   3.905  16.122  1.4244  0.0122 -1.2899
  328TIP3   OH222398   2.497   5.300  17.063  0.0203  0.2432  0.3320
  328TIP3    H122399   2.552   5.301  17.141  0.4840 -1.0709  0.0299
  328TIP3    H222400   2.449   5.218  17.069 -0.0367  0.2002 -0.7053
  329TIP3   OH222401   5.597   5.213  13.943 -0.0581  0.3448  0.2202
  329TIP3    H122402   5.682   5.167  13.945  0.1957  0.7981 -0.0927
  329TIP3    H222403   5.610   5.283  13.879 -1.5377 -1.3226 -1.9850
  330TIP3   OH222404   4.451   6.281   1.263 -0.0744  0.2966 -0.6974
  330TIP3    H122405   4.506   6.297   1.186  1.0941 -3.2620 -0.6860
  330TIP3    H222406   4.513   6.270   1.335 -0.8140 -2.2747 -0.4037
  331TIP3   OH222407   2.223   5.545  14.216  0.0765 -0.8031  0.9569
  331TIP3    H122408   2.176   5.494  14.150  0.3772 -0.6353  0.6114
  331TIP3    H222409   2.160   5.613  14.242  0.8610  0.7425 -1.0811
  332TIP3   OH222410   2.116   0.281  11.578  0.3203  0.4527 -0.1514
  332TIP3    H122411   2.066   0.234  11.511 -0.2366 -1.5416  1.6187
  332TIP3    H222412   2.049   0.324  11.632  0.5634 -0.8578  1.2290
  333TIP3   OH222413   4.559   6.249   6.476  0.2487 -0.1827 -0.2399
  333TIP3    H122414   4.502   6.255   6.553 -0.6435 -4.9976 -0.3647
  333TIP3    H222415   4.644   6.224   6.512  0.3138 -0.5578 -0.6545
  334TIP3   OH222416   2.298   5.761  13.584 -0.1333  0.1164  0.2802
  334TIP3    H122417   2.294   5.779  13.490 -1.7257 -1.2968  0.0580
  334TIP3    H222418   2.237   5.688  13.597  0.0314  0.3378  2.4153
  335TIP3   OH222419   3.708   5.398   3.684 -0.3919  0.3309  0.0842
  335TIP3    H122420   3.646   5.354   3.741 -0.4260  2.5496  1.8234
  335TIP3    H222421   3.661   5.474   3.651  1.0806  1.5117  0.6550
  336TIP3   OH222422   4.387   2.260   1.527  0.1781  0.4227 -0.3710
  336TIP3    H122423   4.408   2.171   1.500 -0.5733  0.0298  0.3141
  336TIP3    H222424   4.360   2.252   1.619 -3.1880  0.8359 -1.2521
  337TIP3   OH222425   6.052   3.557  12.551 -0.2100  0.0154  0.3366
  337TIP3    H122426   6.142   3.535  12.575 -0.3800 -0.7477  0.2739
  337TIP3    H222427   6.002   3.478  12.570 -0.4734 -0.3524 -1.8197
  338TIP3   OH222428   4.413   4.184  15.800  0.1980  0.4755 -0.3085
  338TIP3    H122429   4.427   4.252  15.866 -0.7254 -0.9424  1.4004
  338TIP3    H222430   4.445   4.104  15.842  0.0405 -0.3542 -1.7659
  339TIP3   OH222431   0.159   5.566  13.472 -0.2356 -0.8104  0.4079
  339TIP3    H122432   0.240   5.527  13.439 -0.7454 -0.8910 -0.7773
  339TIP3    H222433   0.165   5.658  13.448  0.6462 -0.2728  2.5878
  340TIP3   OH222434   4.948   1.481   1.580  0.3693  0.1642 -0.0675
  340TIP3    H122435   5.007   1.535   1.528  1.0321 -0.2309  0.2766
  340TIP3    H222436   4.861   1.499   1.544  0.7086  0.6771 -0.6288
  341TIP3   OH222437   2.120   6.164  14.826  0.0043  0.5712 -0.1163
  341TIP3    H122438   2.132   6.084  14.774 -1.8634  0.1471  0.0526
  341TIP3    H222439   2.163   6.144  14.910 -0.1192 -0.1262 -0.2103
  342TIP3   OH222440   6.158   6.272  14.651 -0.2598  0.7103 -0.5089
  342TIP3    H122441   6.226   6.219  14.611 -0.1205  1.2091 -0.9371
  342TIP3    H222442   6.205   6.334  14.706 -0.4446  0.0826  0.3705
  343TIP3   OH222443   6.516   5.510   1.916 -0.5975  0.2809 -0.4763
  343TIP3    H122444   6.579   5.548   1.977  0.7064 -0.3314 -1.4023
  343TIP3    H222445   6.467   5.584   1.882 -2.3934  0.4908  2.4383
  344TIP3   OH222446   3.166   6.104   2.343  0.2185  0.0764  0.1677
  344TIP3    H122447   3.206   6.047   2.408  0.5840  1.6455  1.3501
  344TIP3    H222448   3.080   6.125   2.379 -0.0520 -0.0176 -0.4266
  345TIP3   OH222449   2.958   1.589  13.292 -0.2604 -0.4630 -0.1562
  345TIP3    H122450   2.877   1.619  13.251 -0.0738 -0.7468 -0.7432
  345TIP3    H222451   2.980   1.509  13.245 -0.5693 -1.3309  1.1660
  346TIP3   OH222452   4.577   4.934   0.713  0.5687  0.4976  0.2533
  346TIP3    H122453   4.611   4.933   0.803 -0.6252  2.9793  0.7466
  346TIP3    H222454   4.656   4.931   0.659  1.3508  0.3736  1.3631
  347TIP3   OH222455   3.433   6.631   3.872  0.0349 -0.1923  0.1211
  347TIP3    H122456   3.364   6.632   3.938  1.2024  4.6030  1.4619
  347TIP3    H222457   3.513   6.611   3.921  0.2350 -1.4288 -0.6915
  348TIP3   OH222458   1.705   5.754   2.083 -0.2888  0.6422  0.3531
  348TIP3    H122459   1.769   5.682   2.081  0.1759  1.0238  1.1415
  348TIP3    H222460   1.657   5.746   2.001  0.7092  0.2805 -0.2015
  349TIP3   OH222461   1.833   5.420  11.851 -0.5494 -0.2009 -0.6112
  349TIP3    H122462   1.909   5.478  11.859 -1.2923  1.0069 -1.9624
  349TIP3    H222463   1.772   5.452  11.918  0.1816 -1.2855  0.5949
  350TIP3   OH222464   0.864   4.316  10.585 -0.1962 -0.1188  0.3189
  350TIP3    H122465   0.935   4.379  10.599 -0.2377 -0.3433  1.5821
  350TIP3    H222466   0.785   4.369  10.577  0.0476  0.1083 -0.7380
  351TIP3   OH222467   5.403   1.435  13.605 -0.1915  0.0340  0.2317
  351TIP3    H122468   5.465   1.502  13.576 -0.8262  2.0899  3.4022
  351TIP3    H222469   5.441   1.399  13.685 -0.4247 -2.6807 -0.7994
  352TIP3   OH222470   2.745   1.263  13.344 -0.1473  0.1987 -0.4198
  352TIP3    H122471   2.839   1.257  13.328 -0.7139 -1.2023 -3.5660
  352TIP3    H222472   2.709   1.298  13.263 -2.3845  0.4738  0.6581
  353TIP3   OH222473   3.622   1.920  15.995 -0.3213  0.1404  0.5356
  353TIP3    H122474   3.538   1.880  15.973  0.4348 -1.2584  0.1683
  353TIP3    H222475   3.653   1.870  16.071  0.1112  0.7554  0.7684
  354TIP3   OH222476   5.191   1.033  13.322 -0.2094 -0.1658  0.2625
  354TIP3    H122477   5.170   1.120  13.290  2.3591  1.3610  2.5284
  354TIP3    H222478   5.151   1.030  13.410  0.3999 -0.9733  0.5180
  355TIP3   OH222479   0.820   2.760  15.966 -0.1291 -0.2707 -0.1570
  355TIP3    H122480   0.905   2.755  15.923 -0.8554 -0.3563 -1.6197
  355TIP3    H222481   0.784   2.845  15.937 -1.6475 -1.4032 -1.7052
  356TIP3   OH222482   0.735   4.444  14.810  0.0768 -0.0762 -0.0478
  356TIP3    H122483   0.644   4.471  14.798 -0.3597 -1.2846  0.4918
  356TIP3    H222484   0.738   4.406  14.898  0.7563 -1.4184 -0.6344
  357TIP3   OH222485   3.546   4.648   0.691  0.1213  0.4907  0.2303
  357TIP3    H122486   3.631   4.685   0.714 -0.5713  1.6451  0.9818
  357TIP3    H222487   3.534   4.576   0.753 -0.3009  1.5642  1.4292
  358TIP3   OH222488   5.405   5.996   0.083  0.4125 -0.1671 -0.0097
  358TIP3    H122489   5.485   5.943   0.083  0.9065  0.5895  0.2922
  358TIP3    H222490   5.421   6.066   0.145 -0.6280 -0.2138  0.3270
  359TIP3   OH222491   1.441   3.884   0.622  0.0131 -0.2686 -0.1507
  359TIP3    H122492   1.409   3.838   0.700 -0.4175  2.0598  1.0738
  359TIP3    H222493   1.362   3.910   0.574  0.2184  0.4177 -0.1177
  360TIP3   OH222494   1.798   3.593   4.758  0.0043 -0.1991 -0.2697
  360TIP3    H122495   1.815   3.679   4.797 -2.4328  0.8974 -1.5158
  360TIP3    H222496   1.883   3.549   4.759  1.1064  1.8600  1.2287
  361TIP3   OH222497   3.382   6.688   3.605 -0.0079  0.1509 -0.3556
  361TIP3    H122498   3.405   6.675   3.697  1.5437 -1.4865 -0.9516
  361TIP3    H222499   3.290   6.663   3.599 -0.1900  0.5303  0.7948
  362TIP3   OH222500   3.198   0.096   3.921 -0.2377 -0.1681  0.0696
  362TIP3    H122501   3.151   0.061   3.997  0.2562  1.5601  1.1963
  362TIP3    H222502   3.132   0.104   3.853 -0.4487 -2.8656 -0.0803
  363TIP3   OH222503   6.055   2.823   1.496  0.0112 -0.2658 -0.2280
  363TIP3    H122504   6.097   2.741   1.470 -0.2999 -0.3974 -0.3133
  363TIP3    H222505   6.113   2.858   1.564 -0.6393 -1.3018  0.8803
  364TIP3   OH222506   4.904   1.208   5.904  0.2663  0.4942  0.1351
  364TIP3    H122507   4.888   1.148   5.977  0.5538  1.2443  0.8125
  364TIP3    H222508   4.978   1.169   5.857 -0.6749 -0.6206 -0.4447
  365TIP3   OH222509   1.949   5.555  16.252  0.2034 -0.2179  0.4614
  365TIP3    H122510   2.006   5.573  16.327  1.3195 -0.7822 -0.2346
  365TIP3    H222511   1.990   5.600  16.179 -1.5043  1.2877  0.3974
  366TIP3   OH222512   3.881   3.854  12.936  0.6964 -0.2507  0.7759
  366TIP3    H122513   3.823   3.785  12.965 -1.1889  0.9393 -0.0409
  366TIP3    H222514   3.893   3.838  12.842 -0.4541  1.0151  0.4050
  367TIP3   OH222515   2.761   4.723  12.499 -0.4206 -0.6351 -0.6026
  367TIP3    H122516   2.715   4.804  12.475  0.5935  0.1625  0.1202
  367TIP3    H222517   2.690   4.661  12.519 -1.2105 -0.0766 -1.6262
  368TIP3   OH222518   0.635   6.280   4.150 -0.3248 -0.3569 -0.0624
  368TIP3    H122519   0.598   6.352   4.200 -0.1925 -0.3200 -0.0167
  368TIP3    H222520   0.707   6.319   4.101  0.9877 -0.8351  1.4385
  369TIP3   OH222521   5.085   0.318  12.419  0.7570  0.9039 -0.0377
  369TIP3    H122522   5.004   0.293  12.463  0.5008  1.5044 -0.1630
  369TIP3    H222523   5.093   0.256  12.347  0.8275  0.3403  0.4452
  370TIP3   OH222524   0.935   4.548   4.460  0.3504 -0.6032  0.6286
  370TIP3    H122525   0.946   4.599   4.380 -0.4083 -1.4416 -0.0337
  370TIP3    H222526   0.913   4.612   4.527 -0.6854 -0.0545 -0.2133
  371TIP3   OH222527   4.768   3.787   1.033 -0.1742  0.0930 -0.0250
  371TIP3    H122528   4.679   3.763   1.059  1.3785 -3.1789  2.6474
  371TIP3    H222529   4.800   3.711   0.983  2.1373 -0.1303  1.6859
  372TIP3   OH222530   6.432   3.513   0.931 -0.5422  0.1458 -0.2381
  372TIP3    H122531   6.427   3.564   1.012  2.0517  1.1364 -0.6498
  372TIP3    H222532   6.404   3.425   0.956 -1.9469  0.9796  1.2123
  373TIP3   OH222533   3.774   1.298  12.992 -0.1198 -0.1935  0.6429
  373TIP3    H122534   3.830   1.320  13.066  2.4370 -3.2143 -0.2603
  373TIP3    H222535   3.686   1.295  13.028  0.7627  0.7426  3.0013
  374TIP3   OH222536   1.153   4.661   2.871 -0.0420 -0.5153  0.1231
  374TIP3    H122537   1.086   4.619   2.818  0.4414  0.9236 -1.6392
  374TIP3    H222538   1.234   4.616   2.847 -0.1286 -1.2281  1.1389
  375TIP3   OH222539   1.582   4.138   3.201  0.1208 -0.3517  0.2468
  375TIP3    H122540   1.567   4.044   3.196  0.8536 -0.5193  1.1860
  375TIP3    H222541   1.522   4.168   3.270  1.4477 -0.4764  1.4855
  376TIP3   OH222542   0.478   3.488  14.599  0.0590 -0.1446 -0.4865
  376TIP3    H122543   0.497   3.532  14.681  0.3647 -2.1665  0.5683
  376TIP3    H222544   0.390   3.517  14.576  1.3097  3.1953 -1.3418
  377TIP3   OH222545   4.131   6.774   1.402 -0.1903  0.4484 -0.2278
  377TIP3    H122546   4.146   6.861   1.439 -0.2982  1.2798 -2.0858
  377TIP3    H222547   4.161   6.714   1.470 -0.6008  1.9198  1.2938
  378TIP3   OH222548   1.355   4.075  15.845 -0.5594  0.3310  0.7381
  378TIP3    H122549   1.394   4.012  15.784 -0.5738  0.6874  0.3562
  378TIP3    H222550   1.270   4.038  15.866  0.0938 -0.5973  1.8012
  379TIP3   OH222551   1.542   2.540  12.876 -0.0681  0.1223 -0.1621
  379TIP3    H122552   1.532   2.635  12.882  2.9737  0.5571 -1.1123
  379TIP3    H222553   1.556   2.524  12.783  0.5241 -1.1272  0.1382
  380TIP3   OH222554   3.169   4.389  15.414 -0.0940  0.2459  0.5023
  380TIP3    H122555   3.125   4.392  15.329  1.6389 -0.3998 -0.4300
  380TIP3    H222556   3.192   4.480  15.433 -0.1441  0.3434  0.1007
  381TIP3   OH222557   2.923   1.895  14.276 -0.3214 -0.6657  0.3144
  381TIP3    H122558   2.992   1.953  14.244 -1.2892  0.3047 -0.0116
  381TIP3    H222559   2.949   1.808  14.245  1.2957 -0.4671  1.0934
  382TIP3   OH222560   1.026   5.615  13.743 -0.1848  0.5906  0.4540
  382TIP3    H122561   0.948   5.561  13.730 -0.5339  0.8212  1.5730
  382TIP3    H222562   0.994   5.705  13.733  0.3591  0.6123 -1.2200
  383TIP3   OH222563   2.719   0.581  15.696  0.1533  0.2174 -0.5151
  383TIP3    H122564   2.692   0.663  15.655  0.0494  0.7141  0.5223
  383TIP3    H222565   2.800   0.603  15.742  0.1304 -0.2619 -0.2377
  384TIP3   OH222566   4.744   4.168   6.111  1.1494  0.7180 -0.2676
  384TIP3    H122567   4.682   4.160   6.184  0.5282 -3.3751 -1.0869
  384TIP3    H222568   4.748   4.262   6.093 -2.4750  1.3906  1.8176
  385TIP3   OH222569   2.296   2.277   3.074  0.5650  0.6327  0.0196
  385TIP3    H122570   2.258   2.331   3.005  0.7540  0.2232 -0.4129
  385TIP3    H222571   2.223   2.226   3.109  0.1274  2.1317  1.3502
  386TIP3   OH222572   5.832   4.708  16.693  0.6982  0.1851 -0.4623
  386TIP3    H122573   5.786   4.756  16.624 -2.0523 -1.2562  0.3142
  386TIP3    H222574   5.902   4.661  16.647  0.6485  1.4195 -1.8433
  387TIP3   OH222575   4.602   4.690  13.651 -0.2563  0.4487  0.1391
  387TIP3    H122576   4.611   4.598  13.674  0.6460  0.9572  1.9420
  387TIP3    H222577   4.691   4.717  13.625 -0.3646  0.9785  0.3025
  388TIP3   OH222578   5.714   5.951  12.189 -0.0519 -0.2129 -0.1970
  388TIP3    H122579   5.643   5.887  12.180  0.2781 -0.9246  1.9811
  388TIP3    H222580   5.790   5.898  12.211  0.2907  0.8877  1.3462
  389TIP3   OH222581   2.391   4.718   1.619  0.3512  0.1242  0.1847
  389TIP3    H122582   2.458   4.784   1.601  0.9696 -0.1950  1.2909
  389TIP3    H222583   2.339   4.714   1.538  2.3893 -0.4865 -1.1360
  390TIP3   OH222584   0.294   0.602  13.236  0.1170 -0.2769  0.2712
  390TIP3    H122585   0.201   0.583  13.251 -0.3146  1.6533  0.1549
  390TIP3    H222586   0.313   0.561  13.152 -0.7603 -0.2351  0.0449
  391TIP3   OH222587   3.696   3.042  10.802 -0.0735  0.1965  0.5893
  391TIP3    H122588   3.763   3.110  10.808 -0.7833  0.9230  0.3728
  391TIP3    H222589   3.745   2.961  10.793  0.7772  0.7261  0.4064
  392TIP3   OH222590   2.749   3.023  15.361 -0.3442 -0.0982 -0.2716
  392TIP3    H122591   2.836   2.999  15.330  0.1080  0.7740  0.2953
  392TIP3    H222592   2.690   2.997  15.291  0.4789  0.1643 -1.0646
  393TIP3   OH222593   1.538   3.424  11.114 -0.3528 -0.3873  0.0551
  393TIP3    H122594   1.514   3.514  11.092 -0.2689 -0.5268 -0.6263
  393TIP3    H222595   1.540   3.379  11.030  2.1339 -0.4188  0.0896
  394TIP3   OH222596   3.413   1.814   0.133 -0.4792  0.1365  0.4033
  394TIP3    H122597   3.422   1.798   0.227  0.8822  2.0222  0.6274
  394TIP3    H222598   3.481   1.759   0.093 -0.9324 -0.5175  0.5115
  395TIP3   OH222599   4.633   4.741   3.392 -0.2964  0.1811 -0.0197
  395TIP3    H122600   4.563   4.787   3.345 -0.5716  0.8070  0.9780
  395TIP3    H222601   4.630   4.652   3.358 -1.3763  0.2846 -0.2281
  396TIP3   OH222602   6.287   6.705   3.352 -0.2911  0.1486  0.3382
  396TIP3    H122603   6.348   6.647   3.306 -0.3855 -0.3363  0.8100
  396TIP3    H222604   6.307   6.692   3.445 -1.4730 -0.4269  0.5208
  397TIP3   OH222605   6.256   5.003  13.839  0.2548 -0.9260 -0.4278
  397TIP3    H122606   6.204   4.936  13.884 -0.2820  1.1275  2.1775
  397TIP3    H222607   6.343   4.997  13.879 -0.3396  1.1944  1.3425
  398TIP3   OH222608   6.525   4.565  13.302 -0.5180  0.3426 -0.2497
  398TIP3    H122609   6.616   4.559  13.331 -0.0750  1.3323 -1.4026
  398TIP3    H222610   6.510   4.659  13.289 -2.2020  0.3730  1.4689
  399TIP3   OH222611   4.341   4.207   3.452  0.2199  0.3993  0.1583
  399TIP3    H122612   4.370   4.286   3.405  0.0005 -0.1778 -0.9736
  399TIP3    H222613   4.253   4.189   3.418 -0.0251  0.0920  0.9513
  400TIP3   OH222614   5.078   5.822  14.670 -0.3125  0.2842 -0.0555
  400TIP3    H122615   5.141   5.873  14.618 -1.2662  0.3292 -1.1838
  400TIP3    H222616   4.998   5.875  14.668 -0.4642  0.1083  1.1728
  401TIP3   OH222617   4.565   0.743   3.475 -0.1892 -0.0902 -0.5807
  401TIP3    H122618   4.551   0.654   3.441  0.0552 -1.1321  1.8891
  401TIP3    H222619   4.502   0.797   3.428 -0.6662 -1.6638 -1.8033
  402TIP3   OH222620   4.024   3.831  12.383 -0.1966 -0.0782  0.1206
  402TIP3    H122621   4.057   3.920  12.387  1.6260 -0.6940 -0.6785
  402TIP3    H222622   4.073   3.783  12.450  0.4557 -0.9709 -0.9790
  403TIP3   OH222623   1.320   3.476  14.400 -0.7406 -0.3304  0.0245
  403TIP3    H122624   1.344   3.444  14.487  0.2607 -0.9602 -0.4718
  403TIP3    H222625   1.392   3.535  14.376 -1.6862  0.8968  0.1842
  404TIP3   OH222626   2.025   4.580   1.268  0.4161 -0.0617 -0.0266
  404TIP3    H122627   2.017   4.536   1.183 -2.2774  1.0530 -0.4068
  404TIP3    H222628   2.113   4.619   1.267  0.7317 -0.7827 -1.9430
  405TIP3   OH222629   2.340   5.507  11.803 -0.2863 -0.1376  0.0063
  405TIP3    H122630   2.363   5.555  11.724  1.1911  0.1914  0.6183
  405TIP3    H222631   2.424   5.479  11.839 -1.0071 -1.1918  0.8966
  406TIP3   OH222632   2.943   1.090   2.244  0.5001 -0.4318  0.2845
  406TIP3    H122633   2.969   1.181   2.254  1.2749 -0.7664  1.4167
  406TIP3    H222634   3.006   1.054   2.181  0.6650 -0.3790  0.4192
  407TIP3   OH222635   1.752   2.346   5.681 -0.3927 -0.1810  0.1124
  407TIP3    H122636   1.821   2.287   5.714  0.6992 -0.3887 -2.4604
  407TIP3    H222637   1.687   2.287   5.643 -0.0217  0.1918 -1.1161
  408TIP3   OH222638   4.042   4.231   6.544 -0.1176  0.1909  0.0258
  408TIP3    H122639   4.041   4.197   6.455  1.3263 -0.9365  0.4201
  408TIP3    H222640   3.980   4.304   6.543 -1.5155 -0.9974 -1.4151
  409TIP3   OH222641   2.650   4.321   5.543 -0.0414  0.0653 -0.0800
  409TIP3    H122642   2.580   4.264   5.574 -0.1522  0.1565 -0.1631
  409TIP3    H222643   2.650   4.310   5.448  0.7183 -0.7089  0.0000
  410TIP3   OH222644   5.759   6.265  12.137 -0.5649  0.1725 -0.7414
  410TIP3    H122645   5.783   6.173  12.123 -0.8419  0.2138 -1.5099
  410TIP3    H222646   5.666   6.269  12.112 -0.5669  0.6520 -0.6565
  411TIP3   OH222647   0.485   3.429   5.323  0.2315 -0.1567 -0.4772
  411TIP3    H122648   0.514   3.427   5.414 -0.3146 -0.8758 -0.3125
  411TIP3    H222649   0.447   3.516   5.312  2.7606  0.9674 -0.8103
  412TIP3   OH222650   2.216   4.753  12.302 -0.0267  0.0491  1.1568
  412TIP3    H122651   2.204   4.844  12.330  1.0371 -0.1507  2.2987
  412TIP3    H222652   2.302   4.728  12.336  0.4471 -0.8496 -0.6399
  413TIP3   OH222653   3.982   3.693   1.906  0.2476 -0.2581 -0.2212
  413TIP3    H122654   3.986   3.609   1.952  0.0568 -0.3813 -0.4296
  413TIP3    H222655   4.068   3.731   1.920  0.2459 -0.3656  0.1064
  414TIP3   OH222656   6.542   6.094  11.401 -0.0135  0.4172 -0.0653
  414TIP3    H122657   6.505   6.006  11.396 -0.9226  0.8003 -0.0422
  414TIP3    H222658   6.509   6.129  11.484  3.4384 -0.6181  1.8614
  415TIP3   OH222659   5.738   0.437   0.267 -0.0893  0.2027  0.2002
  415TIP3    H122660   5.773   0.349   0.257  2.5392  0.9444  2.1152
  415TIP3    H222661   5.808   0.494   0.234 -0.6188  1.6430  1.4942
  416TIP3   OH222662   4.799   0.444   5.014  0.6246 -0.1474 -0.2994
  416TIP3    H122663   4.743   0.466   4.940  1.0694  0.4430 -0.4609
  416TIP3    H222664   4.876   0.404   4.975  1.4629  1.3858 -0.2628
  417TIP3   OH222665   3.391   6.018   5.449  0.4094 -0.1193  0.4000
  417TIP3    H122666   3.404   5.997   5.356 -0.4210 -1.5212  0.5887
  417TIP3    H222667   3.321   6.084   5.449 -1.2392 -1.8203  0.1460
  418TIP3   OH222668   2.317   3.220   4.303  0.1298  0.6622  0.3484
  418TIP3    H122669   2.335   3.127   4.292 -0.7647  0.5999 -0.7714
  418TIP3    H222670   2.341   3.239   4.394  0.4566 -0.6213  0.5423
  419TIP3   OH222671   1.086   0.291  10.782  0.2528 -0.2053 -0.8613
  419TIP3    H122672   1.081   0.248  10.867  1.7319  1.1893 -0.0468
  419TIP3    H222673   1.012   0.256  10.733 -0.7998 -0.7875  1.1066
  420TIP3   OH222674   3.077   2.250   1.556  0.1005 -0.0672 -0.5024
  420TIP3    H122675   3.152   2.307   1.541 -1.0308  1.2053 -1.3729
  420TIP3    H222676   3.063   2.253   1.651  0.1606  0.9747 -0.5204
  421TIP3   OH222677   2.031   0.164   2.821 -0.3261 -0.4176 -0.5594
  421TIP3    H122678   1.940   0.168   2.849 -0.0092  0.3104  0.4041
  421TIP3    H222679   2.076   0.118   2.892  0.1750 -0.1843 -0.7248
  422TIP3   OH222680   2.582   2.617   5.794 -0.1558 -1.1703  0.4849
  422TIP3    H122681   2.613   2.550   5.854  2.4724  1.1959  1.8891
  422TIP3    H222682   2.504   2.654   5.836  1.5139  0.2920  2.4084
  423TIP3   OH222683   6.141   6.609   1.803 -0.3759 -0.0458  0.0596
  423TIP3    H122684   6.159   6.686   1.749  1.9988 -0.0971  0.7009
  423TIP3    H222685   6.129   6.644   1.891 -0.8677 -0.2671  0.0816
  424TIP3   OH222686   6.319   5.466   0.342  0.4487  0.1051  0.3006
  424TIP3    H122687   6.295   5.410   0.415 -1.0173 -0.3147 -0.4820
  424TIP3    H222688   6.356   5.406   0.277 -0.4640  0.1412 -0.2548
  425TIP3   OH222689   3.518   6.190   4.596  0.4727  0.3998 -1.0345
  425TIP3    H122690   3.535   6.128   4.525 -0.7458 -0.7532 -0.3545
  425TIP3    H222691   3.491   6.135   4.670 -0.4403  1.7276 -0.3500
  426TIP3   OH222692   0.096   0.654  12.036 -0.0965 -0.0087  0.3792
  426TIP3    H122693   0.138   0.646  12.122  1.5549  0.2772 -0.3738
  426TIP3    H222694   0.026   0.589  12.038  0.5923 -0.7517  1.5542
  427TIP3   OH222695   6.255   1.831  12.616 -0.1111 -0.0661  0.5756
  427TIP3    H122696   6.282   1.798  12.531 -1.3588  0.0201  0.1280
  427TIP3    H222697   6.180   1.776  12.640 -0.8826  1.0665  0.7894
  428TIP3   OH222698   2.109   6.196   3.247 -0.0011 -0.1407  0.1973
  428TIP3    H122699   2.159   6.127   3.292  2.6580  0.1206 -2.1541
  428TIP3    H222700   2.176   6.260   3.222 -2.0187  1.7972 -0.3231
  429TIP3   OH222701   1.404   5.167   5.792 -0.2851 -0.1112 -0.8234
  429TIP3    H122702   1.468   5.176   5.863 -0.4790  1.6689 -0.8535
  429TIP3    H222703   1.372   5.077   5.801  1.0891 -0.5335  0.1446
  430TIP3   OH222704   2.592   2.125   4.164  0.2510  0.0108 -0.1008
  430TIP3    H122705   2.655   2.125   4.237  0.8686  1.4365 -0.6113
  430TIP3    H222706   2.544   2.207   4.175  0.6685  0.4633 -1.5672
  431TIP3   OH222707   5.048   5.628  10.855 -0.0112  0.1219  0.0958
  431TIP3    H122708   5.065   5.679  10.934 -0.5613  0.4198  0.0220
  431TIP3    H222709   5.014   5.544  10.887 -0.9621  0.5242  0.1526
  432TIP3   OH222710   4.459   3.306   0.163  0.0973  0.1655  0.0043
  432TIP3    H122711   4.410   3.386   0.182 -0.5779  0.0179 -1.0711
  432TIP3    H222712   4.394   3.237   0.164  0.6700 -0.3691  0.8572
  433TIP3   OH222713   5.853   5.376   1.600 -0.4143 -0.4942 -0.2932
  433TIP3    H122714   5.760   5.375   1.622 -0.5036 -1.0009 -0.6907
  433TIP3    H222715   5.884   5.289   1.624 -0.0303 -0.3069 -0.1131
  434TIP3   OH222716   2.468   4.375  16.700  0.1681  0.3647  0.0496
  434TIP3    H122717   2.475   4.336  16.787  0.9472 -1.4770 -0.8214
  434TIP3    H222718   2.383   4.344  16.667 -1.1550  2.8306  0.9707
  435TIP3   OH222719   4.309   2.207  15.842  0.1524 -1.0152 -0.8112
  435TIP3    H122720   4.327   2.159  15.923  1.8435 -1.2443 -1.3062
  435TIP3    H222721   4.355   2.291  15.853 -1.7250  0.0034 -0.4844
  436TIP3   OH222722   0.553   2.567   4.023 -0.2865  0.0529 -0.2710
  436TIP3    H122723   0.476   2.606   4.065  0.8593  1.3890  0.6374
  436TIP3    H222724   0.590   2.509   4.089  0.2154  0.4085 -0.2334
  437TIP3   OH222725   2.967   5.937   4.296  0.5049 -0.1178  0.1339
  437TIP3    H122726   3.036   5.871   4.289  0.8988  0.3702 -0.5980
  437TIP3    H222727   2.923   5.916   4.378  2.6968  0.6963  1.5693
  438TIP3   OH222728   3.022   4.443  15.987 -0.1051 -0.7982 -0.3238
  438TIP3    H122729   3.013   4.480  15.899  0.2818 -1.6264 -0.7082
  438TIP3    H222730   3.074   4.364  15.975 -2.1285 -2.2505  0.3023
  439TIP3   OH222731   3.147   4.366  11.613  0.0539  0.5941  0.7293
  439TIP3    H122732   3.178   4.409  11.533  1.7165  0.1149  1.0982
  439TIP3    H222733   3.151   4.433  11.680  2.4364 -0.0495  1.2559
  440TIP3   OH222734   2.650   5.543  16.294 -0.6770 -0.7105 -0.0648
  440TIP3    H122735   2.669   5.616  16.236  2.4082 -1.7321 -0.4387
  440TIP3    H222736   2.601   5.581  16.366 -0.3956  1.4314 -0.9741
  441TIP3   OH222737   3.044   3.836   4.148  0.6313 -0.1544  0.2727
  441TIP3    H122738   2.955   3.853   4.179  0.9848  2.6380 -0.0864
  441TIP3    H222739   3.065   3.749   4.181 -2.8235 -1.5487 -1.0679
  442TIP3   OH222740   0.321   3.285   1.678  1.0153  0.0227 -0.3289
  442TIP3    H122741   0.416   3.287   1.695  1.2263  2.3851 -1.5709
  442TIP3    H222742   0.314   3.286   1.582 -0.2638  3.3283 -0.2476
  443TIP3   OH222743   0.868   0.810  13.014 -0.4165  0.3976 -0.2670
  443TIP3    H122744   0.948   0.814  13.066 -0.3558 -0.2956 -0.3121
  443TIP3    H222745   0.815   0.743  13.057 -0.2119 -0.4534 -1.3292
  444TIP3   OH222746   1.888   4.820  14.906  0.0080 -0.1498  0.2322
  444TIP3    H122747   1.921   4.909  14.895 -0.8050  0.0653 -0.5085
  444TIP3    H222748   1.966   4.765  14.900  0.4408  0.4716  0.1195
  445TIP3   OH222749   2.376   6.036   1.981 -0.4373 -0.1516 -0.3257
  445TIP3    H122750   2.286   6.068   1.975 -0.8848 -1.4634 -0.7382
  445TIP3    H222751   2.425   6.092   1.920 -0.9931  0.4519 -0.2328
  446TIP3   OH222752   4.960   2.819  12.453 -0.3214  0.3229  0.1634
  446TIP3    H122753   5.043   2.801  12.497 -0.8302  0.1188  1.0514
  446TIP3    H222754   4.963   2.767  12.373 -0.0880 -0.5680  0.7534
  447TIP3   OH222755   5.653   4.233  15.657  0.0429 -0.4316 -0.2034
  447TIP3    H122756   5.671   4.258  15.567  2.5244 -2.2272 -0.2455
  447TIP3    H222757   5.602   4.306  15.692 -1.4295  0.0384 -3.1826
  448TIP3   OH222758   2.569   1.906  17.116 -0.0853  0.2031  0.2731
  448TIP3    H122759   2.526   1.925  17.200  0.7142 -1.0752  0.9906
  448TIP3    H222760   2.639   1.971  17.110  2.2249 -1.9394  2.4124
  449TIP3   OH222761   3.643   3.607   3.690 -0.5420  0.0444  0.1345
  449TIP3    H122762   3.648   3.595   3.784  0.7001 -0.8703 -0.0309
  449TIP3    H222763   3.626   3.520   3.655 -0.6673  0.3179 -0.5043
  450TIP3   OH222764   1.750   5.262   3.248  0.4938  0.0817 -0.2011
  450TIP3    H122765   1.696   5.185   3.232  2.3252 -1.3079  0.2330
  450TIP3    H222766   1.721   5.325   3.183 -1.8745 -0.5180  0.2349
  451TIP3   OH222767   1.674   2.747  16.779 -0.6192  0.3151  0.2487
  451TIP3    H122768   1.632   2.748  16.865  1.1644  1.6350  1.1407
  451TIP3    H222769   1.656   2.833  16.742 -1.1149 -0.1384 -0.5815
  452TIP3   OH222770   1.741   4.709   6.099  0.3033  0.2685 -0.3207
  452TIP3    H122771   1.752   4.782   6.161  0.4631 -0.0276 -0.0027
  452TIP3    H222772   1.818   4.715   6.042  1.6938 -1.2647  1.3552
  453TIP3   OH222773   6.047   0.236  14.602  0.3650 -0.1555 -0.7922
  453TIP3    H122774   6.130   0.261  14.641 -0.3630  2.3191 -0.7694
  453TIP3    H222775   6.056   0.142  14.584  2.5212 -0.2563  0.7236
  454TIP3   OH222776   1.790   5.871  16.379  0.2920 -0.0867  0.1372
  454TIP3    H122777   1.737   5.861  16.299  1.1359 -0.2981 -0.3983
  454TIP3    H222778   1.757   5.951  16.420  0.2574  0.3534 -0.7356
  455TIP3   OH222779   2.346   1.645   2.863  0.1393  0.0865  0.2978
  455TIP3    H122780   2.281   1.627   2.795 -0.6527  2.7266  0.3156
  455TIP3    H222781   2.359   1.561   2.906 -0.7639 -1.2201 -1.8744
  456TIP3   OH222782   5.226   3.629  14.023 -0.4807  0.2299  0.5738
  456TIP3    H122783   5.201   3.599  14.111  1.2649  0.4767  1.1659
  456TIP3    H222784   5.282   3.560  13.989 -1.3892  0.0006 -0.4778
  457TIP3   OH222785   4.577   5.222  12.518 -0.4243 -0.2760  0.1995
  457TIP3    H122786   4.611   5.138  12.488 -1.2284 -0.4471 -0.2709
  457TIP3    H222787   4.593   5.223  12.612 -1.8131 -1.6413  0.4766
  458TIP3   OH222788   0.741   0.242   1.374  0.3623  0.2141 -0.2366
  458TIP3    H122789   0.684   0.224   1.299  0.7319  1.6287 -0.8689
  458TIP3    H222790   0.829   0.243   1.337  0.7771 -1.3638  0.6347
  459TIP3   OH222791   4.894   6.469   3.082 -0.0531 -0.5189 -0.4827
  459TIP3    H122792   4.954   6.467   3.007  1.4106 -0.4249  0.6695
  459TIP3    H222793   4.823   6.410   3.057 -1.0250  1.6009 -3.1234
  460TIP3   OH222794   3.187   4.051  12.476  0.0174  0.2838 -0.2929
  460TIP3    H122795   3.106   4.030  12.431 -0.1374  1.5837 -0.6334
  460TIP3    H222796   3.248   4.074  12.406  0.7858 -0.9865 -0.0668
  461TIP3   OH222797   1.452   4.288  16.708  0.6129  0.7907  0.1052
  461TIP3    H122798   1.447   4.291  16.804 -0.8915 -0.4723  0.0795
  461TIP3    H222799   1.361   4.293  16.679  0.8006 -1.9782 -1.1446
  462TIP3   OH222800   1.644   5.970   4.768  0.4731 -0.5523 -0.4571
  462TIP3    H122801   1.735   5.997   4.757  0.3252 -0.1623 -0.7461
  462TIP3    H222802   1.647   5.902   4.836  0.5393  2.2450  2.4821
  463TIP3   OH222803   1.744   1.939   5.206  0.3166 -0.6491  0.8355
  463TIP3    H122804   1.720   1.853   5.172  0.8417 -0.8243  0.9083
  463TIP3    H222805   1.834   1.953   5.176  0.0294  0.1386  0.3114
  464TIP3   OH222806   0.663   0.464  16.271  0.5618 -0.0250  0.5995
  464TIP3    H122807   0.745   0.431  16.306  0.6735 -0.2668  0.1198
  464TIP3    H222808   0.675   0.558  16.264  1.4532 -0.2609 -1.1645
  465TIP3   OH222809   4.722   1.536   1.401  0.1062  0.1411  0.3054
  465TIP3    H122810   4.714   1.505   1.311  1.3530 -0.1828  0.2916
  465TIP3    H222811   4.739   1.630   1.392  0.5487  0.0520  0.1844
  466TIP3   OH222812   2.982   4.771   5.974 -0.3506 -0.2027  0.0228
  466TIP3    H122813   2.979   4.792   6.067 -1.5367 -1.2612  0.2461
  466TIP3    H222814   3.068   4.732   5.960  0.0730  0.5377  0.5391
  467TIP3   OH222815   2.640   4.154  14.210  0.2080 -0.2143  0.3041
  467TIP3    H122816   2.654   4.217  14.139 -0.2807 -1.6381 -1.0673
  467TIP3    H222817   2.693   4.078  14.187  1.1001 -0.1863  2.1558
  468TIP3   OH222818   5.514   6.162   1.939  0.3327 -0.2271  0.0963
  468TIP3    H122819   5.488   6.086   1.991 -0.2647 -0.3003 -0.3041
  468TIP3    H222820   5.566   6.125   1.868 -0.7686 -0.3654 -0.6434
  469TIP3   OH222821   6.015   4.761  15.959  0.1016 -0.0382 -0.4846
  469TIP3    H122822   5.962   4.751  16.038 -1.4681  1.0712 -1.3467
  469TIP3    H222823   6.094   4.806  15.989 -0.3536  0.1275  0.4994
  470TIP3   OH222824   4.242   5.650   5.561  0.0461  0.1882  0.1811
  470TIP3    H122825   4.292   5.731   5.560 -1.4614  1.1975  1.8232
  470TIP3    H222826   4.212   5.642   5.652 -0.4918 -1.7877 -0.1408
  471TIP3   OH222827   4.536   2.107  12.098  0.1110  0.1443  0.5011
  471TIP3    H122828   4.564   2.094  12.189 -1.9519 -0.3590  1.0897
  471TIP3    H222829   4.494   2.193  12.099  0.7610  0.4750 -0.1664
  472TIP3   OH222830   4.509   6.176  16.570 -0.6566 -0.1602  0.0236
  472TIP3    H122831   4.566   6.149  16.498  1.7080  2.0888  1.0000
  472TIP3    H222832   4.435   6.219  16.526 -0.1445 -0.4391 -1.1417
  473TIP3   OH222833   1.650   1.274  15.283 -0.0647 -0.4419 -0.1699
  473TIP3    H122834   1.667   1.197  15.228  1.9192  0.7101 -1.2301
  473TIP3    H222835   1.583   1.323  15.236  1.0092  0.1044 -1.1631
  474TIP3   OH222836   4.246   3.380   0.411  0.3659 -0.1942 -0.1361
  474TIP3    H122837   4.256   3.469   0.376  0.5918 -0.4540 -0.7375
  474TIP3    H222838   4.167   3.347   0.369 -0.0361 -0.0686  0.5286
  475TIP3   OH222839   2.414   0.746  11.835  0.1032 -0.5567 -0.3550
  475TIP3    H122840   2.494   0.765  11.787  1.6836 -0.9498  2.0150
  475TIP3    H222841   2.422   0.796  11.916 -1.7411 -1.1218  0.2130
  476TIP3   OH222842   1.371   4.064  13.925  0.4528  0.4713 -0.0335
  476TIP3    H122843   1.291   4.059  13.977  0.5453  0.2666  0.0915
  476TIP3    H222844   1.435   4.106  13.983  0.8760 -0.7732  0.4262
  477TIP3   OH222845   1.720   6.657   0.576 -0.0447 -0.1972  0.4574
  477TIP3    H122846   1.766   6.579   0.544 -0.9700 -1.5540  2.3001
  477TIP3    H222847   1.682   6.629   0.660 -0.1056  2.3473  1.3247
  478TIP3   OH222848   0.072   4.987  13.403 -0.3034  0.4357  0.2137
  478TIP3    H122849   0.088   4.912  13.346  0.0488  0.3728  0.3972
  478TIP3    H222850   0.158   5.014  13.433 -0.2823  1.8975 -1.0864
  479TIP3   OH222851   2.126   1.217  12.145  0.8945  0.0493  0.6112
  479TIP3    H122852   2.055   1.205  12.209  0.2594  0.6767  0.0323
  479TIP3    H222853   2.201   1.246  12.197 -0.0297  1.9914  0.8901
  480TIP3   OH222854   3.893   5.760  15.425  0.4392  0.3748 -0.3359
  480TIP3    H122855   3.832   5.795  15.360 -0.9184 -0.9293  0.2128
  480TIP3    H222856   3.901   5.830  15.490  0.6420  1.1024 -1.1412
  481TIP3   OH222857   4.525   1.546   4.999  0.2117 -0.5510  0.3865
  481TIP3    H122858   4.579   1.501   4.934 -0.7018  1.7010 -2.0203
  481TIP3    H222859   4.579   1.621   5.026  0.1066 -0.8235  1.3666
  482TIP3   OH222860   6.502   5.244  17.063 -0.0341  1.3106  0.3972
  482TIP3    H122861   6.463   5.238  16.976  2.6518 -1.2435 -0.7036
  482TIP3    H222862   6.499   5.337  17.084 -1.2393  1.9009 -2.1719
  483TIP3   OH222863   4.103   1.074   1.598 -0.6699 -0.3790 -0.4037
  483TIP3    H122864   4.078   0.983   1.582 -1.5077 -0.1496 -0.4110
  483TIP3    H222865   4.102   1.114   1.511 -1.1889 -0.1391 -0.2856
  484TIP3   OH222866   3.195   2.268   0.600 -0.2690 -0.8460  0.6448
  484TIP3    H122867   3.175   2.346   0.550  0.1793 -0.8925  0.3943
  484TIP3    H222868   3.148   2.280   0.683  1.6982  0.7875  1.5560
  485TIP3   OH222869   1.061   6.291   1.510 -0.0727  0.3263 -0.0648
  485TIP3    H122870   1.019   6.208   1.490 -0.1246  0.0920  0.9809
  485TIP3    H222871   0.997   6.338   1.564  0.7310  0.2453  0.9720
  486TIP3   OH222872   5.974   3.727  12.808  0.2205 -0.0062 -0.4346
  486TIP3    H122873   5.909   3.770  12.753 -0.1947  1.6338  1.2516
  486TIP3    H222874   5.962   3.634  12.793 -2.3568  0.2801 -0.3486
  487TIP3   OH222875   2.253   4.290  11.867  0.1319 -0.3540 -0.2539
  487TIP3    H122876   2.310   4.324  11.937 -0.1086  0.0306 -0.2463
  487TIP3    H222877   2.213   4.212  11.905 -0.3164  0.0879  0.1854
  488TIP3   OH222878   5.403   6.633   0.718  0.0613 -0.0781 -0.0461
  488TIP3    H122879   5.393   6.610   0.626 -1.3699 -1.3830  0.3970
  488TIP3    H222880   5.402   6.549   0.764  0.6944  0.5564  1.1570
  489TIP3   OH222881   6.635   4.286   5.132  0.1198 -0.0779 -0.0740
  489TIP3    H122882   6.611   4.194   5.126  1.3402 -0.3865 -0.2867
  489TIP3    H222883   6.552   4.333   5.121 -0.3130 -1.1111 -1.4000
  490TIP3   OH222884   1.678   0.286   1.808 -0.2576  0.0321 -0.3103
  490TIP3    H122885   1.628   0.226   1.753  0.7604 -1.4324  0.3402
  490TIP3    H222886   1.727   0.340   1.746  0.4745 -1.2522 -0.8709
  491TIP3   OH222887   4.880   6.632   4.781 -0.1721 -0.0661 -0.2245
  491TIP3    H122888   4.905   6.540   4.779 -0.2664 -0.1008  0.1105
  491TIP3    H222889   4.915   6.669   4.700  0.6557 -0.1989  0.0707
  492TIP3   OH222890   0.849   0.015  11.963 -0.4390  0.2959 -0.3973
  492TIP3    H122891   0.905  -0.009  11.889 -3.6931  0.7104 -3.1177
  492TIP3    H222892   0.804  -0.066  11.986 -0.9703  0.6323 -0.2472
  493TIP3   OH222893   2.305   2.614  16.918 -0.5191  0.2989  0.1501
  493TIP3    H122894   2.218   2.576  16.929 -1.1263  1.6589  0.2464
  493TIP3    H222895   2.323   2.605  16.824 -1.8850  2.2775 -0.3497
  494TIP3   OH222896   5.426   5.051  15.877 -0.2045 -0.2965  0.0732
  494TIP3    H122897   5.499   5.113  15.879 -1.6261  1.4097  0.4855
  494TIP3    H222898   5.408   5.037  15.784 -0.0020  0.0652 -0.0197
  495TIP3   OH222899   3.226   3.510  12.322 -0.0334 -0.1853 -0.3586
  495TIP3    H122900   3.272   3.563  12.386 -0.6389 -1.9611  1.6159
  495TIP3    H222901   3.134   3.515  12.348 -0.3288 -0.6810 -1.2758
  496TIP3   OH222902   0.492   1.138   4.202 -0.1744  0.3207 -1.3744
  496TIP3    H122903   0.435   1.214   4.197 -0.5026  0.2001  0.1797
  496TIP3    H222904   0.556   1.160   4.270 -0.0180 -0.6197 -1.2095
  497TIP3   OH222905   3.924   5.617   1.806 -0.2405  0.2446  0.2235
  497TIP3    H122906   3.861   5.548   1.784 -2.0608  1.3660  1.7414
  497TIP3    H222907   4.000   5.570   1.840 -1.0962 -1.0575  0.3614
  498TIP3   OH222908   0.805   5.058   2.935 -0.1916  0.3308  0.1629
  498TIP3    H122909   0.766   4.971   2.944 -1.0064  0.5902 -0.7981
  498TIP3    H222910   0.750   5.103   2.871  0.5770  1.3540  0.2035
  499TIP3   OH222911   4.980   4.874  10.731  0.0331  0.0850 -0.6189
  499TIP3    H122912   4.939   4.918  10.657  0.0947  2.8167  0.9110
  499TIP3    H222913   4.924   4.798  10.747 -0.0310 -0.5133 -3.3629
  500TIP3   OH222914   0.101   2.065   1.489 -0.3637 -0.0881  0.2279
  500TIP3    H122915   0.023   2.107   1.452  1.3094  1.6116 -1.5324
  500TIP3    H222916   0.137   2.014   1.416  0.4133 -0.5083  0.9008
  501TIP3   OH222917   5.593   3.962   2.547 -0.1706 -0.0898 -0.1985
  501TIP3    H122918   5.516   3.915   2.516  0.5567  0.6664 -3.2647
  501TIP3    H222919   5.610   4.028   2.480  2.9373 -0.0069  0.5864
  502TIP3   OH222920   5.699   0.711  16.389  0.2617  0.1992  0.4063
  502TIP3    H122921   5.675   0.660  16.311  0.8123 -1.7201  1.4601
  502TIP3    H222922   5.636   0.783  16.391 -0.2015 -0.1279 -1.4138
  503TIP3   OH222923   3.120   3.455   3.148 -0.1239  0.4875 -0.0908
  503TIP3    H122924   3.107   3.417   3.235  2.0658 -2.0168 -0.7800
  503TIP3    H222925   3.060   3.407   3.091 -0.0181  0.6434 -0.3387
  504TIP3   OH222926   1.332   1.754  14.873 -0.4565 -0.1342  0.0692
  504TIP3    H122927   1.255   1.757  14.817 -0.5540 -3.1117 -0.0281
  504TIP3    H222928   1.366   1.665  14.863 -0.0977 -0.5712  4.2106
  505TIP3   OH222929   0.136   0.918   2.520 -1.1675 -0.4780 -0.2329
  505TIP3    H122930   0.221   0.876   2.506 -0.3065  1.1046  0.1529
  505TIP3    H222931   0.120   0.967   2.439 -0.4643  1.3315  0.7032
  506TIP3   OH222932   2.306   4.453  12.463  0.2989  0.8327  0.3378
  506TIP3    H122933   2.265   4.490  12.541 -1.3208 -1.8197  0.8123
  506TIP3    H222934   2.327   4.362  12.488  0.6720  0.2556 -1.9692
  507TIP3   OH222935   3.687   2.989  12.934 -0.0131  0.1140 -0.2616
  507TIP3    H122936   3.716   2.936  13.008  0.7120  1.0031  0.1031
  507TIP3    H222937   3.608   2.945  12.903  0.4951 -1.0929  0.1184
  508TIP3   OH222938   2.669   2.502   4.628 -0.0607  0.2356 -0.5268
  508TIP3    H122939   2.633   2.534   4.711 -0.8333 -0.0754 -0.7343
  508TIP3    H222940   2.599   2.447   4.592  0.9169 -0.9806 -0.5865
  509TIP3   OH222941   3.300   2.014  13.563  0.7580 -0.5283 -0.1853
  509TIP3    H122942   3.217   2.058  13.543  0.3483 -1.2550 -0.1236
  509TIP3    H222943   3.341   2.000  13.478  0.0414 -1.6384 -0.3699
  510TIP3   OH222944   5.340   3.637   4.062  0.2295 -0.1100  0.0483
  510TIP3    H122945   5.320   3.545   4.080 -0.1161  0.2978  1.8249
  510TIP3    H222946   5.364   3.673   4.147  1.3896  1.2026 -0.8212
  511TIP3   OH222947   5.326   2.203  15.532  0.0866  0.5355  0.0850
  511TIP3    H122948   5.322   2.108  15.538  2.3000  0.3117 -1.3224
  511TIP3    H222949   5.250   2.227  15.479 -1.2279 -0.3071  1.5523
  512TIP3   OH222950   1.884   1.669   4.240 -0.2078  0.8011 -0.3852
  512TIP3    H122951   1.825   1.594   4.240 -1.0408  1.4264 -2.3961
  512TIP3    H222952   1.844   1.732   4.299 -0.8040  0.6367 -0.6116
  513TIP3   OH222953   0.016   2.476  11.233 -0.2585 -0.1409 -0.5699
  513TIP3    H122954   0.044   2.454  11.144  0.2551  0.5878 -0.5914
  513TIP3    H222955  -0.003   2.569  11.231 -0.7455 -0.2240 -0.0408
  514TIP3   OH222956   4.176   1.700  14.419  0.5857  0.0087 -0.1811
  514TIP3    H122957   4.265   1.721  14.390  0.6646 -0.3248 -0.1868
  514TIP3    H222958   4.151   1.774  14.475  1.0337 -0.1045  0.1704
  515TIP3   OH222959   2.988   4.414   4.585 -0.1999 -0.6658  1.3677
  515TIP3    H122960   2.992   4.480   4.654  0.0743 -0.8602  1.5394
  515TIP3    H222961   3.063   4.357   4.603  0.7864  0.1698  0.0181
  516TIP3   OH222962   2.956   3.625  12.911 -0.5282  0.2141 -0.0477
  516TIP3    H122963   2.910   3.709  12.905  0.3614  0.6595 -0.6823
  516TIP3    H222964   2.913   3.579  12.983 -0.9583  1.2579  0.3665
  517TIP3   OH222965   3.153   1.430  14.858  0.1659  0.3837  0.0968
  517TIP3    H122966   3.231   1.485  14.862  1.5268 -1.6146  3.8790
  517TIP3    H222967   3.083   1.484  14.895  0.8925  0.5622  1.2589
  518TIP3   OH222968   2.033   1.785  14.347 -0.0009 -0.3434 -0.9196
  518TIP3    H122969   2.127   1.796  14.365  0.0207  2.2576 -2.3802
  518TIP3    H222970   1.990   1.816  14.427  0.3584 -0.6116 -0.6209
  519TIP3   OH222971   3.267   6.153  16.671 -0.5004  0.3360 -0.5744
  519TIP3    H122972   3.308   6.218  16.729 -0.2445 -1.2441  1.0578
  519TIP3    H222973   3.187   6.195  16.641 -0.0296  1.6477 -0.0260
  520TIP3   OH222974   6.118   0.345  14.086  0.0548 -0.3909  0.3031
  520TIP3    H122975   6.109   0.439  14.104 -2.6129 -0.3571 -0.9193
  520TIP3    H222976   6.059   0.304  14.150  0.9193 -1.2279  0.5733
  521TIP3   OH222977   2.659   3.113   1.686 -0.2298  0.4608 -0.5302
  521TIP3    H122978   2.752   3.127   1.700  0.0826 -1.8403  0.0331
  521TIP3    H222979   2.653   3.073   1.599 -0.7180  0.8931 -0.6979
  522TIP3   OH222980   2.989   4.442   0.517 -0.2265  0.6584  0.4344
  522TIP3    H122981   3.071   4.457   0.564 -0.7923  0.7520  1.4210
  522TIP3    H222982   2.940   4.524   0.527 -0.0414  0.9410 -0.9730
  523TIP3   OH222983   0.161   4.406  15.373  0.3272  0.5691 -0.0228
  523TIP3    H122984   0.247   4.363  15.364  0.7154  1.2900  0.2143
  523TIP3    H222985   0.141   4.399  15.467 -0.6617 -1.0966 -0.3406
  524TIP3   OH222986   5.405   4.131  12.620  0.4308 -0.5977 -0.3121
  524TIP3    H122987   5.486   4.137  12.671  0.2116  2.7469 -0.2390
  524TIP3    H222988   5.417   4.054  12.565  2.4133 -1.8707  1.7857
  525TIP3   OH222989   4.436   4.535   4.059  0.2969  0.1045 -0.0280
  525TIP3    H122990   4.482   4.582   3.990  0.5747 -1.0645 -0.6606
  525TIP3    H222991   4.388   4.466   4.014 -2.6742  1.7348  0.5677
  526TIP3   OH222992   3.789   6.780   2.244  0.3905 -0.4263  0.1484
  526TIP3    H122993   3.809   6.834   2.167  1.9360  0.0085  0.8286
  526TIP3    H222994   3.710   6.819   2.281 -0.1211 -0.3770 -0.9747
  527TIP3   OH222995   1.424   4.127   1.900 -0.4302  0.2006 -0.5081
  527TIP3    H122996   1.375   4.068   1.957 -0.5935 -0.1476 -0.9982
  527TIP3    H222997   1.395   4.104   1.812  0.1821  0.3929 -0.7627
  528TIP3   OH222998   3.022   0.362   3.921 -0.3688 -0.0684 -0.1161
  528TIP3    H122999   3.083   0.361   3.994 -0.0354 -0.1582 -0.3969
  528TIP3    H223000   2.951   0.421   3.950  0.6052  1.2784 -0.4069
  529TIP3   OH223001   2.888   3.396   4.888 -0.6125 -0.0870  0.2028
  529TIP3    H123002   2.881   3.326   4.823  1.8297 -1.0042  0.8673
  529TIP3    H223003   2.961   3.450   4.857  0.1323 -0.1429  1.7852
  530TIP3   OH223004   6.183   5.139   2.183  0.2350 -0.2072 -0.4896
  530TIP3    H123005   6.260   5.188   2.212 -0.0080 -0.6190  0.8423
  530TIP3    H223006   6.169   5.073   2.250 -2.4189  1.0460  0.2420
  531TIP3   OH223007   3.623   3.361   5.344  0.0697  0.5919 -0.0940
  531TIP3    H123008   3.589   3.448   5.323  0.2079  0.3488 -1.3453
  531TIP3    H223009   3.597   3.307   5.270  0.9095 -0.1975  0.1811
  532TIP3   OH223010   4.158   0.582   3.474  0.3292  0.0698  1.0300
  532TIP3    H123011   4.205   0.498   3.475  1.5228  0.7101  0.3512
  532TIP3    H223012   4.199   0.631   3.402 -2.6433 -0.0364 -0.8104
  533TIP3   OH223013   5.021   5.346  12.565 -0.8199  0.2589  0.1879
  533TIP3    H123014   5.110   5.332  12.533 -1.0362 -2.5618  0.6722
  533TIP3    H223015   4.965   5.307  12.499 -1.6732  1.2113  0.3338
  534TIP3   OH223016   0.363   6.155   3.282  0.7152  0.0093 -0.4092
  534TIP3    H123017   0.320   6.222   3.229  2.0077  1.6515  0.5260
  534TIP3    H223018   0.454   6.186   3.290  1.1658 -1.5109  0.6028
  535TIP3   OH223019   0.636   6.504   1.654  0.1179 -0.2052  0.6852
  535TIP3    H123020   0.574   6.517   1.726 -1.5461 -0.6878 -0.6236
  535TIP3    H223021   0.608   6.566   1.587  1.1137 -0.3706  0.1164
  536TIP3   OH223022   2.863   4.280   3.013  0.0377 -0.6475 -0.5160
  536TIP3    H123023   2.842   4.198   2.968 -0.6954  0.0768 -1.5252
  536TIP3    H223024   2.803   4.283   3.087  0.3947 -1.2546 -0.1988
  537TIP3   OH223025   5.321   6.601  13.739 -0.2883 -0.2269  0.1710
  537TIP3    H123026   5.304   6.695  13.748 -2.3512 -0.0458 -4.2554
  537TIP3    H223027   5.415   6.595  13.726 -0.2086  1.3257 -0.1173
  538TIP3   OH223028   2.704   3.434  14.860 -0.3914  0.0971  0.1653
  538TIP3    H123029   2.725   3.380  14.784 -0.3768  0.4390 -0.0776
  538TIP3    H223030   2.658   3.375  14.919  0.6704 -0.4827  0.4201
  539TIP3   OH223031   4.445   0.663  12.491  0.2127 -0.4580 -0.5424
  539TIP3    H123032   4.359   0.703  12.504  0.3734 -0.3430  0.2102
  539TIP3    H223033   4.500   0.705  12.557  0.8474 -0.5285 -1.0298
  540TIP3   OH223034   4.445   4.251  16.307  0.6826 -0.0205 -0.0204
  540TIP3    H123035   4.366   4.287  16.347  0.9589 -1.5412  1.9371
  540TIP3    H223036   4.482   4.324  16.258 -0.7975  1.2959  0.7689
  541TIP3   OH223037   6.179   5.481  13.840 -0.6990 -0.0391 -0.0843
  541TIP3    H123038   6.169   5.552  13.904  0.5308 -1.1351  1.3431
  541TIP3    H223039   6.178   5.401  13.892  0.6904 -0.9353 -1.4035
  542TIP3   OH223040   5.398   5.983   3.143  0.2123 -0.3563 -0.4759
  542TIP3    H123041   5.457   6.007   3.072  0.4860 -2.3742 -0.9704
  542TIP3    H223042   5.372   5.893   3.123 -1.5522 -0.1556  0.7422
  543TIP3   OH223043   0.232   1.008  14.336 -0.0253  0.6572 -0.7966
  543TIP3    H123044   0.250   0.925  14.291  0.1494  0.7017 -0.8131
  543TIP3    H223045   0.194   1.064  14.268 -1.7079  0.0420 -0.3652
  544TIP3   OH223046   5.544   2.424   3.728  0.1922 -0.8658  0.1444
  544TIP3    H123047   5.513   2.424   3.818 -1.6193 -0.5087 -0.4516
  544TIP3    H223048   5.466   2.444   3.676  1.4550  0.1367 -1.4146
  545TIP3   OH223049   6.005   1.684  12.439  0.0795  0.1640 -0.3887
  545TIP3    H123050   5.915   1.661  12.414 -0.1069  0.0573  0.3613
  545TIP3    H223051   6.058   1.611  12.406 -0.2487 -0.3094  0.1228
  546TIP3   OH223052   2.835   4.121  16.844 -0.0266 -0.1781 -0.4686
  546TIP3    H123053   2.881   4.151  16.923  0.2251 -0.8617 -0.3453
  546TIP3    H223054   2.809   4.031  16.865 -2.9913  0.7453  0.1552
  547TIP3   OH223055   3.613   2.808   1.666 -0.4781  0.5563 -0.0250
  547TIP3    H123056   3.533   2.762   1.693 -0.2488 -0.0045 -0.3019
  547TIP3    H223057   3.581   2.887   1.623 -0.8571  1.3353  1.6356
  548TIP3   OH223058   3.378   2.479  16.514 -0.2080 -0.4382  0.4478
  548TIP3    H123059   3.399   2.508  16.603 -1.3078 -0.5283  0.7397
  548TIP3    H223060   3.294   2.435  16.522 -1.2196  1.1719 -0.9501
  549TIP3   OH223061   0.495   1.990   4.298 -0.0282  0.4445 -0.2038
  549TIP3    H123062   0.545   2.067   4.269 -1.6441  1.1500 -1.2027
  549TIP3    H223063   0.558   1.938   4.347  1.4291  1.7991 -0.5786
  550TIP3   OH223064   1.020   0.767   1.665  0.0830  0.0846  0.3053
  550TIP3    H123065   0.965   0.794   1.738 -1.0142 -2.7224  0.5498
  550TIP3    H223066   0.959   0.734   1.599  1.1761  1.1605 -1.3136
  551TIP3   OH223067   3.149   3.428  15.234  0.4185 -0.7680  0.2053
  551TIP3    H123068   3.140   3.440  15.139  0.7620 -0.0674  0.2561
  551TIP3    H223069   3.065   3.392  15.262 -1.2964  2.9636  0.2507
  552TIP3   OH223070   2.696   5.745   3.747  0.2553  0.3430 -0.3997
  552TIP3    H123071   2.757   5.796   3.694 -1.2370  1.8923 -0.6472
  552TIP3    H223072   2.663   5.806   3.812  1.7989 -1.4411  2.1841
  553TIP3   OH223073   2.563   0.928  15.289 -0.0421  0.1391 -0.5738
  553TIP3    H123074   2.656   0.949  15.298 -0.7620  2.9289  0.6466
  553TIP3    H223075   2.545   0.940  15.195  0.3265  1.7967 -0.4391
  554TIP3   OH223076   2.658   3.436  16.700 -0.4931  0.0212 -0.2937
  554TIP3    H123077   2.586   3.466  16.645  0.3606 -0.1387 -1.5040
  554TIP3    H223078   2.653   3.340  16.696 -1.2832 -0.0109  1.0430
  555TIP3   OH223079   6.508   2.145  11.739  0.4883  0.7521  0.3893
  555TIP3    H123080   6.508   2.055  11.771 -0.8279  0.6386  0.1048
  555TIP3    H223081   6.441   2.189  11.791 -0.1362  1.1069 -0.7089
  556TIP3   OH223082   0.572   0.785   3.490 -0.5306  0.1052 -0.1708
  556TIP3    H123083   0.488   0.788   3.536 -0.4559 -0.8792  0.0332
  556TIP3    H223084   0.595   0.877   3.477 -1.5921  0.3841 -0.1385
  557TIP3   OH223085   4.255   0.771  15.736  0.0759  0.4805  0.6245
  557TIP3    H123086   4.265   0.678  15.758 -0.5415  0.7530  2.1341
  557TIP3    H223087   4.174   0.774  15.685  0.6337  0.0587 -0.2979
  558TIP3   OH223088   0.365   2.972   5.588  0.6227 -0.0436 -0.3637
  558TIP3    H123089   0.271   2.962   5.576  0.5947  1.5095 -1.7451
  558TIP3    H223090   0.397   2.884   5.610 -1.3174 -0.2959  1.5082
  559TIP3   OH223091   1.789   2.711  11.653 -0.0681  0.0097  0.1189
  559TIP3    H123092   1.841   2.653  11.709 -1.4995 -0.8775  0.5441
  559TIP3    H223093   1.854   2.751  11.595  1.0991 -1.1257  0.5933
  560TIP3   OH223094   5.322   3.956   3.535 -0.0368 -0.1902 -0.1453
  560TIP3    H123095   5.264   3.999   3.472 -1.6651  1.0020  2.1048
  560TIP3    H223096   5.398   4.014   3.542  0.2560 -0.4408 -1.1467
  561TIP3   OH223097   5.865   4.096  12.141  0.1819  0.6910  0.1848
  561TIP3    H123098   5.921   4.111  12.217 -0.8748  1.6058  0.7862
  561TIP3    H223099   5.777   4.115  12.172 -0.2082  1.5063 -1.3875
  562TIP3   OH223100   6.469   6.677   1.856 -0.1099 -0.0119 -0.6999
  562TIP3    H123101   6.409   6.603   1.863  0.5179 -0.4744 -0.1352
  562TIP3    H223102   6.521   6.672   1.936 -0.4599  1.3907 -0.3759
  563TIP3   OH223103   5.706   0.220  16.995 -0.1362 -0.0412 -0.1349
  563TIP3    H123104   5.716   0.142  17.050  0.6085 -0.5284 -0.9399
  563TIP3    H223105   5.710   0.186  16.906  1.8597  1.1100 -0.5001
  564TIP3   OH223106   3.224   5.200  12.778  1.0209  0.0774 -0.0202
  564TIP3    H123107   3.141   5.234  12.743  1.7349  1.4260 -0.4643
  564TIP3    H223108   3.214   5.105  12.776 -0.7399  0.2348  0.4993
  565TIP3   OH223109   5.344   4.057   3.825 -0.5437 -0.4290  0.5006
  565TIP3    H123110   5.361   4.131   3.767 -0.4206  0.3544  1.5178
  565TIP3    H223111   5.391   3.984   3.785 -0.3348  0.1418 -0.3040
  566TIP3   OH223112   0.876   2.649   4.562 -0.2635  0.1701 -0.1743
  566TIP3    H123113   0.824   2.613   4.635 -0.0992  0.3985  0.0564
  566TIP3    H223114   0.944   2.584   4.546  0.0722  0.4054  0.2855
  567TIP3   OH223115   2.136   5.259  15.102  0.4764  0.0663  0.6199
  567TIP3    H123116   2.048   5.291  15.080  0.5415  2.0969  2.9989
  567TIP3    H223117   2.158   5.198  15.032 -2.1835  0.7274 -0.8679
  568TIP3   OH223118   6.423   2.757   5.908  0.2601  0.1166 -0.7035
  568TIP3    H123119   6.404   2.765   6.001 -0.6105  0.4368 -0.9075
  568TIP3    H223120   6.469   2.673   5.901  1.8078  0.8734  0.2355
  569TIP3   OH223121   0.267   2.566  14.932  0.4918  0.1476  0.1085
  569TIP3    H123122   0.362   2.576  14.927  0.3466  0.5870 -2.7435
  569TIP3    H223123   0.236   2.655  14.951  0.6000  0.2530 -0.1907
  570TIP3   OH223124   3.253   2.765  13.144  0.1111  0.5245  0.0493
  570TIP3    H123125   3.290   2.706  13.210  0.7173  0.6050 -0.2169
  570TIP3    H223126   3.276   2.725  13.060  0.2946  1.0047 -0.1283
  571TIP3   OH223127   2.939   4.963  14.612 -0.7005 -0.8863  1.0745
  571TIP3    H123128   2.952   4.887  14.556 -1.2396 -0.9570  1.0389
  571TIP3    H223129   3.021   4.971  14.661  0.5008  0.3090 -1.0582
  572TIP3   OH223130   6.268   3.502   4.641  0.3842  0.8817  0.2327
  572TIP3    H123131   6.307   3.571   4.588  0.8629 -0.2977 -0.9813
  572TIP3    H223132   6.175   3.526   4.647  0.4380  1.3288 -0.6705
  573TIP3   OH223133   3.634   3.981  12.805  0.3824  0.0293  0.4941
  573TIP3    H123134   3.724   3.967  12.773 -0.6244 -1.7022 -1.6977
  573TIP3    H223135   3.602   4.055  12.753  0.1887  0.0079  0.5854
  574TIP3   OH223136   3.778   5.156   4.353  0.0377  0.0150 -0.1891
  574TIP3    H123137   3.701   5.140   4.298 -0.0055 -0.3244 -0.0308
  574TIP3    H223138   3.831   5.077   4.344 -1.2163 -1.1735  2.3099
  575TIP3   OH223139   2.664   0.091   5.865 -0.4494 -0.4861 -0.1365
  575TIP3    H123140   2.602   0.048   5.806 -0.5329  1.0733 -1.2127
  575TIP3    H223141   2.612   0.115   5.942 -0.7216 -1.0003 -0.1596
  576TIP3   OH223142   6.430   2.502   4.590 -0.0324  0.0700 -0.1630
  576TIP3    H123143   6.363   2.435   4.574  1.1801 -0.8210 -1.6147
  576TIP3    H223144   6.385   2.585   4.578 -2.3746 -0.2869  4.6736
  577TIP3   OH223145   2.973   5.463  12.314  0.0377  0.3862 -0.1886
  577TIP3    H123146   2.929   5.509  12.385  0.2860 -0.5129  0.5573
  577TIP3    H223147   3.046   5.520  12.290  0.5384  0.2460  0.9540
  578TIP3   OH223148   6.054   1.359  15.285  0.3846 -0.0455 -0.1636
  578TIP3    H123149   6.141   1.347  15.323  0.8331 -3.5583 -2.0866
  578TIP3    H223150   6.069   1.413  15.207  0.5550  0.9107  0.5288
  579TIP3   OH223151   4.313   6.034   6.697  0.1930 -0.4889  0.0189
  579TIP3    H123152   4.361   6.112   6.668 -0.3642 -0.1367  0.0456
  579TIP3    H223153   4.235   6.032   6.642 -0.4878 -0.2498  0.9673
  580TIP3   OH223154   0.675   6.618   2.934  0.3560 -0.0816 -0.1622
  580TIP3    H123155   0.762   6.582   2.953 -0.1981 -2.6066 -2.1127
  580TIP3    H223156   0.687   6.674   2.858  0.1886 -0.8471 -0.7543
  581TIP3   OH223157   6.586   5.365   1.014  0.8430 -0.2018 -0.1612
  581TIP3    H123158   6.597   5.440   0.955  2.3807  0.8083  1.3710
  581TIP3    H223159   6.669   5.318   1.008  2.3240  1.7134  3.6092
  582TIP3   OH223160   5.257   5.812   3.698  0.0535 -0.7770 -0.0972
  582TIP3    H123161   5.344   5.780   3.673  0.7010 -0.9985  2.3856
  582TIP3    H223162   5.235   5.874   3.629  0.7343 -3.1248 -2.5528
  583TIP3   OH223163   1.547   6.470  11.910 -0.9392 -0.1376  0.1550
  583TIP3    H123164   1.498   6.541  11.868 -2.6911 -0.8139  0.9811
  583TIP3    H223165   1.487   6.395  11.908  0.4876 -1.2934  0.2342
  584TIP3   OH223166   1.538   3.225  15.115 -0.5964  0.2961  0.5892
  584TIP3    H123167   1.632   3.211  15.112 -0.5504  0.7342 -0.4344
  584TIP3    H223168   1.500   3.137  15.121 -0.1018  0.1675  1.8335
  585TIP3   OH223169   3.515   6.076  15.364  0.5641  0.3924  0.5898
  585TIP3    H123170   3.565   6.120  15.296  0.0605  0.3611  0.1995
  585TIP3    H223171   3.426   6.072  15.330  0.1219  1.1588  1.6226
  586TIP3   OH223172   0.541   3.332  16.541 -0.2758 -0.2424 -0.1313
  586TIP3    H123173   0.608   3.286  16.592  1.0169  0.4018 -1.2314
  586TIP3    H223174   0.474   3.354  16.606  0.6234 -0.7836  1.0138
  587TIP3   OH223175   0.051   3.778  14.760 -0.1891  0.1380  0.6850
  587TIP3    H123176   0.008   3.860  14.782  1.9427  1.6641 -0.6434
  587TIP3    H223177   0.145   3.799  14.759  0.3242 -2.0027 -0.8917
  588TIP3   OH223178   3.293   4.932   4.330 -0.2411 -0.0292  0.6321
  588TIP3    H123179   3.329   4.928   4.418 -0.6466 -1.6315  0.7395
  588TIP3    H223180   3.218   4.991   4.336 -0.0920  0.0908  1.2858
  589TIP3   OH223181   3.701   4.224   1.172  0.2866  0.1843  0.0784
  589TIP3    H123182   3.708   4.218   1.268 -0.6994  0.9326  0.2080
  589TIP3    H223183   3.774   4.172   1.140 -0.6036 -1.8484  1.2123
  590TIP3   OH223184   5.333   2.753   3.450  0.0993  0.0847  0.0492
  590TIP3    H123185   5.312   2.812   3.378  0.8549 -0.6338 -0.7800
  590TIP3    H223186   5.311   2.666   3.416 -0.5640 -0.1529  1.0874
  591TIP3   OH223187   5.097   1.633   1.398  0.2576  0.0599 -0.3037
  591TIP3    H123188   5.110   1.726   1.415  1.1732 -0.1486  0.1480
  591TIP3    H223189   5.108   1.624   1.303  0.1477  0.4136 -0.3499
  592TIP3   OH223190   3.199   0.501  16.420  0.1543  0.0734  0.0291
  592TIP3    H123191   3.222   0.421  16.373  2.5527  0.3404  0.6968
  592TIP3    H223192   3.241   0.571  16.370 -0.0221  0.6867  0.7282
  593TIP3   OH223193   4.059   4.837   1.624 -0.3425 -0.4045 -0.2027
  593TIP3    H123194   4.025   4.771   1.564 -0.5754 -1.3460  0.9396
  593TIP3    H223195   4.129   4.879   1.576 -1.9654  0.3716 -1.9494
  594TIP3   OH223196   4.397   0.110   5.404 -0.7527  0.0201 -0.0432
  594TIP3    H123197   4.363   0.027   5.371 -1.4391 -0.0263  0.7673
  594TIP3    H223198   4.489   0.111   5.377 -0.9128 -0.6968 -0.6257
  595TIP3   OH223199   5.942   4.402  17.103 -0.1170 -0.0211  0.0420
  595TIP3    H123200   5.930   4.375  17.012 -0.2684 -1.2970  0.4276
  595TIP3    H223201   5.979   4.490  17.097  0.6321 -0.4054 -1.2656
  596TIP3   OH223202   3.255   2.233   4.984 -0.2642  0.0002  0.1115
  596TIP3    H123203   3.213   2.261   5.065  2.5407 -0.0011  1.6238
  596TIP3    H223204   3.342   2.273   4.986  0.8142 -2.0958 -1.6338
  597TIP3   OH223205   4.786   1.392  11.850 -0.4190 -0.0855 -0.0754
  597TIP3    H123206   4.784   1.485  11.829 -0.7772  0.1494  0.9667
  597TIP3    H223207   4.696   1.371  11.874 -0.3311 -0.6994 -0.2722
  598TIP3   OH223208   2.368   6.515   0.790  0.0945  0.4261 -0.3136
  598TIP3    H123209   2.334   6.452   0.854  0.9513  0.2557 -0.0143
  598TIP3    H223210   2.401   6.461   0.718 -1.7808  0.6599 -1.3713
  599TIP3   OH223211   0.453   1.086   0.463  1.3650  0.6179  0.2828
  599TIP3    H123212   0.499   1.127   0.390 -0.5018  1.0071 -0.7021
  599TIP3    H223213   0.522   1.051   0.518  2.8163  0.1811 -1.7541
  600TIP3   OH223214   3.025   5.886   0.930 -0.0194 -0.1981  0.8150
  600TIP3    H123215   2.949   5.938   0.905  0.1574  1.0336  2.7213
  600TIP3    H223216   3.092   5.908   0.865  0.0227  1.9568  1.5542
  601TIP3   OH223217   1.974   4.986   3.018  0.2627 -0.6852  0.3822
  601TIP3    H123218   1.936   4.898   3.010  0.4344 -0.7033 -0.2122
  601TIP3    H223219   2.005   4.990   3.109 -2.4718 -0.1362  1.3511
  602TIP3   OH223220   1.109   6.044  12.018  0.1795 -0.4055  0.2771
  602TIP3    H123221   1.138   6.017  11.931  0.8577 -0.2730  0.4600
  602TIP3    H223222   1.064   6.127  12.004  0.7317 -0.1315  0.1159
  603TIP3   OH223223   6.217   3.839  12.860  0.2791 -0.8748 -0.1829
  603TIP3    H123224   6.210   3.889  12.941  0.8125 -1.3836  0.1786
  603TIP3    H223225   6.134   3.791  12.855 -1.0584  1.4626 -1.5059
  604TIP3   OH223226   3.992   6.255  12.126  0.0009  0.2972 -0.1857
  604TIP3    H123227   4.065   6.230  12.183 -0.3655 -2.0478 -0.6908
  604TIP3    H223228   3.984   6.183  12.064 -1.2486  1.6357 -1.6250
  605TIP3   OH223229   0.717   4.637   6.313 -0.2556 -0.1465  0.2049
  605TIP3    H123230   0.695   4.583   6.237 -2.4840 -1.0349  1.4390
  605TIP3    H223231   0.811   4.651   6.306 -0.5489  0.4119 -3.1160
  606TIP3   OH223232   1.117   3.315  14.347  0.9608 -0.5446 -0.0129
  606TIP3    H123233   1.061   3.380  14.390 -0.5158 -0.6277 -1.7297
  606TIP3    H223234   1.206   3.345  14.365  0.3048  1.9430 -0.6771
  607TIP3   OH223235   2.172   0.403  16.000 -0.0171 -0.0369  0.3026
  607TIP3    H123236   2.096   0.439  16.046 -0.8920 -0.5975 -0.6839
  607TIP3    H223237   2.145   0.315  15.975  0.2037  0.4655 -1.8234
  608TIP3   OH223238   0.483   0.189   2.712 -0.2531 -0.3306 -0.7794
  608TIP3    H123239   0.413   0.218   2.770  0.0541  0.9346 -1.0238
  608TIP3    H223240   0.440   0.178   2.627 -0.0128  1.2188 -1.1160
  609TIP3   OH223241   0.612   4.961   0.863  0.5892  0.1654  0.4514
  609TIP3    H123242   0.624   4.994   0.774  1.8592 -1.1367  0.1235
  609TIP3    H223243   0.633   5.035   0.919 -0.8076  1.1824 -0.3234
  610TIP3   OH223244   2.992   4.792  14.274 -0.4373  0.0001  0.6021
  610TIP3    H123245   2.927   4.862  14.270  0.8147  1.2413  1.5438
  610TIP3    H223246   3.052   4.811  14.202 -0.9457 -0.9783 -0.0861
  611TIP3   OH223247   3.886   3.155   3.297  0.4437  0.3342  0.1314
  611TIP3    H123248   3.799   3.140   3.333  1.1874 -0.6147  1.5949
  611TIP3    H223249   3.919   3.067   3.277  0.2622  0.8069 -2.3862
  612TIP3   OH223250   1.386   3.284  16.117  0.3527 -0.4003 -0.4933
  612TIP3    H123251   1.380   3.379  16.109 -1.7602 -0.5744 -1.5018
  612TIP3    H223252   1.375   3.267  16.211  0.7194  0.3511 -0.3140
  613TIP3   OH223253   2.909   5.501  16.063 -0.0070 -0.6967 -0.1626
  613TIP3    H123254   2.841   5.567  16.081 -0.4636 -1.5161  1.1707
  613TIP3    H223255   2.886   5.466  15.978 -0.0863  0.4697 -0.6379
  614TIP3   OH223256   3.232   5.941  17.021  0.0921 -0.2013  0.0949
  614TIP3    H123257   3.206   5.916  17.109  0.2773  1.1545  0.5390
  614TIP3    H223258   3.306   6.001  17.034  2.3896 -2.6640 -1.0736
  615TIP3   OH223259   0.657   2.046  14.656 -0.1198  0.1299  0.4347
  615TIP3    H123260   0.634   1.953  14.664  2.4569 -0.5964  0.0951
  615TIP3    H223261   0.683   2.072  14.744 -1.5795  0.7731  0.6913
  616TIP3   OH223262   5.207   6.352  12.849 -0.2471 -0.2595  0.1253
  616TIP3    H123263   5.294   6.369  12.886  0.0995 -1.4288 -0.1264
  616TIP3    H223264   5.225   6.324  12.760 -0.9563  0.4969 -0.2583
  617TIP3   OH223265   5.058   2.340   4.676 -0.3093  0.1571 -0.3705
  617TIP3    H123266   5.049   2.286   4.755 -0.0963 -0.9343 -1.0698
  617TIP3    H223267   5.082   2.427   4.708 -1.8541  0.1539  0.8592
  618TIP3   OH223268   3.838   4.955   1.432  0.1245 -0.2516 -0.5058
  618TIP3    H123269   3.866   4.952   1.524  0.5560 -2.5655 -0.6819
  618TIP3    H223270   3.898   4.895   1.387 -1.4194 -0.7658 -1.9269
  619TIP3   OH223271   5.383   0.779   2.957  0.6108 -0.4109  0.1397
  619TIP3    H123272   5.394   0.867   2.923 -0.7347  0.3645  1.6794
  619TIP3    H223273   5.406   0.722   2.884 -1.3278  1.2151 -1.7936
  620TIP3   OH223274   3.387   4.797   5.120 -0.0448 -0.0896 -0.1155
  620TIP3    H123275   3.372   4.852   5.197  0.0338 -1.2312  0.7247
  620TIP3    H223276   3.469   4.830   5.083  1.5168 -1.4387  2.0034
  621TIP3   OH223277   3.473   2.517  14.678 -0.7589  0.1314 -0.7941
  621TIP3    H123278   3.390   2.538  14.636 -0.3129  0.8605 -1.3368
  621TIP3    H223279   3.539   2.564  14.625 -0.0468 -0.1438 -0.1617
  622TIP3   OH223280   1.473   4.163  11.763  0.0747  0.0517 -0.5482
  622TIP3    H123281   1.467   4.113  11.682  0.3138 -2.0673  0.7176
  622TIP3    H223282   1.398   4.223  11.761 -1.1347 -1.4819 -1.3349
  623TIP3   OH223283   2.512   6.350   5.065 -0.3475  0.3382 -0.1108
  623TIP3    H123284   2.574   6.420   5.086 -1.2443  1.0079  0.3718
  623TIP3    H223285   2.540   6.317   4.980  0.1376  1.2387 -0.3051
  624TIP3   OH223286   6.037   3.038   1.260  0.3182  0.1122 -0.6198
  624TIP3    H123287   6.043   2.998   1.347 -0.1120 -1.5639 -1.3520
  624TIP3    H223288   6.105   3.106   1.261  0.9194 -0.4803  0.7125
  625TIP3   OH223289   3.561   5.425  14.653  0.2975  0.3912 -0.3032
  625TIP3    H123290   3.596   5.384  14.574  0.0737  2.2598 -1.4049
  625TIP3    H223291   3.472   5.451  14.629 -0.2905 -0.3062  1.0421
  626TIP3   OH223292   2.358   1.411   4.364 -0.0190  0.1767  0.1944
  626TIP3    H123293   2.332   1.388   4.453 -1.3998  0.3811 -0.1408
  626TIP3    H223294   2.402   1.496   4.373 -0.0128  0.1221  0.6955
  627TIP3   OH223295   2.312   2.615  14.411  0.4837  0.7036 -0.0206
  627TIP3    H123296   2.375   2.543  14.410  1.1453  1.2800 -0.0348
  627TIP3    H223297   2.329   2.663  14.330 -1.0007 -0.0093 -0.7938
  628TIP3   OH223298   3.325   1.276   4.611  0.2093  0.3093 -0.1929
  628TIP3    H123299   3.410   1.319   4.599  0.3538 -0.2322 -1.1572
  628TIP3    H223300   3.333   1.194   4.564 -1.4473  1.0236 -1.7533
  629TIP3   OH223301   2.760   1.684  13.824 -0.2937  0.2521 -0.2873
  629TIP3    H123302   2.665   1.678  13.819 -0.3311 -0.6967  1.2423
  629TIP3    H223303   2.792   1.606  13.779 -0.3639 -1.7379  2.9794
  630TIP3   OH223304   1.150   4.163   5.408  0.3022 -0.0772  0.1880
  630TIP3    H123305   1.081   4.151   5.343  1.4688 -1.2745 -0.8843
  630TIP3    H223306   1.146   4.256   5.431 -0.2383  0.3341 -1.4891
  631TIP3   OH223307   2.794   1.083  16.962 -0.0255  0.3980  0.3821
  631TIP3    H123308   2.861   1.100  17.029 -0.0892 -0.6571  0.7333
  631TIP3    H223309   2.785   0.988  16.963 -0.2901  0.4149 -0.8786
  632TIP3   OH223310   2.249   5.945  14.280 -0.1764 -0.0747  0.4611
  632TIP3    H123311   2.181   5.912  14.339 -1.2024  0.8413 -0.1897
  632TIP3    H223312   2.330   5.936  14.330 -0.9955  0.4244  1.9215
  633TIP3   OH223313   3.282   5.959  11.592 -0.6447 -0.7432 -0.2660
  633TIP3    H123314   3.187   5.963  11.606 -0.8676 -1.4182 -1.4426
  633TIP3    H223315   3.317   6.031  11.643 -1.4728 -2.3781  2.7806
  634TIP3   OH223316   5.226   6.631   4.117 -0.0213  0.1790  0.5608
  634TIP3    H123317   5.315   6.595   4.129 -0.1197  0.3711  2.0180
  634TIP3    H223318   5.239   6.707   4.061  0.6495 -0.1674  0.2265
  635TIP3   OH223319   0.647   1.160   4.689  0.4376  0.2987  0.0625
  635TIP3    H123320   0.689   1.221   4.750 -1.1982 -0.6979  2.2697
  635TIP3    H223321   0.558   1.193   4.681 -0.7180 -2.2303  1.9547
  636TIP3   OH223322   6.356   1.644  11.724  0.0028  0.4392  0.0761
  636TIP3    H123323   6.366   1.583  11.651  0.4208  0.1900  0.3359
  636TIP3    H223324   6.445   1.654  11.760 -0.3805 -0.4245  1.3264
  637TIP3   OH223325   3.476   2.957  11.571 -0.5702  0.4740  0.8971
  637TIP3    H123326   3.380   2.956  11.562 -0.3420  0.9609 -2.2176
  637TIP3    H223327   3.506   2.895  11.505  1.3052  0.5024  1.7077
  638TIP3   OH223328   4.361   1.627   5.681 -0.0146 -0.8084  0.0493
  638TIP3    H123329   4.389   1.582   5.760  1.3803 -2.9777 -1.6246
  638TIP3    H223330   4.314   1.560   5.630  1.3158 -0.1860 -2.0843
  639TIP3   OH223331   3.693   1.958  16.893 -0.3518 -0.2340 -0.1483
  639TIP3    H123332   3.708   2.017  16.966  0.5007 -1.1989  0.4677
  639TIP3    H223333   3.634   2.006  16.835  0.2458  1.1684  0.3888
  640TIP3   OH223334   0.615   1.717  11.057  0.5739  0.2846 -0.0170
  640TIP3    H123335   0.610   1.638  11.109 -0.2244  0.5255  0.2791
  640TIP3    H223336   0.541   1.711  10.996 -0.9212  1.9190  1.5905
  641TIP3   OH223337   1.961   5.217   1.401 -0.1710 -0.1375 -0.5461
  641TIP3    H123338   1.962   5.124   1.419 -1.2197 -0.0098  0.2065
  641TIP3    H223339   2.053   5.242   1.397  0.1000 -0.9558  0.5129
  642TIP3   OH223340   2.197   1.807  12.076  0.2046  0.0476 -0.4017
  642TIP3    H123341   2.124   1.853  12.034  0.1149  0.5530  0.3092
  642TIP3    H223342   2.182   1.818  12.170  0.6953 -0.6318 -0.2341
  643TIP3   OH223343   6.715   5.220  12.866 -0.0022  0.4276  0.2288
  643TIP3    H123344   6.701   5.315  12.861 -0.3809  0.4196  1.1536
  643TIP3    H223345   6.717   5.201  12.959  0.3884 -0.4356  0.0443
  644TIP3   OH223346   3.043   1.639   1.890  0.1732  0.4275 -0.1326
  644TIP3    H123347   3.028   1.559   1.841 -0.2665  0.8079 -0.6211
  644TIP3    H223348   3.107   1.688   1.838  0.4233  0.4004  0.1512
  645TIP3   OH223349   5.706   0.327   3.100  1.1129  0.2501 -0.5738
  645TIP3    H123350   5.719   0.278   3.019 -0.3155 -2.0678  0.5486
  645TIP3    H223351   5.755   0.278   3.166  1.1671  1.3654  0.2343
  646TIP3   OH223352   2.300   3.889  11.638  0.2285 -0.0742 -0.2440
  646TIP3    H123353   2.326   3.977  11.663 -1.5984  0.2251  0.6459
  646TIP3    H223354   2.383   3.844  11.620  1.3621  0.9919  2.0581
  647TIP3   OH223355   0.155   4.703   3.619  0.1459 -0.3636 -0.2331
  647TIP3    H123356   0.223   4.697   3.686 -1.7311 -0.2409  1.7329
  647TIP3    H223357   0.173   4.786   3.575  0.4805  0.3357  1.1801
  648TIP3   OH223358   1.766   0.306   3.431  1.0108 -0.2492  0.0326
  648TIP3    H123359   1.701   0.304   3.501  1.8191 -1.3898  0.7803
  648TIP3    H223360   1.742   0.233   3.374  0.2058  0.8357 -1.0292
  649TIP3   OH223361   2.734   6.244   0.408 -0.3171  0.1378 -0.6529
  649TIP3    H123362   2.767   6.193   0.481 -0.8857 -1.6465 -1.6033
  649TIP3    H223363   2.638   6.234   0.412 -0.3499 -0.0639 -1.6912
  650TIP3   OH223364   5.067   1.383  11.838 -0.3081 -0.1287  0.2588
  650TIP3    H123365   4.988   1.381  11.785 -1.1529 -0.0816  1.5004
  650TIP3    H223366   5.037   1.370  11.927  1.1361 -0.5646  0.6981
  651TIP3   OH223367   0.204   3.816   4.203  0.6199  0.4596 -0.3476
  651TIP3    H123368   0.218   3.784   4.292  1.3171  1.5659 -0.0460
  651TIP3    H223369   0.109   3.818   4.193  0.5622 -1.2827 -0.2324
  652TIP3   OH223370   5.897   3.976   3.596  0.5650 -0.2168  0.1144
  652TIP3    H123371   5.978   3.948   3.554  0.8692 -1.4130  1.4519
  652TIP3    H223372   5.829   3.924   3.553  0.3465  1.5074 -1.7091
  653TIP3   OH223373   3.017   6.033   1.492  0.1899  0.0119  0.1058
  653TIP3    H123374   3.107   6.036   1.526  0.3070 -1.2961 -0.0653
  653TIP3    H223375   3.026   6.058   1.400  0.1742  1.3353  0.4541
  654TIP3   OH223376   6.390   5.242  12.633  0.4354  0.7547 -0.4788
  654TIP3    H123377   6.383   5.311  12.699 -2.2849  0.0112  0.0742
  654TIP3    H223378   6.445   5.279  12.564  1.2842  2.4389  1.0918
  655TIP3   OH223379   4.237   3.356   2.866 -0.2488 -0.3450 -0.4773
  655TIP3    H123380   4.175   3.374   2.936 -0.7876  2.2792 -1.5820
  655TIP3    H223381   4.183   3.342   2.788  0.3809 -2.3617 -0.6025
  656TIP3   OH223382   5.027   3.913   1.019 -0.1828  0.1164 -0.1472
  656TIP3    H123383   4.936   3.882   1.019 -0.8408  1.9153 -2.0611
  656TIP3    H223384   5.069   3.862   0.950  0.8503 -2.1600  2.0655
  657TIP3   OH223385   6.029   4.937  16.883  0.0418 -0.0015  0.5727
  657TIP3    H123386   6.078   4.856  16.894  1.1453  0.6990  0.9104
  657TIP3    H223387   5.971   4.920  16.809  3.5643  0.4152 -2.4479
  658TIP3   OH223388   5.833   4.414   0.121 -0.2600  0.1224  0.6565
  658TIP3    H123389   5.917   4.441   0.085 -0.5952  0.2731 -0.0215
  658TIP3    H223390   5.827   4.321   0.103 -1.7659  0.7645 -2.4420
  659TIP3   OH223391   5.641   3.150  11.828  0.1815 -0.1425  0.5585
  659TIP3    H123392   5.681   3.235  11.808 -1.1901  0.2803 -0.4369
  659TIP3    H223393   5.715   3.090  11.835  1.0242  0.7169 -0.7953
  660TIP3   OH223394   5.812   0.620  17.125 -0.3759 -0.0397  0.0357
  660TIP3    H123395   5.760   0.695  17.155 -1.0169  0.1367 -1.4422
  660TIP3    H223396   5.901   0.640  17.152 -0.6848  0.8650  0.4024
  661TIP3   OH223397   5.526   2.928   1.277 -0.3724 -0.1735 -0.1618
  661TIP3    H123398   5.618   2.929   1.306 -0.5796  1.3223  0.4665
  661TIP3    H223399   5.530   2.957   1.186 -0.4628  2.4941  0.6448
  662TIP3   OH223400   4.825   2.871   1.416 -0.0973 -0.0862  0.4775
  662TIP3    H123401   4.860   2.846   1.501  0.3206 -2.3115 -0.3110
  662TIP3    H223402   4.766   2.799   1.392  1.2686 -0.4599 -1.9378
  663TIP3   OH223403   1.266   4.057  13.260  0.0872 -0.0844  0.2281
  663TIP3    H123404   1.179   4.044  13.299 -1.8387  1.5430 -3.3023
  663TIP3    H223405   1.301   4.134  13.304 -1.1969  0.5309  0.1891
  664TIP3   OH223406   3.107   1.841  14.017  0.5011 -1.0751  0.1485
  664TIP3    H123407   3.174   1.895  13.976  0.4107 -1.0277  0.0638
  664TIP3    H223408   3.155   1.768  14.057  0.7540 -0.2905  1.3164
  665TIP3   OH223409   4.689   4.415   2.369  0.0361  0.2442 -0.1098
  665TIP3    H123410   4.762   4.469   2.338 -1.1158  1.5609 -0.5559
  665TIP3    H223411   4.612   4.471   2.360 -0.8285 -0.6028  1.7691
  666TIP3   OH223412   1.021   4.858   3.326  0.7332 -0.2567 -0.6373
  666TIP3    H123413   1.084   4.912   3.279  1.1916 -1.1267 -1.0313
  666TIP3    H223414   1.004   4.906   3.407  0.6308  0.7947 -1.2778
  667TIP3   OH223415   6.131   5.963   1.353 -0.0193 -0.5349  0.4235
  667TIP3    H123416   6.168   5.933   1.271 -1.1113  0.7996 -0.5959
  667TIP3    H223417   6.052   5.909   1.365  0.5988 -1.3089  1.0374
  668TIP3   OH223418   5.656   5.982  13.382  0.3572 -0.7880 -0.2091
  668TIP3    H123419   5.621   5.968  13.469 -0.0923 -1.5244 -0.5043
  668TIP3    H223420   5.714   5.908  13.367  0.9064 -0.3446 -0.3000
  669TIP3   OH223421   2.060   4.983  13.277  0.6013  0.0863 -0.4861
  669TIP3    H123422   1.965   4.988  13.287  0.4873 -1.5520 -0.6453
  669TIP3    H223423   2.084   5.065  13.234 -1.1449 -0.8668 -3.3906
  670TIP3   OH223424   5.664   0.113  13.973  0.2423 -0.2851  1.0333
  670TIP3    H123425   5.729   0.158  14.027 -1.0115 -0.2722  2.5581
  670TIP3    H223426   5.687   0.020  13.979  0.0654 -0.2919  1.6694
  671TIP3   OH223427   3.346   0.123  13.239  0.2000  0.3927  0.6154
  671TIP3    H123428   3.281   0.116  13.169 -1.6324  1.6715  2.1381
  671TIP3    H223429   3.427   0.092  13.199 -1.3809 -1.4662 -1.2507
  672TIP3   OH223430   1.057   5.129  13.363 -0.3557  0.3267 -0.5777
  672TIP3    H123431   0.965   5.127  13.388 -0.2391  1.7031  0.0314
  672TIP3    H223432   1.058   5.108  13.270 -1.2212 -0.3288 -0.4432
  673TIP3   OH223433   0.679   1.082   3.132  0.4352 -0.2751  0.4503
  673TIP3    H123434   0.622   1.156   3.152 -0.3181 -1.0173  1.0857
  673TIP3    H223435   0.765   1.109   3.165  0.4363  0.7947 -0.3908
  674TIP3   OH223436   5.633   5.344  11.305 -0.0291  0.3390  0.3992
  674TIP3    H123437   5.719   5.305  11.320 -0.5289  0.1718  2.9733
  674TIP3    H223438   5.607   5.311  11.219  0.9190 -2.5085  1.1512
  675TIP3   OH223439   0.595   1.300   3.464 -0.1306  0.3127 -0.2070
  675TIP3    H123440   0.557   1.377   3.505  2.1484  1.3011  0.1309
  675TIP3    H223441   0.606   1.324   3.372 -1.4290 -0.3996 -0.5476
  676TIP3   OH223442   3.494   5.016   5.300 -0.0985  0.1729  0.0438
  676TIP3    H123443   3.526   5.105   5.285  0.8515  0.2303  2.1123
  676TIP3    H223444   3.557   4.959   5.255  0.4592  0.4857  0.4182
  677TIP3   OH223445   0.491   4.581   0.229 -0.3219 -0.1698  0.0568
  677TIP3    H123446   0.418   4.620   0.277  0.0011 -0.1591  0.5362
  677TIP3    H223447   0.475   4.608   0.138 -0.6627  0.2220  0.2263
  678TIP3   OH223448   1.405   1.469   5.902 -0.7214 -0.1158  0.5158
  678TIP3    H123449   1.310   1.484   5.907 -0.8539 -0.2932 -1.3776
  678TIP3    H223450   1.435   1.524   5.830  0.5378 -0.4922  0.7449
  679TIP3   OH223451   3.671   1.602  11.240  0.1238 -0.5987  0.2703
  679TIP3    H123452   3.630   1.579  11.323 -2.3823 -0.7667 -0.9689
  679TIP3    H223453   3.673   1.521  11.190  1.0495 -0.3737 -0.0677
  680TIP3   OH223454   3.924   2.402  11.740 -0.1648  0.1653  0.1375
  680TIP3    H123455   3.868   2.367  11.671 -0.4429  1.5469 -0.3619
  680TIP3    H223456   3.946   2.326  11.794 -2.6893 -0.3808  0.4680
  681TIP3   OH223457   6.357   1.782   6.128  0.0100  0.6820 -0.5370
  681TIP3    H123458   6.339   1.875   6.114  0.3934  0.6508 -1.2290
  681TIP3    H223459   6.280   1.737   6.094 -0.2250  0.7486 -0.1004
  682TIP3   OH223460   3.341   1.513   1.563  0.3485  0.6422 -0.2175
  682TIP3    H123461   3.385   1.543   1.642  0.3290  0.1793 -0.0285
  682TIP3    H223462   3.410   1.512   1.496  0.8487 -0.9530  0.2982
  683TIP3   OH223463   5.247   4.039  16.305  0.1485  0.2242  0.6020
  683TIP3    H123464   5.256   4.133  16.320 -0.0544  0.2348  0.6550
  683TIP3    H223465   5.182   4.032  16.235  1.1519  0.1798 -0.3463
  684TIP3   OH223466   0.388   0.752   3.215  0.8275  0.4873  0.0813
  684TIP3    H123467   0.346   0.805   3.283  0.0809  0.7209 -0.5584
  684TIP3    H223468   0.478   0.784   3.212  0.9757  0.1949  1.2451
  685TIP3   OH223469   3.930   5.863   2.445 -0.0840 -0.7717  0.1940
  685TIP3    H123470   3.950   5.926   2.375  3.7334 -2.1528 -0.0688
  685TIP3    H223471   3.887   5.915   2.512  1.4961  1.8143 -0.7107
  686TIP3   OH223472   3.491   1.296  16.320  0.2228  0.5636 -0.1176
  686TIP3    H123473   3.471   1.386  16.346  1.1133 -0.0080  2.8032
  686TIP3    H223474   3.406   1.251  16.321 -0.4078  1.6100 -2.8102
  687TIP3   OH223475   4.229   0.799   0.915  0.3168 -0.0019  0.5772
  687TIP3    H123476   4.206   0.875   0.968  0.0268 -1.3831  2.5085
  687TIP3    H223477   4.265   0.835   0.835 -4.1235  2.2729 -0.5838
  688TIP3   OH223478   6.701   4.663  10.410  0.5691  0.1198  0.1403
  688TIP3    H123479   6.749   4.726  10.356  1.7739  1.0369  2.2117
  688TIP3    H223480   6.612   4.698  10.413  0.1765 -0.5877 -2.1870
  689TIP3   OH223481   2.567   0.413  13.596  0.2794  0.3013  0.6554
  689TIP3    H123482   2.537   0.477  13.532 -0.8345 -0.6891  0.1791
  689TIP3    H223483   2.544   0.452  13.681 -0.2904  0.5699  0.3774
  690TIP3   OH223484   4.941   3.682   4.390  0.5210  0.2982 -0.1407
  690TIP3    H123485   5.028   3.718   4.406  1.2914 -1.6790  0.3834
  690TIP3    H223486   4.957   3.588   4.377 -1.1148  0.4147 -3.5867
  691TIP3   OH223487   3.803   4.753   0.732  0.4508 -0.0223  0.4059
  691TIP3    H123488   3.873   4.809   0.699  0.3336 -0.6108 -0.8817
  691TIP3    H223489   3.827   4.665   0.703  1.2404 -0.8472  3.4147
  692TIP3   OH223490   2.682   3.314   5.711  0.3477  0.0926 -0.1631
  692TIP3    H123491   2.638   3.242   5.754 -1.3889  0.4443 -1.3060
  692TIP3    H223492   2.757   3.334   5.768  0.1673 -1.7911  0.7705
  693TIP3   OH223493   4.340   6.699   4.588  0.3017 -0.0606 -0.0630
  693TIP3    H123494   4.358   6.606   4.594 -1.8070 -0.5756 -1.3075
  693TIP3    H223495   4.286   6.718   4.665  2.2842  0.5748  1.2345
  694TIP3   OH223496   1.943   6.583  13.511 -0.7020 -0.3607  0.4243
  694TIP3    H123497   1.879   6.586  13.440 -1.2610  0.3341  0.9566
  694TIP3    H223498   1.946   6.672  13.544  3.1383  0.4878 -1.8948
  695TIP3   OH223499   0.766   6.389   5.173 -0.1501  0.3934  0.1804
  695TIP3    H123500   0.726   6.322   5.228 -0.4057 -0.7991 -1.4103
  695TIP3    H223501   0.748   6.360   5.083  2.0244  1.2166 -0.5533
  696TIP3   OH223502   3.228   3.275   0.346 -0.1554 -0.1339  0.1439
  696TIP3    H123503   3.159   3.334   0.377  0.7098  2.5273 -2.7093
  696TIP3    H223504   3.195   3.187   0.364 -3.2773  1.1379  0.8918
  697TIP3   OH223505   3.559   4.317  11.299 -0.4486  0.0602 -0.3365
  697TIP3    H123506   3.479   4.356  11.332 -1.1079 -1.6734  0.1743
  697TIP3    H223507   3.585   4.373  11.226 -1.3672  1.4053  0.3538
  698TIP3   OH223508   0.344   0.833   1.318  0.2246 -0.1512  0.4186
  698TIP3    H123509   0.285   0.793   1.382  2.0931 -2.1284  0.9570
  698TIP3    H223510   0.338   0.777   1.241  1.2943 -0.3050  0.4326
  699TIP3   OH223511   0.818   5.379   5.819 -0.1854  0.6451  0.5161
  699TIP3    H123512   0.732   5.412   5.845 -0.6305  0.4558 -0.6934
  699TIP3    H223513   0.854   5.448   5.763 -1.6582 -1.3726 -3.1078
  700TIP3   OH223514   1.750   4.425   6.082  0.0160 -0.1953  0.0909
  700TIP3    H123515   1.744   4.514   6.117 -0.7856  0.2772 -1.2413
  700TIP3    H223516   1.666   4.385   6.102 -0.1419 -0.1916 -0.5473
  701TIP3   OH223517   2.788   2.728   0.305 -0.0697 -0.0503  0.8696
  701TIP3    H123518   2.736   2.655   0.339  0.5202 -2.1288 -2.4895
  701TIP3    H223519   2.849   2.687   0.244 -0.0202  3.3351 -1.4644
  702TIP3   OH223520   3.598   1.855   3.056  0.0926  0.5897  0.1563
  702TIP3    H123521   3.509   1.889   3.044 -0.0556  0.4204  0.7256
  702TIP3    H223522   3.603   1.836   3.150  1.8362  3.6833  0.7464
  703TIP3   OH223523   2.378   0.449  11.858  0.5956  0.4622 -0.1682
  703TIP3    H123524   2.347   0.529  11.817 -1.1547 -1.5491 -2.9871
  703TIP3    H223525   2.451   0.420  11.803  0.8622 -0.1490  0.4954
  704TIP3   OH223526   4.045   2.129  12.267  0.1488 -0.1248  0.6640
  704TIP3    H123527   3.997   2.047  12.262 -0.4491  0.0457  3.2973
  704TIP3    H223528   3.979   2.197  12.258  0.4276  0.1057  0.2947
  705TIP3   OH223529   0.058   1.137   3.262 -0.2353  0.3010 -0.0059
  705TIP3    H123530   0.044   1.051   3.223 -1.6736 -0.1587  1.4768
  705TIP3    H223531   0.061   1.197   3.188  1.4985 -1.0951 -1.1129
  706TIP3   OH223532   3.531   2.172   1.841  0.4766 -0.0918 -0.3408
  706TIP3    H123533   3.476   2.250   1.852  1.0861  0.1556  1.1193
  706TIP3    H223534   3.590   2.194   1.769  0.1153  0.5024 -0.4544
  707TIP3   OH223535   1.369   5.220  14.597  0.6284 -0.0490 -0.3408
  707TIP3    H123536   1.417   5.153  14.647 -0.7895 -0.7572  0.0869
  707TIP3    H223537   1.431   5.293  14.590  1.4331 -0.5821  1.0143
  708TIP3   OH223538   2.437   2.652  13.242  0.6311  0.2537 -0.0418
  708TIP3    H123539   2.436   2.582  13.176  1.1682 -0.5407  0.7781
  708TIP3    H223540   2.377   2.621  13.310 -0.9547  1.6866 -0.7730
  709TIP3   OH223541   5.100   3.041  17.038 -0.3449 -0.1080 -0.4008
  709TIP3    H123542   5.025   2.988  17.012 -1.3892  0.8923  0.5550
  709TIP3    H223543   5.077   3.130  17.011 -0.1454  0.4441  1.2339
  710TIP3   OH223544   1.076   3.722  12.439  0.7927 -0.6150 -0.0012
  710TIP3    H123545   1.169   3.710  12.457  0.8256 -1.0721 -0.4778
  710TIP3    H223546   1.068   3.719  12.344  0.5132  1.1051 -0.0490
  711TIP3   OH223547   4.683   5.342  17.091 -0.2479  0.0947  0.6224
  711TIP3    H123548   4.754   5.316  17.033  0.2529  0.5648  1.0225
  711TIP3    H223549   4.648   5.260  17.126  1.0120 -0.0758  1.5095
  712TIP3   OH223550   5.406   2.947  13.697 -0.1682 -0.4322  0.2435
  712TIP3    H123551   5.437   2.863  13.729  1.4235  0.5161  1.2207
  712TIP3    H223552   5.327   2.965  13.749  0.0682 -0.8354  0.7376
  713TIP3   OH223553   3.524   3.552  15.867  1.0217  0.1898 -0.5332
  713TIP3    H123554   3.491   3.578  15.781 -1.4872 -2.7363 -0.5517
  713TIP3    H223555   3.580   3.477  15.849  0.3084 -0.5745  0.3607
  714TIP3   OH223556   2.588   3.570   2.744 -0.0015 -0.4049 -0.1712
  714TIP3    H123557   2.569   3.493   2.798 -0.6653  0.2933  0.6143
  714TIP3    H223558   2.530   3.638   2.779  0.0042  0.2247 -1.3780
  715TIP3   OH223559   2.551   0.010  15.703 -0.2929 -0.3679  0.4401
  715TIP3    H123560   2.593   0.039  15.785 -0.8144  1.0285  0.2369
  715TIP3    H223561   2.471   0.062  15.698 -1.4608 -2.1416  0.2071
  716TIP3   OH223562   2.006   3.571   3.972  0.2613  0.0565  0.6044
  716TIP3    H123563   2.101   3.559   3.972 -0.0469 -3.4367  3.9783
  716TIP3    H223564   1.971   3.494   3.926 -0.9499  3.3536 -4.4544
  717TIP3   OH223565   0.991   6.212   1.813  0.0179 -0.2717 -0.1926
  717TIP3    H123566   1.086   6.219   1.819  0.0186 -0.6987  0.2427
  717TIP3    H223567   0.958   6.292   1.854  0.2127  0.4535 -1.4166
  718TIP3   OH223568   5.434   5.565  13.928 -0.5019  0.2120  1.1228
  718TIP3    H123569   5.507   5.532  13.875  0.9484  2.6549  1.5198
  718TIP3    H223570   5.381   5.616  13.866 -0.4881  0.5098  1.3531
  719TIP3   OH223571   0.544   2.479   3.720  0.3177 -0.2213  0.1451
  719TIP3    H123572   0.587   2.474   3.634 -2.0935  1.9159 -1.2635
  719TIP3    H223573   0.612   2.513   3.778  1.8474 -1.2330 -1.0065
  720TIP3   OH223574   2.238   2.121   1.439 -0.2036 -0.2850  0.4178
  720TIP3    H123575   2.223   2.212   1.465 -0.5438 -0.8763  2.3714
  720TIP3    H223576   2.161   2.098   1.387 -1.1585 -0.1218  1.7517
  721TIP3   OH223577   0.716   0.224   0.677 -0.4882 -0.4458  0.2823
  721TIP3    H123578   0.656   0.252   0.608  1.0735  1.2217 -0.4395
  721TIP3    H223579   0.718   0.296   0.739  1.8575  0.1605 -0.4526
  722TIP3   OH223580   2.174   6.670  16.760  0.9973 -0.0079 -0.2804
  722TIP3    H123581   2.258   6.646  16.799  1.2095  1.0438 -0.0721
  722TIP3    H223582   2.197   6.724  16.685  0.5571 -1.2536 -1.3364
  723TIP3   OH223583   2.146   6.563  14.965  0.0200 -0.0310 -0.6561
  723TIP3    H123584   2.171   6.540  14.876 -3.5545 -0.8466 -1.5021
  723TIP3    H223585   2.184   6.493  15.019 -0.5829 -1.3404 -1.9005
  724TIP3   OH223586   1.894   1.619  11.770 -0.1755 -0.1792 -0.3261
  724TIP3    H123587   1.830   1.562  11.729  1.1199 -1.2324 -0.9276
  724TIP3    H223588   1.972   1.564  11.781  0.5377  0.9974  0.6108
  725TIP3   OH223589   2.369   5.615   5.172 -0.4768 -0.3510  0.0134
  725TIP3    H123590   2.450   5.564   5.161  0.2918  0.2986  2.3687
  725TIP3    H223591   2.346   5.641   5.083  2.3905  0.1955 -0.6408
  726TIP3   OH223592   2.612   2.359   3.319 -0.7944 -0.3695 -0.3402
  726TIP3    H123593   2.552   2.433   3.318 -1.5455 -0.9790 -0.1348
  726TIP3    H223594   2.565   2.290   3.365 -0.0607 -0.9504 -0.4544
  727TIP3   OH223595   2.233   0.163   0.668 -0.0951 -0.2466 -0.7449
  727TIP3    H123596   2.313   0.139   0.716 -0.1624  0.1162 -0.4462
  727TIP3    H223597   2.244   0.257   0.650 -0.5497 -0.1492 -0.5125
  728TIP3   OH223598   0.493   1.879  14.849  0.7223  0.6828  0.3307
  728TIP3    H123599   0.405   1.897  14.885  0.6488  1.6946 -0.3159
  728TIP3    H223600   0.550   1.938  14.898  0.8528  0.9302 -0.1206
  729TIP3   OH223601   3.546   2.298  10.725 -0.2673  0.3051  0.5744
  729TIP3    H123602   3.573   2.246  10.649  1.0220  0.9438  0.5859
  729TIP3    H223603   3.484   2.362  10.690 -1.4645 -0.8909  0.4701
  730TIP3   OH223604   3.252   4.406   2.957  0.1551 -0.0571 -0.3711
  730TIP3    H123605   3.257   4.310   2.952  0.0436 -0.0420 -0.8706
  730TIP3    H223606   3.250   4.434   2.865  3.0996  0.5763 -0.3001
  731TIP3   OH223607   1.211   3.428   1.861  0.2228  0.1099 -0.3235
  731TIP3    H123608   1.256   3.372   1.798  1.1822  0.4635  0.0418
  731TIP3    H223609   1.207   3.514   1.818 -0.7210 -0.0924 -0.6412
  732TIP3   OH223610   6.156   2.120  15.079  0.1414  0.0256  0.1400
  732TIP3    H123611   6.064   2.136  15.061  0.2749 -0.2671 -0.8992
  732TIP3    H223612   6.168   2.140  15.171 -1.3320 -1.5812  0.7047
  733TIP3   OH223613   5.930   1.006   2.940  0.0400  0.6446  0.6094
  733TIP3    H123614   5.961   0.935   2.884 -1.5195 -0.0457  0.6206
  733TIP3    H223615   5.970   0.987   3.026  0.0885  0.1075  0.4706
  734TIP3   OH223616   1.374   1.644   5.673 -0.6715 -0.1239 -0.0763
  734TIP3    H123617   1.458   1.635   5.628 -0.4105 -0.5634  0.4870
  734TIP3    H223618   1.320   1.574   5.637 -0.1928 -0.9972  0.8801
  735TIP3   OH223619   3.299   2.272   2.605 -0.0210 -0.2988  0.5100
  735TIP3    H123620   3.362   2.310   2.667  1.5710  0.3399 -1.4419
  735TIP3    H223621   3.269   2.347   2.554 -1.3827 -0.8114  0.5379
  736TIP3   OH223622   6.082   4.126  15.884 -0.9083  0.0472 -0.2703
  736TIP3    H123623   6.060   4.049  15.937 -0.9857 -1.2809 -2.1873
  736TIP3    H223624   6.104   4.194  15.948  2.0298 -2.3951  1.4357
  737TIP3   OH223625   0.516   3.706   0.330 -0.5360  0.3272  0.3047
  737TIP3    H123626   0.574   3.781   0.345 -0.4556  0.5038 -0.8292
  737TIP3    H223627   0.571   3.630   0.348 -0.1721  0.5098 -0.0264
  738TIP3   OH223628   0.017   0.923   3.852 -0.0518  0.0790  0.0535
  738TIP3    H123629   0.026   0.957   3.941  0.1586 -0.7775  0.3651
  738TIP3    H223630   0.029   0.828   3.861  3.0468  0.2703 -1.2993
  739TIP3   OH223631   3.129   0.133   5.392 -0.1285 -0.4298  0.0649
  739TIP3    H123632   3.213   0.151   5.434 -0.1224 -0.8119  0.2196
  739TIP3    H223633   3.152   0.103   5.304 -0.0536 -1.6674  0.5039
  740TIP3   OH223634   0.347   1.460  12.667 -0.0710  0.1569  0.1286
  740TIP3    H123635   0.300   1.405  12.730 -1.4776  0.4537 -0.6209
  740TIP3    H223636   0.324   1.550  12.693 -1.3208  0.2601 -1.2847
  741TIP3   OH223637   6.417   2.535  16.653 -0.3381 -0.2261 -0.7643
  741TIP3    H123638   6.448   2.559  16.566 -0.2137 -0.0159 -0.6633
  741TIP3    H223639   6.331   2.496  16.638 -0.0723 -0.7120 -1.0379
  742TIP3   OH223640   3.821   0.859  15.060  0.0076  0.4061 -0.1483
  742TIP3    H123641   3.821   0.908  15.142  2.2218  0.2007  0.0037
  742TIP3    H223642   3.834   0.768  15.087 -0.1638  0.2305 -0.6587
  743TIP3   OH223643   3.021   6.234   4.837 -0.1674  0.0041 -0.0409
  743TIP3    H123644   3.059   6.167   4.780 -0.3482  0.7724 -1.0585
  743TIP3    H223645   3.096   6.266   4.888  0.2092  0.1437 -0.6722
  744TIP3   OH223646   4.941   5.907   6.484  0.1459  0.6681  0.0123
  744TIP3    H123647   5.013   5.851   6.512 -0.9952 -0.3263  1.0572
  744TIP3    H223648   4.950   5.985   6.538  1.6229  1.4273 -1.3037
  745TIP3   OH223649   1.153   6.076   3.032 -0.6017 -0.1034  0.1062
  745TIP3    H123650   1.118   6.162   3.054  0.3780  0.4640 -0.5076
  745TIP3    H223651   1.104   6.049   2.954 -1.9230 -0.7533  1.1494
  746TIP3   OH223652   6.707   3.851   4.554 -0.5930  0.1092 -0.7578
  746TIP3    H123653   6.784   3.811   4.593  0.0823  0.8414 -1.3301
  746TIP3    H223654   6.702   3.814   4.465 -0.2333  0.9185 -1.1250
  747TIP3   OH223655   2.092   0.313   1.769  0.5247  0.5301 -0.7365
  747TIP3    H123656   2.046   0.243   1.816  0.0805  2.3339  1.6665
  747TIP3    H223657   2.030   0.342   1.702  0.7122 -1.3484 -1.7450
  748TIP3   OH223658   3.088   1.375   2.314 -0.1417 -0.2702  0.2646
  748TIP3    H123659   3.143   1.396   2.239  0.8894 -0.9676  0.8322
  748TIP3    H223660   3.083   1.457   2.364  0.2839 -0.1803  0.1559
  749TIP3   OH223661   6.318   6.639   0.892  0.3111  0.3395 -0.1188
  749TIP3    H123662   6.330   6.547   0.869  0.6846  0.4926 -0.5507
  749TIP3    H223663   6.327   6.641   0.987 -1.2160 -0.2941  0.0515
  750TIP3   OH223664   0.271   5.342  16.804  0.3648 -0.5042 -0.2014
  750TIP3    H123665   0.269   5.434  16.830  0.7718 -0.8267  1.0164
  750TIP3    H223666   0.348   5.306  16.849 -0.9617 -1.9145  0.9870
  751TIP3   OH223667   1.016   3.635   6.461 -0.1713  0.4940 -0.3086
  751TIP3    H123668   1.023   3.550   6.505 -0.3039  0.2022 -0.8490
  751TIP3    H223669   0.923   3.657   6.467 -0.1399  0.5955 -0.1846
  752TIP3   OH223670   1.282   5.846   0.055 -0.3164 -0.1716 -0.5106
  752TIP3    H123671   1.370   5.812   0.038 -0.7508 -0.1541 -3.0619
  752TIP3    H223672   1.271   5.839   0.149  2.2759 -0.5448 -0.2027
  753TIP3   OH223673   2.785   2.409  15.053  0.6676  0.2409  0.3741
  753TIP3    H123674   2.749   2.459  14.979  1.2816  0.8755  0.4935
  753TIP3    H223675   2.731   2.434  15.128  0.1116 -0.3221  0.1644
  754TIP3   OH223676   3.201   1.012   3.642 -0.1721  0.2837 -0.3094
  754TIP3    H123677   3.250   1.047   3.717  1.1802 -1.3762 -0.3903
  754TIP3    H223678   3.111   1.010   3.673  0.3083 -0.0038  1.1571
  755TIP3   OH223679   1.134   0.179   2.384 -0.0264 -0.3628 -0.5041
  755TIP3    H123680   1.208   0.168   2.323  0.4280 -0.5600  0.0827
  755TIP3    H223681   1.138   0.272   2.409  0.3703 -0.5053 -0.0307
  756TIP3   OH223682   3.612   0.499  13.597  0.4292 -0.1948 -0.1069
  756TIP3    H123683   3.644   0.527  13.512 -0.3480  0.1488 -0.2852
  756TIP3    H223684   3.660   0.553  13.660  2.4650 -1.8076 -0.2114
  757TIP3   OH223685   0.067   3.433   4.762 -0.3053 -0.1023  0.2069
  757TIP3    H123686   0.063   3.404   4.853 -1.9048  0.5667  0.3726
  757TIP3    H223687   0.143   3.388   4.725  0.2067 -0.5683  1.8035
  758TIP3   OH223688   4.235   1.620  12.154  0.1703 -0.3992 -0.0872
  758TIP3    H123689   4.255   1.532  12.122  0.5194 -0.6035  0.6774
  758TIP3    H223690   4.221   1.608  12.248  0.6056  0.4297  0.0830
  759TIP3   OH223691   4.893   6.351   4.733  1.5648 -1.0407 -0.2200
  759TIP3    H123692   4.866   6.294   4.661  0.9468 -0.3008 -0.5781
  759TIP3    H223693   4.832   6.331   4.804  1.6228 -1.1373 -0.1965
  760TIP3   OH223694   3.191   0.969   0.337 -0.5148  0.2261  0.3507
  760TIP3    H123695   3.122   1.034   0.349 -0.5707  0.1290  0.5592
  760TIP3    H223696   3.250   0.983   0.411 -0.4710  0.1093  0.3382
  761TIP3   OH223697   1.617   0.151  12.670 -0.4752 -0.1361  0.1919
  761TIP3    H123698   1.569   0.110  12.742 -0.7939 -1.1553 -0.5948
  761TIP3    H223699   1.706   0.117  12.678 -1.0538 -2.0675 -1.2632
  762TIP3   OH223700   0.344   2.152   0.275  0.3339  0.5497  0.1328
  762TIP3    H123701   0.307   2.237   0.299  0.0977 -0.2154  2.5964
  762TIP3    H223702   0.413   2.137   0.338  1.4591 -0.3895 -1.2912
  763TIP3   OH223703   0.764   4.748  12.283 -0.0848 -0.3210 -0.7125
  763TIP3    H123704   0.777   4.654  12.271 -2.0396 -0.6814 -0.1020
  763TIP3    H223705   0.670   4.758  12.295 -0.1426  1.9458 -2.7927
  764TIP3   OH223706   0.941   5.213  16.173 -0.1707  0.1539  0.0218
  764TIP3    H123707   0.960   5.146  16.107  1.0298  1.6300 -1.1599
  764TIP3    H223708   0.888   5.277  16.127 -1.3318  0.0337  1.1591
  765TIP3   OH223709   4.988   2.045   1.668  0.0808  0.2296  0.2752
  765TIP3    H123710   5.062   2.054   1.608 -0.7684 -1.6406 -1.1027
  765TIP3    H223711   4.937   2.126   1.656  0.0193 -0.0384 -1.3991
  766TIP3   OH223712   3.991   1.430  12.524 -0.7525  0.2660  0.4427
  766TIP3    H123713   3.994   1.525  12.520  0.2147  0.1889 -1.9279
  766TIP3    H223714   3.912   1.410  12.574 -1.7482  2.3121 -0.2720
  767TIP3   OH223715   0.081   0.877   1.045  0.0254 -0.1092  0.4753
  767TIP3    H123716   0.155   0.924   1.005  0.3205 -0.1298  0.9912
  767TIP3    H223717   0.028   0.849   0.970  0.2534  0.3760  0.1254
  768TIP3   OH223718   4.389   0.311   3.877 -0.2682 -0.0692 -0.1807
  768TIP3    H123719   4.315   0.313   3.938  2.0386 -1.7002  2.7954
  768TIP3    H223720   4.404   0.218   3.861 -0.3909  0.3271 -2.7288
  769TIP3   OH223721   5.609   2.932   0.641  0.5652 -0.5665 -0.2085
  769TIP3    H123722   5.649   2.845   0.651 -0.6066 -0.9774  1.0663
  769TIP3    H223723   5.549   2.921   0.567  0.3402 -0.8760  0.0188
  770TIP3   OH223724   1.867   4.078   0.745 -0.0334 -0.3270  0.0682
  770TIP3    H123725   1.858   4.110   0.835 -1.1252 -0.2407 -0.0711
  770TIP3    H223726   1.778   4.066   0.715  0.3306 -2.1493 -0.3655
  771TIP3   OH223727   3.637   1.170   1.530  0.9072  0.7717 -0.2355
  771TIP3    H123728   3.712   1.172   1.470  1.4480  1.1630  0.4470
  771TIP3    H223729   3.570   1.222   1.486  0.4050 -1.0559 -1.6644
  772TIP3   OH223730   3.651   0.244   2.855 -0.1619 -0.2417  0.0379
  772TIP3    H123731   3.662   0.156   2.819  2.0486 -0.5599  1.3867
  772TIP3    H223732   3.736   0.285   2.842 -2.0622  2.8986 -3.5642
  773TIP3   OH223733   1.046   0.983   0.573  0.0661 -0.3312 -0.1850
  773TIP3    H123734   0.957   1.014   0.590  0.2672 -0.1304  0.5126
  773TIP3    H223735   1.041   0.941   0.487 -0.2700  1.3999 -1.0203
  774TIP3   OH223736   0.942   0.529  13.096  0.0680  0.5170  0.4545
  774TIP3    H123737   0.906   0.483  13.020 -0.5946  1.2070  0.3559
  774TIP3    H223738   0.869   0.537  13.157 -0.0303  2.1676  0.1354
  775TIP3   OH223739   4.662   5.025  14.122 -0.1481 -0.3507 -0.3465
  775TIP3    H123740   4.570   5.049  14.114  0.2305  1.4433  0.4872
  775TIP3    H223741   4.676   4.962  14.051 -1.4232  1.1939 -2.0310
  776TIP3   OH223742   2.474   4.555   3.685  0.3465 -0.2475  0.7654
  776TIP3    H123743   2.503   4.494   3.753  1.8450  0.8884  1.1580
  776TIP3    H223744   2.440   4.630   3.732 -0.4639 -0.2929  0.2658
  777TIP3   OH223745   2.168   6.625   1.166 -0.2735 -0.1993 -0.2316
  777TIP3    H123746   2.140   6.594   1.252  0.5722 -1.0615 -0.2571
  777TIP3    H223747   2.160   6.548   1.109  1.0311 -0.1403 -0.4925
  778TIP3   OH223748   5.449   2.803   0.842 -0.7099 -0.1751  0.4635
  778TIP3    H123749   5.466   2.728   0.784  0.5750  0.2066  0.3170
  778TIP3    H223750   5.507   2.872   0.809  0.6381 -0.1907  2.6864
  779TIP3   OH223751   4.964   6.025   2.264 -0.0294 -0.1352 -0.2490
  779TIP3    H123752   5.020   5.968   2.211  0.9938  0.4708  0.1697
  779TIP3    H223753   4.924   5.965   2.328 -0.7675 -0.7590 -1.2819
  780TIP3   OH223754   1.300   2.644  15.762 -0.5182  0.5434  0.1158
  780TIP3    H123755   1.390   2.613  15.774 -0.4174  0.8945  0.2689
  780TIP3    H223756   1.297   2.673  15.671 -1.2350 -1.9587 -0.6715
  781TIP3   OH223757   5.598   2.648   4.589  0.6230  0.3562  0.1010
  781TIP3    H123758   5.539   2.657   4.663  0.0873  0.8703 -0.3804
  781TIP3    H223759   5.549   2.597   4.525  1.1076 -0.1432  0.1268
  782TIP3   OH223760   3.409   5.880  12.753 -0.5217  0.1257 -0.1802
  782TIP3    H123761   3.382   5.965  12.790  0.4177 -0.0872  0.9965
  782TIP3    H223762   3.363   5.815  12.806 -0.8794 -0.1151 -0.7872
  783TIP3   OH223763   3.853   1.456   2.229 -0.3827 -0.9404 -0.1227
  783TIP3    H123764   3.771   1.504   2.222  1.2810  2.0512  0.2301
  783TIP3    H223765   3.921   1.522   2.216  1.9698 -3.6229 -2.1071
  784TIP3   OH223766   5.661   4.982  15.382 -0.3864  0.0053  0.9155
  784TIP3    H123767   5.707   4.899  15.394  0.4067  0.0395 -1.4871
  784TIP3    H223768   5.663   4.996  15.287 -1.5610  2.1805  1.1882
  785TIP3   OH223769   2.049   6.396   5.837  0.5295  0.2382  0.1472
  785TIP3    H123770   2.054   6.335   5.911 -0.9462  0.6533  0.6158
  785TIP3    H223771   2.004   6.347   5.769 -1.3353  1.0169  0.7833
  786TIP3   OH223772   1.990   2.198   5.346 -0.1845 -0.0015  0.5029
  786TIP3    H123773   2.047   2.167   5.275  1.1699 -1.5275  2.2027
  786TIP3    H223774   1.916   2.238   5.301  1.0562 -0.1699 -1.7755
  787TIP3   OH223775   6.524   5.828   5.204  0.2611  0.7177 -0.0513
  787TIP3    H123776   6.615   5.833   5.174  0.0486 -1.4441 -1.1910
  787TIP3    H223777   6.472   5.850   5.127 -0.1978  1.9798  0.6048
  788TIP3   OH223778   5.239   0.053  15.027 -0.1997 -0.1075 -0.1083
  788TIP3    H123779   5.147   0.063  15.005 -0.1405  1.1289  0.1686
  788TIP3    H223780   5.254  -0.042  15.025 -1.6950 -0.3779  0.7869
  789TIP3   OH223781   1.262   4.746   2.438  0.0650 -0.0267  0.4424
  789TIP3    H123782   1.353   4.761   2.414  0.1945 -0.1851  0.8386
  789TIP3    H223783   1.262   4.661   2.481 -0.5139 -0.7494 -0.9433
  790TIP3   OH223784   0.722   1.547  11.575 -0.1871  0.1329  0.4059
  790TIP3    H123785   0.797   1.520  11.627  0.5308 -0.0236 -0.6975
  790TIP3    H223786   0.746   1.525  11.485 -1.2815  0.6836 -0.0308
  791TIP3   OH223787   4.688   3.353   3.193 -0.5703  0.3962  0.4052
  791TIP3    H123788   4.728   3.267   3.184 -1.1800  0.1208  0.3215
  791TIP3    H223789   4.606   3.347   3.145 -0.1506  1.3301 -0.4342
  792TIP3   OH223790   3.739   5.253   2.175 -0.1255 -0.6681 -0.4748
  792TIP3    H123791   3.670   5.315   2.153  0.9786  1.8742  2.8738
  792TIP3    H223792   3.729   5.238   2.269  3.0295 -1.3105 -0.1819
  793TIP3   OH223793   6.661   6.774   1.098 -0.4728  0.3010  0.2401
  793TIP3    H123794   6.603   6.702   1.125  0.6739 -1.3755 -1.6004
  793TIP3    H223795   6.640   6.845   1.158 -1.9203 -1.4441  1.8860
  794TIP3   OH223796   3.799   2.048   3.048 -0.6500  0.2050 -0.4661
  794TIP3    H123797   3.722   1.997   3.073 -1.0286  1.0674  0.1530
  794TIP3    H223798   3.811   2.031   2.955 -1.9819  0.5773 -0.7091
  795TIP3   OH223799   1.729   5.878  11.575 -0.2676 -0.3293 -0.3819
  795TIP3    H123800   1.662   5.816  11.602 -0.1679  0.1872  1.1078
  795TIP3    H223801   1.765   5.842  11.494 -0.2507 -2.1803  0.4432
  796TIP3   OH223802   1.253   4.312  15.695 -0.1385  0.1923 -0.3750
  796TIP3    H123803   1.162   4.321  15.723 -1.0659 -3.0166 -2.0137
  796TIP3    H223804   1.294   4.259  15.763 -0.4709 -1.3748 -1.3649
  797TIP3   OH223805   4.524   0.494  12.798  0.3545 -0.1955  0.2298
  797TIP3    H123806   4.576   0.417  12.819  1.2020  0.3294  0.1065
  797TIP3    H223807   4.433   0.468  12.816  0.6362 -1.1915  0.2328
  798TIP3   OH223808   6.123   3.689  16.817  0.0662 -0.1915 -1.0144
  798TIP3    H123809   6.206   3.738  16.811  1.1308 -1.5146  1.9073
  798TIP3    H223810   6.144   3.602  16.782 -0.5698 -0.0465 -1.7899
  799TIP3   OH223811   5.908   2.035  12.900  0.2413 -0.3593 -0.1070
  799TIP3    H123812   5.945   1.987  12.975  2.1428  1.3664  0.1064
  799TIP3    H223813   5.954   1.999  12.824  0.6468  0.1159 -0.0907
  800TIP3   OH223814   6.467   1.278   6.065 -0.1382  0.0502  0.2108
  800TIP3    H123815   6.563   1.281   6.061 -0.0458 -0.1312  1.9769
  800TIP3    H223816   6.444   1.191   6.034  0.2267  0.2637 -0.6888
  801TIP3   OH223817   6.123   3.873  11.135 -0.5921 -0.0323  0.1303
  801TIP3    H123818   6.073   3.937  11.084 -1.8042 -0.7023  0.4614
  801TIP3    H223819   6.146   3.804  11.073  1.7826  1.2777 -0.5176
  802TIP3   OH223820   1.307   5.636  12.087 -0.2033  0.1722 -0.1412
  802TIP3    H123821   1.298   5.585  12.168  3.4703 -1.0158 -0.3963
  802TIP3    H223822   1.367   5.707  12.110  1.7517 -0.7920 -2.0316
  803TIP3   OH223823   0.435   4.913   3.393  0.7172 -0.5688  0.0575
  803TIP3    H123824   0.382   4.990   3.374  1.9665  0.0075 -1.1713
  803TIP3    H223825   0.465   4.927   3.483 -1.0895 -0.8426  0.7187
  804TIP3   OH223826   5.517   4.906   0.484 -0.3407 -0.1161 -0.3637
  804TIP3    H123827   5.546   4.996   0.480  0.9029 -0.5777 -2.5971
  804TIP3    H223828   5.554   4.865   0.406 -2.1979 -2.1576 -0.2375
  805TIP3   OH223829   2.581   3.289   0.663 -1.2894  0.1061  0.3556
  805TIP3    H123830   2.589   3.213   0.721  0.4100 -0.9448 -1.2292
  805TIP3    H223831   2.549   3.253   0.580 -0.0370  1.0354 -0.5485
  806TIP3   OH223832   1.606   1.388   1.581  0.0583 -0.0927 -1.1878
  806TIP3    H123833   1.579   1.479   1.569 -3.7954 -1.1952 -1.6368
  806TIP3    H223834   1.527   1.344   1.612  2.4921 -2.8363  1.4461
  807TIP3   OH223835   4.487   4.714   0.883  0.5050 -0.2036 -0.0774
  807TIP3    H123836   4.425   4.776   0.919  0.0105 -0.3239 -0.7118
  807TIP3    H223837   4.536   4.764   0.817  0.3715 -0.3827 -0.3148
  808TIP3   OH223838   5.669   5.467  12.724 -0.0186 -0.1480  0.5806
  808TIP3    H123839   5.757   5.448  12.692  0.3654  0.4388  1.2773
  808TIP3    H223840   5.669   5.435  12.814 -0.4874 -0.0298  0.6250
  809TIP3   OH223841   1.983   6.382  13.799 -0.3418 -0.3049 -0.1463
  809TIP3    H123842   2.070   6.399  13.836 -0.6729  0.4204  0.3167
  809TIP3    H223843   1.940   6.326  13.863  0.0329 -1.2506 -0.7158
  810TIP3   OH223844   2.888   1.600   2.137  0.2429  0.0919 -0.0925
  810TIP3    H123845   2.934   1.634   2.061  0.6536 -1.8107 -0.7220
  810TIP3    H223846   2.955   1.598   2.206  0.7791 -1.3964 -0.6354
  811TIP3   OH223847   2.885   0.875  14.429  0.1196  0.3454  0.5325
  811TIP3    H123848   2.936   0.830  14.362 -0.3676 -1.9331  1.6474
  811TIP3    H223849   2.837   0.805  14.474 -0.8881  2.0130  2.1346
  812TIP3   OH223850   1.124   3.238   0.654 -0.0992  0.5732  0.0415
  812TIP3    H123851   1.046   3.242   0.709  0.3377  0.6367  0.6759
  812TIP3    H223852   1.118   3.155   0.608 -0.7868  0.8072 -0.2866
  813TIP3   OH223853   2.223   5.555  15.188  0.1405  0.2410  0.3380
  813TIP3    H123854   2.168   5.629  15.165 -0.9706 -0.4697  0.6766
  813TIP3    H223855   2.265   5.530  15.106 -0.9076  0.0839 -0.1571
  814TIP3   OH223856   1.710   2.407   2.818  0.0805  0.2137 -0.1004
  814TIP3    H123857   1.767   2.358   2.758 -0.2854 -0.7383  0.3139
  814TIP3    H223858   1.648   2.342   2.850 -0.7475  1.0761  0.0660
  815TIP3   OH223859   5.490   5.586  16.266  0.3259 -0.5332  0.0298
  815TIP3    H123860   5.519   5.500  16.296 -0.1017 -0.3739  0.9377
  815TIP3    H223861   5.470   5.574  16.173  0.7429 -1.2902  0.0386
  816TIP3   OH223862   2.176   4.538   3.650  0.2879 -0.0946 -0.2611
  816TIP3    H123863   2.136   4.606   3.703  1.5743  1.1126 -0.8080
  816TIP3    H223864   2.261   4.522   3.691  1.1260  0.5574 -1.6937
  817TIP3   OH223865   6.227   6.762  16.496 -0.3616  0.2448 -0.0633
  817TIP3    H123866   6.147   6.715  16.521 -0.7324  0.5170 -0.7136
  817TIP3    H223867   6.289   6.693  16.472 -0.1555 -0.0017  1.1140
  818TIP3   OH223868   2.111   6.604   1.426  0.4514 -0.1619  0.1414
  818TIP3    H123869   2.153   6.575   1.507 -2.2915 -0.3090  1.5298
  818TIP3    H223870   2.065   6.684   1.449 -3.1629 -2.0142 -0.3958
  819TIP3   OH223871   6.599   2.632  13.615 -0.4262 -0.4163 -0.6175
  819TIP3    H123872   6.634   2.570  13.552  0.9152 -0.3928  0.0859
  819TIP3    H223873   6.609   2.718  13.573  1.3354 -0.3047 -0.0179
  820TIP3   OH223874   4.300   3.377   1.531  0.4591 -0.4775 -0.1549
  820TIP3    H123875   4.272   3.423   1.451 -3.2113  0.6056  1.6290
  820TIP3    H223876   4.356   3.440   1.576  1.4947 -0.6115 -1.2195
  821TIP3   OH223877   0.898   4.012  11.497 -0.5497 -0.1797  0.4312
  821TIP3    H123878   0.970   3.998  11.436 -0.0337  1.5005  0.6208
  821TIP3    H223879   0.819   4.002  11.444 -0.2289 -3.1237  0.4603
  822TIP3   OH223880   1.823   2.604   6.308 -0.0429 -0.2972  0.2769
  822TIP3    H123881   1.839   2.543   6.380  0.7593  0.2857  0.6066
  822TIP3    H223882   1.908   2.647   6.294 -0.7387  1.1783  0.4712
  823TIP3   OH223883   0.013   3.408  11.896 -0.7259  0.5177  0.8188
  823TIP3    H123884  -0.002   3.327  11.847 -0.1278 -0.0215  1.5137
  823TIP3    H223885   0.037   3.472  11.830  0.1601 -0.2305  0.4098
  824TIP3   OH223886   3.717   0.104   0.104 -0.1322 -0.1482  0.5265
  824TIP3    H123887   3.627   0.108   0.135  0.2407  0.4422  1.5604
  824TIP3    H223888   3.724   0.175   0.040 -0.4769 -0.3982  0.2050
  825TIP3   OH223889   3.638   0.063   4.098 -0.2564 -0.1685  0.0531
  825TIP3    H123890   3.732   0.077   4.112 -0.2671 -0.9814  0.9941
  825TIP3    H223891   3.633  -0.009   4.036 -0.2407  1.8757 -2.4096
  826TIP3   OH223892   2.636   3.335  15.411 -0.0665 -0.0664 -0.0906
  826TIP3    H123893   2.616   3.273  15.341 -0.6353 -0.1003  0.1000
  826TIP3    H223894   2.594   3.298  15.489 -1.9931  1.4918 -0.3508
  827TIP3   OH223895   3.403   1.829  15.156 -1.0188  0.0772 -0.9428
  827TIP3    H123896   3.416   1.770  15.081  0.0751  0.7705 -1.3099
  827TIP3    H223897   3.372   1.911  15.117 -2.7337 -0.3133 -0.4139
  828TIP3   OH223898   1.115   1.199   4.120 -0.1993 -0.5538 -0.1814
  828TIP3    H123899   1.198   1.156   4.138 -1.2108 -1.3040  3.1045
  828TIP3    H223900   1.052   1.127   4.110 -1.3437 -0.0089  2.4562
  829TIP3   OH223901   5.462   5.022  15.592  0.0790  0.8132 -0.5860
  829TIP3    H123902   5.386   4.982  15.550  1.5318 -2.9809  0.1773
  829TIP3    H223903   5.526   5.031  15.521  1.0513 -1.7416 -0.0871
  830TIP3   OH223904   4.656   3.995   5.622  0.0830  0.7194 -0.2449
  830TIP3    H123905   4.612   3.965   5.542 -1.0218 -0.7384  0.8767
  830TIP3    H223906   4.613   4.077   5.644  0.4484  1.1694 -1.1971
  831TIP3   OH223907   0.050   4.237  17.139 -0.1184 -0.1137 -0.3064
  831TIP3    H123908   0.022   4.236  17.231 -0.5088 -0.8979 -0.4337
  831TIP3    H223909   0.140   4.203  17.141 -0.5559 -1.3003 -0.3510
  832TIP3   OH223910   1.854   6.695  13.042  0.6468  0.8462 -0.4108
  832TIP3    H123911   1.844   6.685  13.136 -1.4609  1.9993 -0.4727
  832TIP3    H223912   1.843   6.607  13.006 -3.2709  1.0647  0.0896
  833TIP3   OH223913   0.398   0.030   0.616  0.3013  0.7304 -0.0897
  833TIP3    H123914   0.355   0.113   0.637  0.2880  0.7818 -0.3275
  833TIP3    H223915   0.345  -0.008   0.546 -0.5057 -0.1399  0.9782
  834TIP3   OH223916   6.291   4.252  11.035  0.5589 -0.9620 -0.5230
  834TIP3    H123917   6.337   4.277  10.954  0.5128 -0.3249 -0.3563
  834TIP3    H223918   6.205   4.292  11.027  0.7078 -0.5244  0.0402
  835TIP3   OH223919   2.537   3.217   2.453  0.3756 -0.1064  0.1358
  835TIP3    H123920   2.504   3.218   2.543  1.3648 -0.0021  0.5057
  835TIP3    H223921   2.595   3.293   2.448 -0.2108  0.2919 -0.7992
  836TIP3   OH223922   6.264   4.707  11.363  0.3495 -0.0966  0.7502
  836TIP3    H123923   6.236   4.639  11.301  1.0751  0.3330 -0.0725
  836TIP3    H223924   6.359   4.700  11.365  0.5312  1.5777 -0.1826
  837TIP3   OH223925   3.836   2.668   1.504 -0.7974  0.3123  0.5282
  837TIP3    H123926   3.758   2.723   1.493 -1.2462 -0.4388 -0.0738
  837TIP3    H223927   3.858   2.640   1.416 -1.4579 -1.6961  0.9813
  838TIP3   OH223928   4.997   0.155  10.300  0.2354  0.1726 -0.3217
  838TIP3    H123929   5.074   0.103  10.277 -1.0448 -1.5863 -0.6700
  838TIP3    H223930   4.930   0.129  10.236 -0.1890  2.8661 -1.0460
  839TIP3   OH223931   1.215   4.517  11.549  0.1713 -0.1890  0.5420
  839TIP3    H123932   1.291   4.501  11.493  0.4331 -1.1562  1.1623
  839TIP3    H223933   1.243   4.489  11.636 -1.5055 -2.3716  0.4350
  840TIP3   OH223934   4.174   3.143   1.825  0.1609  0.3484  0.6306
  840TIP3    H123935   4.193   3.049   1.825 -0.3999  0.2295 -0.0774
  840TIP3    H223936   4.136   3.160   1.911 -0.2434 -0.1789  0.5567
  841TIP3   OH223937   5.720   3.547  14.267  0.2268  0.3482 -0.1125
  841TIP3    H123938   5.815   3.550  14.259  0.2880  0.6890  0.6751
  841TIP3    H223939   5.703   3.564  14.360 -0.6919  2.6141 -0.6488
  842TIP3   OH223940   0.185   6.199  11.953 -0.1717 -0.2889 -0.2038
  842TIP3    H123941   0.097   6.226  11.979 -0.0486  0.7120 -0.8272
  842TIP3    H223942   0.181   6.103  11.953 -1.4944 -0.2497 -0.9977
  843TIP3   OH223943   5.768   3.126   1.169  0.5734 -0.5279  0.0317
  843TIP3    H123944   5.850   3.077   1.169  0.0366 -1.4492  0.9090
  843TIP3    H223945   5.771   3.178   1.249 -0.1302 -1.3516  0.6202
  844TIP3   OH223946   0.962   2.208   0.029 -0.2554  0.4352  0.3364
  844TIP3    H123947   0.998   2.194   0.116  1.2408  0.7929 -0.2150
  844TIP3    H223948   0.976   2.301   0.012  2.0047 -0.1908 -1.4093
  845TIP3   OH223949   6.280   2.182  11.937 -0.7045 -0.7572 -0.1528
  845TIP3    H123950   6.305   2.226  12.019 -1.3128  0.2253 -0.4833
  845TIP3    H223951   6.233   2.249  11.888 -0.7345 -1.4826 -1.1200
  846TIP3   OH223952   6.119   4.457  12.653 -0.2816  0.4453 -0.1438
  846TIP3    H123953   6.101   4.423  12.566 -3.2823  0.7659  0.2771
  846TIP3    H223954   6.210   4.432  12.671 -0.5979 -2.3501 -2.1052
  847TIP3   OH223955   0.170   0.450  14.277 -0.0241 -0.1981  0.5667
  847TIP3    H123956   0.255   0.489  14.295  0.5330 -0.2117 -1.8208
  847TIP3    H223957   0.116   0.474  14.352  1.7414  0.8396  1.5403
  848TIP3   OH223958   4.242   0.778  11.356  0.2432  0.6294  0.0917
  848TIP3    H123959   4.317   0.777  11.416  0.8337  0.0126 -0.6400
  848TIP3    H223960   4.281   0.793  11.270 -0.4969  0.4247 -0.2832
  849TIP3   OH223961   2.090   0.362   4.065  0.2945 -0.0411  0.2840
  849TIP3    H123962   2.012   0.365   4.010 -0.8353 -0.0355  1.8714
  849TIP3    H223963   2.156   0.321   4.009 -0.0746  2.3154 -1.9619
  850TIP3   OH223964   6.271   1.931   4.245 -0.1242  0.2709  0.1386
  850TIP3    H123965   6.284   1.845   4.204  1.1212 -0.4337  1.9161
  850TIP3    H223966   6.216   1.912   4.322 -1.5457  1.3907 -0.5777
  851TIP3   OH223967   6.675   5.700  11.629 -0.0422 -0.3305  0.1980
  851TIP3    H123968   6.588   5.661  11.623 -0.4087  0.7866 -1.9116
  851TIP3    H223969   6.731   5.628  11.658 -1.9883 -0.5579  3.6585
  852TIP3   OH223970   2.952   1.119   1.049 -0.3733  0.4433 -0.2608
  852TIP3    H123971   2.910   1.096   1.132  1.7229  0.5597  0.8662
  852TIP3    H223972   2.949   1.215   1.046 -0.5715  0.4347 -0.4110
  853TIP3   OH223973   0.217   0.074  16.291  0.0954  0.3694 -0.2772
  853TIP3    H123974   0.156   0.140  16.259 -2.8490 -1.4749  1.2947
  853TIP3    H223975   0.242   0.025  16.213  0.1010  1.5604 -1.0368
  854TIP3   OH223976   1.240   1.112  16.073 -0.1100 -0.0222  0.2708
  854TIP3    H123977   1.254   1.025  16.109 -1.1297 -0.6528 -0.8101
  854TIP3    H223978   1.199   1.162  16.144 -0.6691 -0.7890  0.4921
  855TIP3   OH223979   3.489   3.431  14.439  0.7716 -0.0269 -0.7842
  855TIP3    H123980   3.423   3.465  14.500  0.0439 -1.3687 -0.8007
  855TIP3    H223981   3.490   3.336  14.455  0.0098 -0.5049 -3.3805
  856TIP3   OH223982   6.337   0.830   1.629 -0.1257  0.5060 -0.5342
  856TIP3    H123983   6.400   0.842   1.700  1.5579 -0.8967 -1.7371
  856TIP3    H223984   6.323   0.917   1.594  2.1836  0.6692 -1.1004
  857TIP3   OH223985   5.015   0.676   4.894  0.0231  0.0631  0.0095
  857TIP3    H123986   4.937   0.670   4.950 -0.0385 -0.4558 -0.1277
  857TIP3    H223987   4.981   0.706   4.810  0.0603  0.4503  0.1302
  858TIP3   OH223988   5.761   6.699  17.079 -0.4077 -0.3717  0.3734
  858TIP3    H123989   5.809   6.651  17.147 -0.4838  0.1248  0.7831
  858TIP3    H223990   5.672   6.664  17.082 -0.7620  0.5636  1.4426
  859TIP3   OH223991   3.069   6.336   5.959 -0.2052  0.2412 -0.1416
  859TIP3    H123992   3.056   6.320   6.053 -0.1661  3.1289  0.3926
  859TIP3    H223993   3.134   6.406   5.955  1.5543 -1.4184 -2.4205
  860TIP3   OH223994   5.096   5.189   2.655  0.7037 -0.3860  0.3988
  860TIP3    H123995   5.094   5.106   2.702  0.3293 -0.4229  0.3221
  860TIP3    H223996   5.185   5.196   2.621  1.1558 -0.0473  1.6551
  861TIP3   OH223997   1.667   6.385  14.873  0.4776 -0.4364  0.2456
  861TIP3    H123998   1.636   6.314  14.817  0.9828  0.3276 -1.0306
  861TIP3    H223999   1.759   6.397  14.847  0.2064  1.1155 -0.0223
  862TIP3   OH224000   3.784   4.650   2.769 -0.0303 -0.4391  0.5632
  862TIP3    H124001   3.855   4.594   2.739 -0.8310 -2.2610  1.9245
  862TIP3    H224002   3.757   4.699   2.691  0.5096 -2.1760 -0.7583
  863TIP3   OH224003   3.031   4.886   1.723 -0.4419 -0.7316 -0.2897
  863TIP3    H124004   3.108   4.831   1.739 -1.1524 -2.0273 -1.2013
  863TIP3    H224005   2.958   4.833   1.753 -1.1136 -0.1456 -0.8730
  864TIP3   OH224006   1.599   6.410  13.042  0.1683 -0.2018 -0.1305
  864TIP3    H124007   1.695   6.411  13.044  0.1688 -0.7453  1.5862
  864TIP3    H224008   1.575   6.323  13.076 -0.9277  0.9933  2.3504
  865TIP3   OH224009   6.624   3.914  13.556  0.2743 -0.1298  0.0978
  865TIP3    H124010   6.693   3.899  13.491  2.0437  0.5290  1.7759
  865TIP3    H224011   6.628   3.838  13.613  0.7155  0.6315  1.1189
  866TIP3   OH224012   0.298   4.780   5.618 -0.0716  0.0248 -0.1908
  866TIP3    H124013   0.209   4.805   5.641 -0.0474 -0.0140 -0.0537
  866TIP3    H224014   0.304   4.795   5.524 -0.2849 -0.1623 -0.2350
  867TIP3   OH224015   1.065   2.398   2.358 -0.0617  0.0180  0.0793
  867TIP3    H124016   1.117   2.429   2.284 -1.8394  3.2091  0.0682
  867TIP3    H224017   1.088   2.457   2.430 -1.5326 -0.3406  0.8543
  868TIP3   OH224018   4.113   4.274  11.352  0.4595  0.0830 -0.1213
  868TIP3    H124019   4.121   4.197  11.297 -1.8386  0.9185 -1.7134
  868TIP3    H224020   4.174   4.338  11.314  0.6047 -0.1387 -0.2569
  869TIP3   OH224021   2.588   3.816   1.247 -0.6057 -0.3150  0.3954
  869TIP3    H124022   2.607   3.736   1.296  1.5455  0.3554  0.7386
  869TIP3    H224023   2.565   3.881   1.313  1.9276  0.4870  0.5724
  870TIP3   OH224024   2.493   0.829   1.523  0.2278  0.3136 -0.2246
  870TIP3    H124025   2.427   0.898   1.524 -0.5281 -0.3784 -1.8316
  870TIP3    H224026   2.502   0.804   1.431  2.4853  0.1651  0.0078
  871TIP3   OH224027   5.325   6.694   3.078  0.1026  0.2410  0.2069
  871TIP3    H124028   5.320   6.658   2.989 -0.6618  1.7586 -0.3899
  871TIP3    H224029   5.407   6.743   3.079 -0.2239  0.7880  0.1227
  872TIP3   OH224030   0.583   4.507  16.578  0.6893 -0.1190  0.0955
  872TIP3    H124031   0.581   4.491  16.672 -0.4269  0.3442  0.1641
  872TIP3    H224032   0.534   4.589  16.567  0.7325 -0.2256 -0.8897
  873TIP3   OH224033   5.223   3.261  14.753 -0.1441  0.0550  0.1511
  873TIP3    H124034   5.179   3.224  14.830  2.8906 -0.8765  1.5192
  873TIP3    H224035   5.250   3.184  14.702  0.8596  0.5659 -0.0904
  874TIP3   OH224036   2.249   0.924  14.185 -0.0058  0.3170  0.7398
  874TIP3    H124037   2.287   1.005  14.151 -0.9952  0.4938  0.0481
  874TIP3    H224038   2.155   0.940  14.189 -0.2811 -0.9963  0.0070
  875TIP3   OH224039   1.769   0.075   0.913  0.4417 -0.4367 -0.3328
  875TIP3    H124040   1.798   0.041   0.998  1.0021  0.1959 -0.2660
  875TIP3    H224041   1.850   0.081   0.862  0.2789  0.3616 -0.4933
  876TIP3   OH224042   4.208   6.264  12.683 -0.5805 -0.1728  1.1159
  876TIP3    H124043   4.283   6.315  12.715 -1.3156  0.4818  1.8311
  876TIP3    H224044   4.170   6.318  12.613  1.9087 -2.2781 -1.9645
  877TIP3   OH224045   1.062   3.838   2.088 -0.4224 -0.4872  0.1282
  877TIP3    H124046   1.087   3.853   2.180  2.1961  1.1817 -0.8091
  877TIP3    H224047   0.970   3.865   2.084 -0.0073  1.3301  1.8564
  878TIP3   OH224048   2.026   2.541  13.270 -0.5246 -0.2725  0.2309
  878TIP3    H124049   2.088   2.507  13.334  0.6704 -0.7829 -1.1846
  878TIP3    H224050   1.941   2.533  13.312  0.2144 -0.9511  1.6056
  879TIP3   OH224051   5.921   3.384   4.963 -0.3683  0.2671 -0.2325
  879TIP3    H124052   5.864   3.445   5.009  1.0778 -1.1049  3.6273
  879TIP3    H224053   5.997   3.437   4.938 -0.0900  0.5820  1.1888
  880TIP3   OH224054   1.976   1.540  15.199 -0.5830  0.1976  0.4206
  880TIP3    H124055   1.899   1.538  15.141 -0.4358  0.1481  0.2284
  880TIP3    H224056   2.014   1.453  15.190 -1.4411 -0.3349  1.7716
  881TIP3   OH224057   4.853   2.128  10.861 -0.0376 -0.4802 -0.0563
  881TIP3    H124058   4.794   2.055  10.879  0.0523 -0.2510  1.2128
  881TIP3    H224059   4.884   2.113  10.771 -0.6511 -1.5470 -0.0911
  882TIP3   OH224060   6.142   6.195  10.376 -0.0108  0.2519 -0.1784
  882TIP3    H124061   6.185   6.245  10.306 -1.7315 -0.0464 -1.4626
  882TIP3    H224062   6.181   6.108  10.371  1.5812  0.8869  0.7970
  883TIP3   OH224063   3.911   3.677   1.174  0.4058 -0.6216  0.3496
  883TIP3    H124064   3.832   3.631   1.202  0.4017 -0.7211  0.1733
  883TIP3    H224065   3.922   3.654   1.082 -1.8979  3.0429 -0.9383
  884TIP3   OH224066   3.235   5.669   5.187  0.2410  0.7289  0.4726
  884TIP3    H124067   3.204   5.579   5.174 -0.0026  0.8718  0.0465
  884TIP3    H224068   3.265   5.671   5.278 -1.1207  0.6221  0.9335
  885TIP3   OH224069   0.595   1.897   3.909 -0.4192  0.0992 -0.7964
  885TIP3    H124070   0.622   1.927   3.995 -0.8442  3.7009 -1.8320
  885TIP3    H224071   0.500   1.893   3.913 -0.3302 -2.0301 -0.4143
  886TIP3   OH224072   2.537   1.691  11.726 -0.3804  0.1251 -0.1922
  886TIP3    H124073   2.503   1.651  11.805 -0.4451 -0.7656 -0.6620
  886TIP3    H224074   2.548   1.783  11.748 -2.0168  0.2142  0.3164
  887TIP3   OH224075   4.174   2.762   2.115 -0.6314 -0.1214 -0.6150
  887TIP3    H124076   4.098   2.789   2.168 -1.2744 -0.5643 -1.2956
  887TIP3    H224077   4.244   2.750   2.178 -1.0234  0.6672 -0.0117
  888TIP3   OH224078   5.574   4.494  10.800  0.3015  0.1617 -0.0631
  888TIP3    H124079   5.624   4.469  10.722 -0.3300  0.8909 -0.7045
  888TIP3    H224080   5.484   4.471  10.779  0.2036 -0.1351  0.6719
  889TIP3   OH224081   3.088   3.076  11.146 -0.2730 -0.1853 -0.4406
  889TIP3    H124082   3.142   3.116  11.078  0.3535 -0.7056 -0.2541
  889TIP3    H224083   3.069   2.988  11.113 -0.6895 -0.1381 -0.3320
  890TIP3   OH224084   5.794   1.615  12.218  0.0265  0.1317 -0.0421
  890TIP3    H124085   5.757   1.541  12.266 -0.0594  1.4972  2.0958
  890TIP3    H224086   5.724   1.643  12.159 -1.4003  0.9191  1.9443
  891TIP3   OH224087   1.621   2.536   3.202 -0.0484 -0.3875 -0.2971
  891TIP3    H124088   1.647   2.628   3.201  2.1635 -0.9508  0.6339
  891TIP3    H224089   1.576   2.524   3.285  0.8591 -0.4407  0.1908
  892TIP3   OH224090   5.836   1.256   2.564 -0.0777 -0.4359  0.0434
  892TIP3    H124091   5.875   1.171   2.584 -0.5636 -0.5905  0.3420
  892TIP3    H224092   5.770   1.269   2.632  1.4304  1.1479  1.2454
  893TIP3   OH224093   1.468   0.668   5.992  0.5402  0.5480 -0.8204
  893TIP3    H124094   1.461   0.625   6.077  0.6740 -0.4035 -1.2951
  893TIP3    H224095   1.415   0.747   6.002  0.3342  0.3082  0.0605
  894TIP3   OH224096   2.164   6.552  13.950  0.2611  0.7450 -0.2238
  894TIP3    H124097   2.204   6.584  13.869 -0.7404  1.3033 -0.5078
  894TIP3    H224098   2.238   6.532  14.007  0.9633  0.6727 -1.1587
  895TIP3   OH224099   6.501   2.940   2.486  0.3479  0.0340 -0.3292
  895TIP3    H124100   6.521   2.989   2.406 -0.0736  0.6251 -0.0703
  895TIP3    H224101   6.537   2.852   2.469 -2.2901 -0.7369 -2.3786
  896TIP3   OH224102   1.065   1.751   1.956 -0.1774  0.1890 -0.3589
  896TIP3    H124103   1.148   1.714   1.987  0.9775  0.8443 -2.5932
  896TIP3    H224104   1.007   1.747   2.033  0.8749 -3.2750  0.3609
  897TIP3   OH224105   4.746   3.067  11.005  0.0487 -0.2068  0.3154
  897TIP3    H124106   4.754   3.072  10.910 -2.6356 -0.9574  0.0112
  897TIP3    H224107   4.821   3.014  11.033  1.6696  1.2209 -1.2009
  898TIP3   OH224108   3.126   2.745   0.028 -0.2625 -0.7313 -0.3461
  898TIP3    H124109   3.076   2.798  -0.034  2.2816  0.8196 -1.1681
  898TIP3    H224110   3.064   2.681   0.062 -2.9695  1.6233 -0.7160
  899TIP3   OH224111   6.104   5.511  13.216 -0.0278 -0.5549  0.1650
  899TIP3    H124112   6.156   5.578  13.171  0.3255 -0.1342  1.1775
  899TIP3    H224113   6.167   5.468  13.274 -0.6659 -0.5057  0.8901
  900TIP3   OH224114   1.785   4.808   0.689 -0.3876  0.2595 -0.3112
  900TIP3    H124115   1.779   4.713   0.701 -0.4102  0.0292 -2.0246
  900TIP3    H224116   1.711   4.843   0.738 -1.2775 -0.7300 -0.9337
  901TIP3   OH224117   2.160   6.249   1.935 -0.4221 -0.1149 -0.5752
  901TIP3    H124118   2.239   6.303   1.925 -0.0280 -0.2657  1.4564
  901TIP3    H224119   2.091   6.299   1.891  0.3786  1.0264 -0.5587
  902TIP3   OH224120   6.532   1.287   3.771 -0.1535 -0.1513 -0.0113
  902TIP3    H124121   6.443   1.271   3.739 -1.0796  4.1892  0.1449
  902TIP3    H224122   6.519   1.320   3.860  1.4879  2.0431 -0.5624
  903TIP3   OH224123   0.552   5.800  12.582 -0.1395 -0.3155 -0.4274
  903TIP3    H124124   0.578   5.879  12.629  1.7047 -1.9060  1.3554
  903TIP3    H224125   0.626   5.782  12.524 -0.5737 -0.7069 -0.8610
  904TIP3   OH224126   3.230   3.122  13.436 -0.4896  0.3852 -0.0736
  904TIP3    H124127   3.260   3.089  13.351  1.8533  0.7809  0.5604
  904TIP3    H224128   3.270   3.063  13.500  1.7587  2.9342  0.9579
  905TIP3   OH224129   6.055   4.595   0.916  0.6150 -0.3771  0.2336
  905TIP3    H124130   6.122   4.531   0.939  0.1717 -1.3192 -1.0186
  905TIP3    H224131   5.998   4.549   0.853  0.7279  1.4839 -1.2912
  906TIP3   OH224132   4.495   4.207  14.673 -0.1993  0.0875  0.0319
  906TIP3    H124133   4.453   4.122  14.660 -1.2862  0.1076  2.9605
  906TIP3    H224134   4.422   4.267  14.687  0.5837  1.4723 -1.7478
  907TIP3   OH224135   4.136   3.139  13.842 -0.2730  0.3736  0.6725
  907TIP3    H124136   4.128   3.075  13.772  1.6590  0.1495  0.6372
  907TIP3    H224137   4.152   3.222  13.798 -0.0313  0.4012  0.8092
  908TIP3   OH224138   4.389   0.179  14.741  0.9470  0.4130 -0.1196
  908TIP3    H124139   4.458   0.211  14.800  1.1107  1.0095 -0.6357
  908TIP3    H224140   4.325   0.250  14.738  1.0925  0.5103 -0.9120
  909TIP3   OH224141   2.827   4.833   3.596  0.1018  0.0365 -0.4933
  909TIP3    H124142   2.804   4.840   3.689  0.3521 -2.5350 -0.1996
  909TIP3    H224143   2.914   4.872   3.590  0.0468  0.3116  0.3385
  910TIP3   OH224144   5.108   0.686  15.610 -0.5898  0.1973  0.0837
  910TIP3    H124145   5.194   0.728  15.619 -0.0830 -0.8081  0.0794
  910TIP3    H224146   5.059   0.714  15.687 -0.0698  0.3604  0.3595
  911TIP3   OH224147   6.280   2.244   1.989 -0.3470 -0.2106  0.0536
  911TIP3    H124148   6.295   2.278   2.077  0.3032 -1.8177  0.5877
  911TIP3    H224149   6.366   2.248   1.946 -0.4488 -0.3381 -0.1643
  912TIP3   OH224150   1.766   0.594  16.721 -0.1326  0.1597  0.6473
  912TIP3    H124151   1.760   0.650  16.799  1.8417  0.9191  0.2832
  912TIP3    H224152   1.850   0.617  16.681  0.0800 -2.0780 -0.2896
  913TIP3   OH224153   5.602   5.033   3.651  0.4862  0.3305 -0.1590
  913TIP3    H124154   5.536   5.094   3.618  2.3338  1.9608 -0.9403
  913TIP3    H224155   5.552   4.959   3.685 -1.7052  1.2461 -1.3215
  914TIP3   OH224156   4.506   2.687  12.695  0.2816 -0.0643  1.0287
  914TIP3    H124157   4.447   2.612  12.686 -1.8159  1.7850 -1.1978
  914TIP3    H224158   4.495   2.715  12.786 -0.7863 -0.9410  1.1846
  915TIP3   OH224159   2.423   3.961   5.832  0.0899 -0.5176  0.2807
  915TIP3    H124160   2.340   3.919   5.856 -0.4180 -0.4045 -1.2779
  915TIP3    H224161   2.475   3.890   5.794 -0.3371  0.0147 -1.2952
  916TIP3   OH224162   1.523   1.642  13.472  0.3204  0.8496 -0.3431
  916TIP3    H124163   1.609   1.612  13.503 -0.4315 -0.7936  0.1870
  916TIP3    H224164   1.481   1.563  13.438 -1.4236  1.4181  0.4429
  917TIP3   OH224165   2.728   4.760   5.868  0.1243 -0.3854  0.6327
  917TIP3    H124166   2.732   4.666   5.855 -1.4381 -0.5685  1.3411
  917TIP3    H224167   2.810   4.782   5.912  0.4214 -1.4338  0.6104
  918TIP3   OH224168   5.963   1.202   6.345  0.2663  0.1548 -0.2544
  918TIP3    H124169   5.944   1.184   6.437  1.0972 -0.1699 -0.1391
  918TIP3    H224170   5.879   1.227   6.307  0.2314  2.0317  0.9846
  919TIP3   OH224171   0.771   0.276  12.117 -0.7532  0.3030  0.2543
  919TIP3    H124172   0.825   0.200  12.095 -2.0042 -1.1870  2.1434
  919TIP3    H224173   0.683   0.241  12.124 -1.2389  1.7913  1.9208
  920TIP3   OH224174   4.260   4.815  11.474 -0.1187  0.0259 -0.0534
  920TIP3    H124175   4.250   4.719  11.475 -0.9058  0.1091 -0.4885
  920TIP3    H224176   4.181   4.848  11.516 -1.0785  0.5944 -2.2202
  921TIP3   OH224177   0.547   5.285   1.467  0.2557  0.4795 -0.4534
  921TIP3    H124178   0.554   5.347   1.540 -1.3939 -0.5264  0.5940
  921TIP3    H224179   0.635   5.283   1.429  0.9796  1.5174  1.1056
  922TIP3   OH224180   3.619   4.952   0.749  0.6397  0.0281  0.0772
  922TIP3    H124181   3.691   4.891   0.764 -1.4001 -2.6397 -0.5713
  922TIP3    H224182   3.637   5.025   0.807  4.2151 -0.2532 -0.5872
  923TIP3   OH224183   3.145   4.205  15.900 -0.1806 -0.5392  0.7129
  923TIP3    H124184   3.116   4.138  15.961 -1.2779 -0.0276  0.7730
  923TIP3    H224185   3.130   4.167  15.814  1.8330 -1.4538  0.7606
  924TIP3   OH224186   4.891   3.548  12.891  0.2601 -0.3108 -0.2758
  924TIP3    H124187   4.982   3.517  12.896  0.2089 -0.4460 -0.1440
  924TIP3    H224188   4.857   3.534  12.979  0.2623  0.2184 -0.1933
  925TIP3   OH224189   1.409   2.813   4.512  0.3734  0.1704 -0.8426
  925TIP3    H124190   1.344   2.869   4.556 -0.3342 -0.5087 -1.0055
  925TIP3    H224191   1.418   2.851   4.425  0.6494  0.6231 -0.6202
  926TIP3   OH224192   2.017   4.761   3.699 -0.0690 -1.0451  0.2827
  926TIP3    H124193   1.944   4.728   3.647  0.5490 -3.6150  0.9502
  926TIP3    H224194   1.976   4.802   3.775 -0.9676  2.5576 -2.0630
  927TIP3   OH224195   5.511   1.935  11.550  0.6044 -0.5417 -0.7181
  927TIP3    H124196   5.493   1.914  11.459 -0.9173  1.6167 -0.9412
  927TIP3    H224197   5.486   1.857  11.599 -0.8169 -0.8390 -1.9202
  928TIP3   OH224198   1.227   2.581  14.864 -0.1542 -0.4795 -0.3217
  928TIP3    H124199   1.232   2.517  14.792  0.4729 -0.5252 -0.2405
  928TIP3    H224200   1.228   2.666  14.820  0.2074 -0.5076 -0.3726
  929TIP3   OH224201   0.596   5.854   4.987 -0.8868  0.1613  0.4115
  929TIP3    H124202   0.551   5.924   5.034  0.0426  1.7421 -1.0206
  929TIP3    H224203   0.600   5.884   4.896 -0.7046 -1.8624 -0.2703
  930TIP3   OH224204   1.202   1.994  13.396 -0.0545  0.6208  0.3742
  930TIP3    H124205   1.293   1.974  13.421  0.0303 -0.6294 -0.9012
  930TIP3    H224206   1.203   2.088  13.376  1.0423  0.5340 -0.0173
  931TIP3   OH224207   4.437   5.996   3.768  0.7149 -0.1325  0.4287
  931TIP3    H124208   4.483   6.045   3.836 -2.3373  1.5364  1.4054
  931TIP3    H224209   4.398   6.063   3.713  0.7356 -1.4916 -1.2716
  932TIP3   OH224210   4.109   5.232   4.731 -0.0586 -0.1836  0.0146
  932TIP3    H124211   4.045   5.296   4.699 -0.6732 -1.1289 -0.6490
  932TIP3    H224212   4.163   5.212   4.654  0.3946 -0.1635  0.3219
  933TIP3   OH224213   4.999   5.053   3.038  0.0731  0.0209  0.2958
  933TIP3    H124214   5.047   5.025   2.960  0.5096 -2.3160  1.3321
  933TIP3    H224215   5.063   5.101   3.089 -0.0949  1.1887 -0.5875
  934TIP3   OH224216   1.503   5.544   0.504 -0.0972 -0.3920 -0.7528
  934TIP3    H124217   1.465   5.494   0.575 -0.4382  1.0792  0.1185
  934TIP3    H224218   1.478   5.634   0.522  3.4292  0.5911 -0.3667
  935TIP3   OH224219   3.072   3.903  15.350 -0.0014 -0.1239 -0.0738
  935TIP3    H124220   3.140   3.841  15.376  1.3123  1.5205  0.5123
  935TIP3    H224221   3.112   3.955  15.281 -0.8030  0.5931 -0.0062
  936TIP3   OH224222   2.494   5.363  11.961 -0.2383  0.2187  0.8755
  936TIP3    H124223   2.547   5.312  11.901 -1.2791 -1.2073  1.1432
  936TIP3    H224224   2.550   5.375  12.038  0.9829  1.7878 -0.2155
  937TIP3   OH224225   6.719   0.752   2.668 -0.2965  0.0608  0.0679
  937TIP3    H124226   6.735   0.829   2.724  0.8168 -0.2191  0.1507
  937TIP3    H224227   6.807   0.722   2.644 -0.7312 -1.2230  0.0785
  938TIP3   OH224228   2.610   3.715   4.128 -0.2090 -0.2206 -0.2733
  938TIP3    H124229   2.679   3.740   4.188 -0.0766  0.9003 -0.8893
  938TIP3    H224230   2.600   3.790   4.069 -2.8147  0.1603  0.5928
  939TIP3   OH224231   5.942   0.835  16.539 -0.3633 -0.0063 -0.3088
  939TIP3    H124232   5.988   0.761  16.499  1.7330 -0.0718  2.0739
  939TIP3    H224233   5.850   0.822  16.515  0.2343 -2.3616 -1.4705
  940TIP3   OH224234   6.158   4.084   6.280  0.2167 -0.5582  0.6276
  940TIP3    H124235   6.214   4.029   6.335  1.2941  0.5394  0.6445
  940TIP3    H224236   6.173   4.173   6.311 -2.7488 -0.3613  1.6911
  941TIP3   OH224237   0.049   0.400  15.459 -0.6019 -0.2538 -0.5421
  941TIP3    H124238   0.109   0.341  15.414  1.2264 -0.0329  1.5242
  941TIP3    H224239   0.010   0.346  15.528  0.2140  0.6430  0.6249
  942TIP3   OH224240   3.224   2.103   4.739  0.0769 -0.9970  0.2052
  942TIP3    H124241   3.251   2.178   4.685  4.2206 -2.0427  0.7144
  942TIP3    H224242   3.220   2.138   4.828  0.4631 -1.0047  0.2265
  943TIP3   OH224243   4.819   0.684  14.657  0.2524  0.2474  0.2282
  943TIP3    H124244   4.840   0.753  14.719 -2.5624  1.6816 -0.3066
  943TIP3    H224245   4.825   0.726  14.571  0.9242 -0.8337 -0.2628
  944TIP3   OH224246   0.914   1.274   0.819 -0.4129  0.5439 -0.4148
  944TIP3    H124247   1.000   1.307   0.794 -1.0359  2.3248 -0.2850
  944TIP3    H224248   0.884   1.334   0.887  0.0213 -2.5248  2.6165
  945TIP3   OH224249   2.663   6.289  13.689 -0.0793 -0.6294 -0.1931
  945TIP3    H124250   2.750   6.250  13.684 -0.0610 -0.5869 -0.2099
  945TIP3    H224251   2.603   6.219  13.664  0.1036 -0.0559 -2.3336
  946TIP3   OH224252   0.351   0.964   4.781 -0.5261 -0.1376 -0.0653
  946TIP3    H124253   0.262   0.938   4.760 -1.1317  1.5343  0.3875
  946TIP3    H224254   0.382   1.010   4.702 -0.3954  0.0874  0.1143
  947TIP3   OH224255   3.233   1.626  13.487  0.1338  0.5111 -0.1919
  947TIP3    H124256   3.253   1.655  13.576 -2.6347  1.3117  0.2016
  947TIP3    H224257   3.296   1.556  13.470 -0.7339 -1.1806  3.1942
  948TIP3   OH224258   3.005   3.128  16.018  0.1155 -0.0892 -0.2168
  948TIP3    H124259   2.935   3.190  15.997  0.1952 -0.4066 -1.4652
  948TIP3    H224260   3.054   3.170  16.089  0.1258  1.2504 -0.9939
  949TIP3   OH224261   2.219   3.181  14.783  0.6172  0.5545 -0.1501
  949TIP3    H124262   2.268   3.254  14.745  3.2019 -0.9737  0.1309
  949TIP3    H224263   2.210   3.119  14.711 -0.1004  0.4106  0.0616
  950TIP3   OH224264   3.720   2.861  13.183  0.0138  0.1279 -0.2124
  950TIP3    H124265   3.742   2.876  13.275 -2.9155 -1.4829  0.8159
  950TIP3    H224266   3.719   2.765  13.174  1.1867  0.2745 -2.1691
  951TIP3   OH224267   3.792   6.057  13.872  0.0399  0.4050  0.3431
  951TIP3    H124268   3.706   6.067  13.832 -0.2896  0.0779  0.9673
  951TIP3    H224269   3.849   6.029  13.800 -0.6422 -0.6290  0.2026
  952TIP3   OH224270   5.222   0.747   5.077 -0.0596 -0.1837  0.4392
  952TIP3    H124271   5.154   0.713   5.019 -0.7752  0.3824  0.9408
  952TIP3    H224272   5.201   0.840   5.088  1.3729  0.2315 -0.2065
  953TIP3   OH224273   4.832   6.372   6.327 -0.1514 -0.0268  0.5471
  953TIP3    H124274   4.737   6.386   6.322 -0.1882 -0.3735  0.2350
  953TIP3    H224275   4.841   6.297   6.385 -0.1622 -1.0487 -0.7556
  954TIP3   OH224276   3.680   2.743   2.199 -0.1890 -0.5897  0.7128
  954TIP3    H124277   3.651   2.697   2.278 -1.8022  0.1429  0.5771
  954TIP3    H224278   3.653   2.834   2.213 -0.2851 -0.4040 -0.5920
  955TIP3   OH224279   0.492   0.818  16.899  0.4423 -0.0401 -0.9672
  955TIP3    H124280   0.483   0.760  16.823  1.4722  0.9839 -1.8803
  955TIP3    H224281   0.437   0.893  16.878 -2.3270 -1.4192  1.0002
  956TIP3   OH224282   3.633   4.755   1.790 -0.1753 -0.6074 -0.2467
  956TIP3    H124283   3.614   4.846   1.813 -0.9860 -1.1137  1.1273
  956TIP3    H224284   3.621   4.752   1.695 -0.3307  0.6818 -0.2807
  957TIP3   OH224285   0.002   0.604  16.210 -0.0483 -0.3943 -0.2032
  957TIP3    H124286   0.043   0.570  16.289 -1.3397 -1.5459 -0.0143
  957TIP3    H224287   0.059   0.574  16.139 -0.7449 -2.3079  0.0204
  958TIP3   OH224288   6.304   2.543  11.213  0.0359  0.4865  0.0111
  958TIP3    H124289   6.324   2.610  11.147  0.1061 -0.2730 -0.7568
  958TIP3    H224290   6.244   2.483  11.168  0.1386 -0.0765  0.6152
  959TIP3   OH224291   2.471   0.660   3.657 -0.7052 -0.1821 -0.1516
  959TIP3    H124292   2.522   0.637   3.579 -1.8618  1.8386 -1.5488
  959TIP3    H224293   2.410   0.587   3.668  0.3843 -1.1388 -0.2955
  960TIP3   OH224294   6.237   2.210  14.600 -0.3700  0.2210 -0.0812
  960TIP3    H124295   6.286   2.214  14.682 -0.2064  0.5836 -0.1920
  960TIP3    H224296   6.194   2.125  14.602 -1.8123  0.9432  1.2163
  961TIP3   OH224297   5.190   1.833  12.318  0.0030  0.3252 -0.2302
  961TIP3    H124298   5.163   1.908  12.372 -1.5040 -0.3059 -0.0784
  961TIP3    H224299   5.283   1.822  12.337 -0.1097  1.2034  0.9198
  962TIP3   OH224300   5.871   2.735  15.783  0.2117 -0.0478  0.5490
  962TIP3    H124301   5.960   2.771  15.783  0.5370 -0.8361  0.3038
  962TIP3    H224302   5.883   2.643  15.804 -0.5273 -0.2179  0.2246
  963TIP3   OH224303   6.024   0.169  12.837  0.4746  0.0595 -0.1591
  963TIP3    H124304   6.026   0.075  12.817  1.5651  0.2510 -0.9832
  963TIP3    H224305   5.976   0.175  12.920  1.8869 -1.3921  0.7926
  964TIP3   OH224306   2.845   1.624  16.274  0.0459  0.5124  0.0225
  964TIP3    H124307   2.862   1.704  16.324 -1.4338  0.5036  0.5641
  964TIP3    H224308   2.761   1.592  16.307 -0.3963 -0.1257 -1.6565
  965TIP3   OH224309   5.600   2.608   1.905 -0.2102  0.2063 -0.0840
  965TIP3    H124310   5.636   2.670   1.969  0.3295  0.4616 -0.6269
  965TIP3    H224311   5.521   2.650   1.873  0.3177  0.7575 -0.6725
  966TIP3   OH224312   2.437   6.767  12.685 -0.1282 -0.4134 -0.1769
  966TIP3    H124313   2.453   6.681  12.723  0.3452 -0.7726 -1.1847
  966TIP3    H224314   2.524   6.799  12.660 -0.3352  0.2277 -0.0829
  967TIP3   OH224315   3.935   3.024   1.697 -0.0945 -0.2754 -0.0156
  967TIP3    H124316   3.992   3.076   1.755  1.4427 -1.1042 -0.7584
  967TIP3    H224317   3.879   2.975   1.757 -0.2443  0.7881  0.7302
  968TIP3   OH224318   1.724   3.769  11.351 -0.3411  0.3603 -0.4219
  968TIP3    H124319   1.719   3.815  11.435 -0.0799  0.8411 -0.6713
  968TIP3    H224320   1.652   3.804  11.300 -0.8516 -0.3446 -0.1989
  969TIP3   OH224321   6.614   6.520   1.308 -0.4183 -0.0282  0.1072
  969TIP3    H124322   6.546   6.586   1.291 -0.4268  0.7507  2.9500
  969TIP3    H224323   6.605   6.458   1.235 -3.1290  0.9007 -0.4391
  970TIP3   OH224324   4.527   6.093   2.035 -0.0165 -0.6179  0.3265
  970TIP3    H124325   4.577   6.137   2.104  0.3863 -0.3587 -0.1350
  970TIP3    H224326   4.562   6.004   2.033  0.9653 -0.2121 -0.5362
  971TIP3   OH224327   2.142   6.046   0.302  0.0259  0.2078 -0.4578
  971TIP3    H124328   2.231   6.076   0.284 -0.0406  0.5784 -0.1780
  971TIP3    H224329   2.105   6.026   0.216  1.1754 -2.2487 -0.4178
  972TIP3   OH224330   5.046   1.277  16.060  0.3361 -0.7824 -0.4409
  972TIP3    H124331   5.128   1.255  16.016 -0.4662  0.0390 -2.4411
  972TIP3    H224332   5.053   1.370  16.079  0.1222 -0.8401 -0.0789
  973TIP3   OH224333   2.589   4.712  10.991  0.3344 -0.2217 -0.0828
  973TIP3    H124334   2.510   4.738  10.944  3.0133  0.9633 -4.1556
  973TIP3    H224335   2.625   4.638  10.941  1.0718 -1.7014  2.5311
  974TIP3   OH224336   4.434   0.142   5.006  0.4544  0.0782 -0.8732
  974TIP3    H124337   4.420   0.055   5.044 -0.3390  0.3420 -0.5409
  974TIP3    H224338   4.421   0.129   4.912 -2.1788  0.2977 -0.5956
  975TIP3   OH224339   1.734   1.024  12.611 -0.1708 -0.1907 -0.1216
  975TIP3    H124340   1.674   1.038  12.684 -1.4330 -0.5294 -1.0924
  975TIP3    H224341   1.766   1.111  12.590 -2.0890  0.2949 -1.1017
  976TIP3   OH224342   1.602   5.344  13.817 -0.2955 -0.3422 -0.2478
  976TIP3    H124343   1.607   5.280  13.888 -2.3557 -1.6727 -1.2508
  976TIP3    H224344   1.548   5.415  13.853  0.8712  0.2251  0.4080
  977TIP3   OH224345   5.782   1.073  11.077  0.6785  0.5466  0.2415
  977TIP3    H124346   5.716   1.106  11.138 -0.3263  0.2305 -0.6679
  977TIP3    H224347   5.791   0.980  11.098  0.4190  0.4640 -0.0116
  978TIP3   OH224348   0.126   4.186  11.649 -0.7058  0.1214  0.0805
  978TIP3    H124349   0.080   4.249  11.593 -0.4972 -0.4540 -0.7448
  978TIP3    H224350   0.127   4.105  11.598  2.0563  0.3704 -0.3458
  979TIP3   OH224351   4.247   2.000  11.427  0.3256 -0.0883 -0.4158
  979TIP3    H124352   4.175   2.060  11.444  0.0233 -0.0229 -1.8555
  979TIP3    H224353   4.286   1.985  11.513 -2.1241 -1.0622  0.5641
  980TIP3   OH224354   4.356   6.744   6.248 -0.5318  0.3268  0.5646
  980TIP3    H124355   4.306   6.756   6.167 -0.8131 -1.0231  0.5363
  980TIP3    H224356   4.313   6.671   6.293  0.8473 -0.2542  0.9656
  981TIP3   OH224357   0.194   2.982  10.818 -0.1546 -0.3397  0.3497
  981TIP3    H124358   0.167   3.006  10.729  0.1428 -0.5600  0.1987
  981TIP3    H224359   0.134   3.030  10.875  0.6064  0.9815  0.0608
  982TIP3   OH224360   4.435   2.291  13.869 -0.3807 -0.1569 -0.1113
  982TIP3    H124361   4.431   2.345  13.790  0.6113 -0.3988 -0.3343
  982TIP3    H224362   4.348   2.299  13.908 -0.7277  0.3495 -0.9727
  983TIP3   OH224363   2.621   1.098   0.776  0.4491  0.4549  0.5068
  983TIP3    H124364   2.602   1.105   0.869 -0.5881  0.0748  0.3309
  983TIP3    H224365   2.546   1.051   0.739  1.9213 -1.4707 -0.1496
  984TIP3   OH224366   1.140   5.176   6.271  0.4192 -0.1572  0.0122
  984TIP3    H124367   1.090   5.237   6.326  0.0374  0.0510 -0.5704
  984TIP3    H224368   1.231   5.189   6.298  0.1400 -0.8229  1.3694
  985TIP3   OH224369   1.016   6.313  11.038  0.2781  0.2836  0.0661
  985TIP3    H124370   1.095   6.365  11.046  0.8512 -0.8298  1.8496
  985TIP3    H224371   0.968   6.354  10.966  1.5651  2.1304  0.2180
  986TIP3   OH224372   1.487   1.236   6.014  0.2953  0.4273  0.1423
  986TIP3    H124373   1.580   1.216   6.003  0.8836  2.9485  0.2286
  986TIP3    H224374   1.474   1.317   5.965 -1.7332  0.4003  0.6011
  987TIP3   OH224375   5.865   5.647  14.832  0.1852  0.1266  0.0593
  987TIP3    H124376   5.832   5.725  14.788  0.7283  0.8555  0.9243
  987TIP3    H224377   5.845   5.575  14.771 -1.9449  0.6834  0.0455
  988TIP3   OH224378   5.286   1.321  13.359 -0.2109  0.5558  0.0390
  988TIP3    H124379   5.326   1.297  13.443 -3.1333  1.8168  1.8796
  988TIP3    H224380   5.319   1.409  13.342  0.2777  0.3535 -0.0822
  989TIP3   OH224381   2.204   2.168   0.514  0.3163 -0.0292 -0.0795
  989TIP3    H124382   2.121   2.136   0.550  0.0979  1.3221  0.6361
  989TIP3    H224383   2.255   2.194   0.591  0.7116  0.8182 -0.6286
  990TIP3   OH224384   4.629   4.123  13.243 -0.5488  0.3709 -0.7293
  990TIP3    H124385   4.588   4.065  13.178 -0.0223  0.5475 -1.2209
  990TIP3    H224386   4.681   4.184  13.191  1.8335 -0.9982 -0.0436
  991TIP3   OH224387   0.746   2.065   1.684 -0.0949  0.3631  0.0657
  991TIP3    H124388   0.774   1.999   1.748  1.1811 -0.0643 -0.9174
  991TIP3    H224389   0.784   2.146   1.716  2.3157 -0.2078 -1.2369
  992TIP3   OH224390   1.378   0.884  11.633 -0.1100  0.3863 -0.0248
  992TIP3    H124391   1.458   0.836  11.612  0.0165  0.6114 -0.0554
  992TIP3    H224392   1.380   0.894  11.728  0.6436  1.7040 -0.1769
  993TIP3   OH224393   5.525   1.348   5.464  0.5375 -0.2693 -0.3338
  993TIP3    H124394   5.444   1.303   5.443 -1.0481  2.7488 -0.9688
  993TIP3    H224395   5.526   1.353   5.560 -1.3175  1.8190 -0.3745
  994TIP3   OH224396   2.752   6.469   1.178 -0.5386  0.5697 -0.2301
  994TIP3    H124397   2.728   6.391   1.228 -1.2330  0.6414 -0.4395
  994TIP3    H224398   2.682   6.479   1.114  0.6936  0.0838 -1.6811
  995TIP3   OH224399   4.284   1.435   4.083  0.3768  0.2188 -0.0582
  995TIP3    H124400   4.225   1.360   4.086  2.3022 -1.3548 -0.4527
  995TIP3    H224401   4.301   1.456   4.175  3.4865 -2.8481  0.1643
  996TIP3   OH224402   5.410   6.483  11.493 -0.5828  0.1138  0.1758
  996TIP3    H124403   5.363   6.501  11.575 -0.6391  0.4936  0.0609
  996TIP3    H224404   5.443   6.568  11.465 -1.4524  0.1639 -0.7413
  997TIP3   OH224405   1.624   1.332  11.361  0.2425 -0.6198 -0.2369
  997TIP3    H124406   1.652   1.319  11.452 -0.5878 -0.8761 -0.0103
  997TIP3    H224407   1.690   1.390  11.323 -0.2197  0.7097  0.9652
  998TIP3   OH224408   6.548   0.167  14.800 -0.8323 -0.0658 -0.3520
  998TIP3    H124409   6.599   0.248  14.801 -1.7210  0.4992 -0.7394
  998TIP3    H224410   6.540   0.143  14.893  0.6334 -0.4865 -0.3138
  999TIP3   OH224411   5.541   3.500   3.815  0.2358 -0.2586 -0.9671
  999TIP3    H124412   5.614   3.521   3.756  0.5127  2.7455  0.3203
  999TIP3    H224413   5.465   3.492   3.757  1.2545 -1.6514 -2.1442
 1000TIP3   OH224414   5.202   4.726   0.417  0.2548  0.3638 -0.3613
 1000TIP3    H124415   5.135   4.694   0.357  0.7057  1.3151 -1.4039
 1000TIP3    H224416   5.269   4.657   0.417 -0.7193 -0.5796  0.6809
 1001TIP3   OH224417   0.555   1.290  12.695  0.0812  0.6536  0.3609
 1001TIP3    H124418   0.481   1.350  12.687 -0.7541 -0.0943  2.1960
 1001TIP3    H224419   0.532   1.216  12.638 -0.3051  0.7044  0.4480
 1002TIP3   OH224420   5.755   5.891  13.935 -0.0173 -0.1521  0.0674
 1002TIP3    H124421   5.729   5.850  14.017  1.6714 -0.3338  0.5202
 1002TIP3    H224422   5.743   5.823  13.869 -0.9723 -0.1323  0.2123
 1003TIP3   OH224423   3.901   2.808   3.593  0.0739 -0.3322 -0.0562
 1003TIP3    H124424   3.967   2.783   3.659 -1.5314 -1.1802  1.2717
 1003TIP3    H224425   3.933   2.771   3.511  0.9358 -1.2668  0.6982
 1004TIP3   OH224426   3.747   0.601  13.382  0.1079  0.0412  0.3347
 1004TIP3    H124427   3.725   0.678  13.328 -2.8973  0.5648  2.1704
 1004TIP3    H224428   3.826   0.627  13.430 -0.7586  1.9393  0.7845
 1005TIP3   OH224429   6.678   1.967   1.753 -0.6483  0.0838  0.0839
 1005TIP3    H124430   6.748   1.955   1.688 -1.5249  0.8139 -0.9951
 1005TIP3    H224431   6.719   2.018   1.823 -0.2053  0.8624 -0.7331
 1006TIP3   OH224432   0.961   3.296   4.780 -0.3782  0.2439 -0.1888
 1006TIP3    H124433   0.922   3.251   4.855  1.0290 -0.9242 -0.1352
 1006TIP3    H224434   0.905   3.373   4.766 -0.1483  0.9873  2.6331
 1007TIP3   OH224435   1.757   4.748   3.544 -0.2624  0.0393  0.6306
 1007TIP3    H124436   1.734   4.655   3.550  1.1146 -0.4481 -1.2030
 1007TIP3    H224437   1.754   4.767   3.450 -1.5653  2.1306  1.0682
 1008TIP3   OH224438   5.296   3.613   5.495 -0.4043 -0.3174 -0.3603
 1008TIP3    H124439   5.335   3.673   5.432  2.0490 -1.2447  0.2207
 1008TIP3    H224440   5.295   3.528   5.451 -1.4045 -0.4031 -0.2006
 1009TIP3   OH224441   3.529   2.379   2.170  0.4449  0.8182  0.3537
 1009TIP3    H124442   3.444   2.413   2.144  0.6769  0.4308 -0.9527
 1009TIP3    H224443   3.586   2.398   2.095  0.5982 -2.3426 -0.3643
 1010TIP3   OH224444   4.257   4.831   4.099 -0.2557  0.8941 -0.0436
 1010TIP3    H124445   4.195   4.897   4.068  0.0735  0.8745 -0.7380
 1010TIP3    H224446   4.208   4.783   4.166 -1.1019  0.6947 -0.7838
 1011TIP3   OH224447   0.634   4.664  13.221  0.3938 -0.5012 -0.1342
 1011TIP3    H124448   0.596   4.704  13.143  0.1240  1.3446  0.9144
 1011TIP3    H224449   0.727   4.685  13.217  0.2837  0.1012  0.3211
 1012TIP3   OH224450   2.086   2.796   0.739 -0.3592  0.4069  0.6255
 1012TIP3    H124451   2.066   2.889   0.742  0.5225  0.5769  2.6436
 1012TIP3    H224452   2.098   2.776   0.646  2.0968  2.9181  0.3390
 1013TIP3   OH224453   2.346   6.737  10.904  0.1954  0.2417 -0.0821
 1013TIP3    H124454   2.395   6.795  10.962  0.5416 -1.6585  1.5746
 1013TIP3    H224455   2.268   6.788  10.880  1.2891  1.9849  0.0103
 1014TIP3   OH224456   6.121   5.194  15.079  0.0015 -0.1081  0.0746
 1014TIP3    H124457   6.107   5.234  14.993  0.5779 -0.0664  0.0012
 1014TIP3    H224458   6.110   5.266  15.142  0.7004  0.0974 -0.0344
 1015TIP3   OH224459   6.140   0.904   3.108 -0.0023  0.3732  0.6148
 1015TIP3    H124460   6.235   0.905   3.099 -0.1535  0.4484 -1.3058
 1015TIP3    H224461   6.124   0.871   3.196  1.8034  0.3330  0.9425
 1016TIP3   OH224462   2.619   2.110   1.631  0.7961 -0.4451  0.0978
 1016TIP3    H124463   2.567   2.190   1.640  0.8659 -0.3136 -0.6901
 1016TIP3    H224464   2.554   2.040   1.632  0.6086 -0.2874 -0.7607
 1017TIP3   OH224465   0.942   5.997  16.992 -0.0486  0.2784 -0.2048
 1017TIP3    H124466   0.855   5.979  17.029  0.2086  0.4613  0.4849
 1017TIP3    H224467   1.002   5.950  17.049  0.5798  2.8044  1.2420
 1018TIP3   OH224468   1.391   5.191   6.365  0.4085 -0.1952 -0.1416
 1018TIP3    H124469   1.450   5.239   6.422  2.2111 -2.5259 -0.0037
 1018TIP3    H224470   1.441   5.115   6.335 -1.7054 -0.9582 -1.9332
 1019TIP3   OH224471   5.316   0.254  16.402 -0.2746 -0.3710 -0.1231
 1019TIP3    H124472   5.359   0.169  16.387 -1.4164 -0.8599 -0.7167
 1019TIP3    H224473   5.348   0.310  16.332  1.1497 -0.0385  0.7675
 1020TIP3   OH224474   5.311   1.421   4.492 -1.1826  0.3647 -0.1138
 1020TIP3    H124475   5.272   1.465   4.568 -1.2028  0.4272 -0.1599
 1020TIP3    H224476   5.237   1.384   4.445 -1.0271 -1.5822  1.0727
 1021TIP3   OH224477   1.721   0.600   4.052  0.2687 -0.3264 -0.2462
 1021TIP3    H124478   1.723   0.515   4.008 -1.0174 -0.7336  0.4494
 1021TIP3    H224479   1.684   0.581   4.139  1.8108  0.6225  0.6367
 1022TIP3   OH224480   2.663   0.503   6.366 -0.1484 -0.3575  0.5572
 1022TIP3    H124481   2.602   0.507   6.440 -0.0972 -1.8129  0.6755
 1022TIP3    H224482   2.658   0.413   6.335 -1.0302  0.5147 -1.9528
 1023TIP3   OH224483   5.306   4.600  11.794 -0.2031  0.7054 -0.3126
 1023TIP3    H124484   5.377   4.622  11.854  0.4236  1.0935 -1.1826
 1023TIP3    H224485   5.341   4.620  11.708 -0.7618 -0.7465 -0.8885
 1024TIP3   OH224486   2.713   2.369  17.004 -0.3216  0.9331  0.3682
 1024TIP3    H124487   2.641   2.428  16.984 -1.1355 -0.4621 -0.9475
 1024TIP3    H224488   2.676   2.306  17.065 -0.3640 -0.0444 -0.6453
 1025TIP3   OH224489   2.392   6.512  13.454  0.5378  0.2024  0.4330
 1025TIP3    H124490   2.406   6.443  13.390 -0.4058 -0.1368  0.5900
 1025TIP3    H224491   2.332   6.474  13.519 -0.2071  1.2458  0.3712
 1026TIP3   OH224492   4.153   5.485   0.120  0.1678  0.2982 -0.4113
 1026TIP3    H124493   4.120   5.464   0.034  1.1831 -1.0424 -0.4931
 1026TIP3    H224494   4.169   5.579   0.118 -0.7282  0.4289 -1.3495
 1027TIP3   OH224495   6.231   6.229   1.700 -0.5118  0.1901  0.3856
 1027TIP3    H124496   6.189   6.282   1.767  2.0120  1.5986  0.9358
 1027TIP3    H224497   6.289   6.289   1.654 -0.2727 -1.3192 -1.3655
 1028TIP3   OH224498   5.653   4.696  12.358  0.6308  0.3043 -0.3053
 1028TIP3    H124499   5.598   4.627  12.321 -0.5890  1.1757 -0.1358
 1028TIP3    H224500   5.690   4.658  12.438  0.1830 -0.2380 -0.3551
 1029TIP3   OH224501   3.772   0.957  13.169  0.2375 -0.3550  0.7379
 1029TIP3    H124502   3.856   0.962  13.123  0.6060  2.0687  1.6119
 1029TIP3    H224503   3.788   1.001  13.252 -1.5883 -0.9568  1.4143
 1030TIP3   OH224504   6.021   4.426  15.257 -0.1543 -0.0974 -0.2016
 1030TIP3    H124505   6.082   4.461  15.192 -0.2252  1.4034  0.5224
 1030TIP3    H224506   6.035   4.480  15.335 -0.3153 -1.6518  0.9284
 1031TIP3   OH224507   1.908   2.002  15.881  0.1749  0.0130 -0.0257
 1031TIP3    H124508   1.847   1.928  15.875  2.1334 -1.9769  3.2640
 1031TIP3    H224509   1.990   1.968  15.845  0.0525  1.9203 -2.2287
 1032TIP3   OH224510   3.113   1.184   1.965 -0.0580 -0.1676 -0.2140
 1032TIP3    H124511   3.182   1.136   2.011 -0.9342 -1.6613 -0.4395
 1032TIP3    H224512   3.158   1.259   1.926  1.8409 -2.1871 -2.0346
 1033TIP3   OH224513   1.053   3.379  16.329 -0.1619 -0.4285 -0.4393
 1033TIP3    H124514   1.094   3.417  16.406 -0.1325 -1.9825  0.3098
 1033TIP3    H224515   1.064   3.447  16.261 -0.3995  1.0351  0.9536
 1034TIP3   OH224516   2.045   5.893   1.591  0.4607 -0.1925  0.5164
 1034TIP3    H124517   2.081   5.949   1.660  1.0361 -2.2701  1.9550
 1034TIP3    H224518   1.957   5.871   1.620 -0.7996  2.1110 -1.3630
 1035TIP3   OH224519   3.230   2.335  13.321 -0.5756 -1.1932 -0.3316
 1035TIP3    H124520   3.175   2.266  13.359 -1.9854 -1.5379 -2.8904
 1035TIP3    H224521   3.170   2.409  13.311  0.0251 -0.7936 -0.9668
 1036TIP3   OH224522   3.211   2.981   0.357  0.2549  0.2018  0.4003
 1036TIP3    H124523   3.264   2.990   0.278 -1.2663  1.3376 -0.5287
 1036TIP3    H224524   3.258   2.918   0.411  2.0392  0.4661 -0.8076
 1037TIP3   OH224525   1.230   0.836  16.141  0.2316  0.7167 -0.2674
 1037TIP3    H124526   1.152   0.826  16.085 -0.5808 -0.0741  0.9868
 1037TIP3    H224527   1.195   0.863  16.226  1.1705 -1.4200  0.8264
 1038TIP3   OH224528   0.507   2.102   2.436  0.0978  0.6132  0.5840
 1038TIP3    H124529   0.570   2.172   2.422  0.7058  0.2973  1.6748
 1038TIP3    H224530   0.471   2.084   2.349  0.6250  1.6161  0.1479
 1039TIP3   OH224531   2.107   4.878  17.102  0.6309  0.6133  0.2597
 1039TIP3    H124532   2.025   4.828  17.103  0.7254  0.4538  0.0681
 1039TIP3    H224533   2.080   4.969  17.089  0.3054  0.9185  2.8316
 1040TIP3   OH224534   0.464   3.564  12.507 -0.5460  0.0011  0.1872
 1040TIP3    H124535   0.372   3.555  12.482 -0.4246  0.0953 -0.2910
 1040TIP3    H224536   0.465   3.539  12.600 -1.2144  0.9371  0.4557
 1041TIP3   OH224537   5.622   5.362   2.580  0.2550 -0.2852  0.4099
 1041TIP3    H124538   5.570   5.435   2.612 -0.4568 -1.9523  3.2062
 1041TIP3    H224539   5.697   5.404   2.537 -1.6918  2.0853 -0.8266
 1042TIP3   OH224540   2.219   5.201   3.526 -0.1599 -0.3534 -0.0073
 1042TIP3    H124541   2.189   5.111   3.540 -0.1787 -0.2909  0.3431
 1042TIP3    H224542   2.154   5.240   3.468 -0.2920 -0.4849  0.0545
 1043TIP3   OH224543   3.976   2.973  11.973  0.4322  0.1039  0.4450
 1043TIP3    H124544   3.987   3.064  12.001  0.3832 -0.2568  1.6568
 1043TIP3    H224545   4.065   2.941  11.960  0.4363  0.4964 -0.6005
 1044TIP3   OH224546   1.232   4.489   0.407  0.5419  0.0296  0.1585
 1044TIP3    H124547   1.290   4.519   0.476 -1.1607  1.4315  1.0292
 1044TIP3    H224548   1.179   4.565   0.384 -1.9694 -1.5409  0.4604
 1045TIP3   OH224549   6.280   2.750  14.276 -0.2173 -0.3036 -0.5705
 1045TIP3    H124550   6.222   2.770  14.203 -1.5439 -2.4037 -0.1381
 1045TIP3    H224551   6.274   2.655  14.287  1.7215 -0.3110  0.8151
 1046TIP3   OH224552   1.362   6.254  11.981 -0.3543 -0.0927 -0.0454
 1046TIP3    H124553   1.414   6.173  11.979 -0.2999 -0.1362  2.5469
 1046TIP3    H224554   1.381   6.293  12.066 -1.1729  2.1620 -0.8605
 1047TIP3   OH224555   0.054   2.570   6.741 -0.1837  0.2253 -0.1777
 1047TIP3    H124556   0.068   2.525   6.824 -0.9131  0.2428 -0.0432
 1047TIP3    H224557   0.127   2.632   6.735  0.0216  0.0325  0.3190
 1048TIP3   OH224558   3.550   4.312  14.157 -0.1337  0.0425  0.1160
 1048TIP3    H124559   3.538   4.228  14.113  1.3667 -0.1599  0.0918
 1048TIP3    H224560   3.468   4.359  14.141 -0.1480 -0.5704 -1.7023
 1049TIP3   OH224561   4.367   3.095  15.528  0.0242 -0.6873  0.0052
 1049TIP3    H124562   4.302   3.050  15.474 -0.4821 -2.1115  1.7326
 1049TIP3    H224563   4.375   3.040  15.606  0.9609  1.1308  1.2302
 1050TIP3   OH224564   0.535   1.913   0.176  0.0102 -0.4143  0.1576
 1050TIP3    H124565   0.609   1.970   0.156  0.2175 -1.1059 -1.0938
 1050TIP3    H224566   0.556   1.874   0.261  0.4026  0.4970  0.4782
 1051TIP3   OH224567   3.228   1.427   0.427  0.3452  0.2487 -0.1309
 1051TIP3    H124568   3.164   1.384   0.484 -0.6111 -0.0957 -1.4536
 1051TIP3    H224569   3.254   1.359   0.364  2.0656  0.3670  0.4284
 1052TIP3   OH224570   5.917   3.888   4.913 -0.5824  0.1801 -0.2719
 1052TIP3    H124571   5.895   3.939   4.991  2.3252  0.9539  0.1086
 1052TIP3    H224572   5.942   3.954   4.848 -3.2597 -0.4338 -2.0202
 1053TIP3   OH224573   2.976   1.373   5.696 -0.6636  0.1411 -0.0645
 1053TIP3    H124574   2.912   1.441   5.718 -0.1720  1.3970 -2.3141
 1053TIP3    H224575   3.059   1.407   5.728 -0.5683  0.1550 -0.3274
 1054TIP3   OH224576   6.251   3.475  11.924 -0.0184  0.1260  0.2326
 1054TIP3    H124577   6.329   3.422  11.908 -0.3612 -0.0479 -0.9338
 1054TIP3    H224578   6.283   3.565  11.923 -0.0005  0.1153 -1.3789
 1055TIP3   OH224579   0.189   1.975  12.338 -0.3261  0.2483 -0.2265
 1055TIP3    H124580   0.284   1.967  12.342 -0.3121  0.9134  1.0643
 1055TIP3    H224581   0.157   1.891  12.371 -0.1896  0.2850 -0.0007
 1056TIP3   OH224582   5.185   1.577  10.308 -0.1170 -0.3078 -0.2046
 1056TIP3    H124583   5.270   1.570  10.353 -0.7741  0.6026  1.2309
 1056TIP3    H224584   5.176   1.671  10.290  0.0320 -0.6401 -2.0741
 1057TIP3   OH224585   4.747   1.249   0.482  0.1492  0.0196 -0.4551
 1057TIP3    H124586   4.690   1.307   0.431  0.9054  0.1113 -1.2053
 1057TIP3    H224587   4.817   1.225   0.422  0.8726 -0.1485  0.4430
 1058TIP3   OH224588   2.095   6.180   1.510  0.2801  0.7451  0.3965
 1058TIP3    H124589   2.052   6.238   1.447 -1.6861 -0.1956  0.8338
 1058TIP3    H224590   2.159   6.131   1.457 -0.7614  0.5552 -0.7174
 1059TIP3   OH224591   2.260   6.559   2.931  0.3104 -0.7488 -0.1797
 1059TIP3    H124592   2.221   6.522   2.852 -0.0204 -0.5274 -0.1173
 1059TIP3    H224593   2.202   6.630   2.957  0.7814 -0.3806 -0.1229
 1060TIP3   OH224594   1.701   3.044   4.402  0.3500  0.6433 -0.4125
 1060TIP3    H124595   1.706   2.987   4.325  1.5533  0.1562  0.0079
 1060TIP3    H224596   1.651   3.119   4.373 -2.7463 -1.3798 -0.5042
 1061TIP3   OH224597   2.376   4.993   0.858  0.4977 -1.2495  0.0258
 1061TIP3    H124598   2.336   4.937   0.791  1.7933 -2.9983  0.6615
 1061TIP3    H224599   2.358   5.082   0.829 -0.5193 -1.9857 -1.6946
 1062TIP3   OH224600   4.838   1.758   0.537 -0.0690  0.1153  0.4937
 1062TIP3    H124601   4.913   1.757   0.596 -0.0832 -1.2261  0.4952
 1062TIP3    H224602   4.875   1.749   0.450 -0.2415 -0.9507  0.5214
 1063TIP3   OH224603   5.842   1.984  13.450 -0.4827 -0.1715  0.5979
 1063TIP3    H124604   5.751   1.978  13.477 -0.7454  0.2399 -0.1976
 1063TIP3    H224605   5.887   2.023  13.526 -1.2682  1.2551  0.3473
 1064TIP3   OH224606   5.769   2.944   0.333 -0.4536  0.2546  0.0192
 1064TIP3    H124607   5.755   3.038   0.348  0.7055  0.2484  1.3054
 1064TIP3    H224608   5.796   2.937   0.242 -2.8453  0.9047 -0.7555
 1065TIP3   OH224609   5.712   3.121  11.451 -0.9431  0.5688  0.0130
 1065TIP3    H124610   5.713   3.108  11.356 -0.6084  0.1871  0.0671
 1065TIP3    H224611   5.635   3.176  11.467 -1.3331  0.1550 -0.4153
 1066TIP3   OH224612   4.342   6.589   0.382  0.0433 -0.6583 -0.1403
 1066TIP3    H124613   4.297   6.506   0.363  0.7864 -0.8971 -0.8949
 1066TIP3    H224614   4.403   6.599   0.309  0.5434  0.1420  0.3961
 1067TIP3   OH224615   4.358   4.229   4.600  0.4223  0.6179 -0.7171
 1067TIP3    H124616   4.441   4.245   4.645  0.1720 -0.8664  0.3094
 1067TIP3    H224617   4.292   4.266   4.657  0.3269  1.2015 -1.2087
 1068TIP3   OH224618   5.780   2.354   0.349 -1.0260 -0.1910  0.0106
 1068TIP3    H124619   5.843   2.330   0.418  0.9549  2.5699 -0.7869
 1068TIP3    H224620   5.694   2.347   0.392 -0.3071 -4.4220  0.9933
 1069TIP3   OH224621   6.507   6.148  17.160 -0.1291 -0.5813 -0.6148
 1069TIP3    H124622   6.507   6.159  17.255 -1.4236  0.6017 -0.7443
 1069TIP3    H224623   6.415   6.134  17.137  0.4604 -3.5441 -1.4065
 1070TIP3   OH224624   5.396   4.945  13.992 -0.1007  0.7264 -0.1990
 1070TIP3    H124625   5.473   4.996  14.019  1.6325 -0.5985 -2.4890
 1070TIP3    H224626   5.413   4.921  13.901 -3.3279  0.5132 -0.8278
 1071TIP3   OH224627   2.667   3.425  13.540 -0.1063 -0.6657 -0.5291
 1071TIP3    H124628   2.586   3.443  13.492 -0.3403 -0.7497 -0.1650
 1071TIP3    H224629   2.717   3.506  13.533 -0.4517 -0.4332 -0.3009
 1072TIP3   OH224630   3.089   5.741   4.697  0.8749  0.1602 -0.0532
 1072TIP3    H124631   3.085   5.648   4.674  0.1405  0.5470 -1.5785
 1072TIP3    H224632   3.139   5.744   4.778 -1.1520 -1.8028  1.3313
 1073TIP3   OH224633   6.028   3.377  13.249 -0.3478 -0.4647 -0.4030
 1073TIP3    H124634   6.080   3.327  13.186  0.3308  1.7599 -1.6636
 1073TIP3    H224635   6.019   3.464  13.209  1.3951  1.4960  3.1879
 1074TIP3   OH224636   4.553   1.706   3.861 -0.5045  0.3420  0.3145
 1074TIP3    H124637   4.567   1.709   3.767 -1.3961  1.8235  0.2127
 1074TIP3    H224638   4.496   1.631   3.875  1.4321 -1.2415 -0.0626
 1075TIP3   OH224639   3.660   2.913   3.194  0.5795 -0.7490 -0.6355
 1075TIP3    H124640   3.653   2.830   3.146 -2.4850 -1.6978  1.2942
 1075TIP3    H224641   3.659   2.888   3.286  0.5097  1.4005 -0.0272
 1076TIP3   OH224642   3.666   0.392  13.192 -0.2384  0.3593 -0.8531
 1076TIP3    H124643   3.662   0.461  13.125  0.8629  1.4848  0.2079
 1076TIP3    H224644   3.630   0.433  13.271 -1.0633 -0.7948 -0.6206
 1077TIP3   OH224645   0.103   6.310   5.158 -0.6180 -0.0934 -0.1993
 1077TIP3    H124646   0.100   6.366   5.236 -0.0980 -0.4966  0.1172
 1077TIP3    H224647   0.021   6.260   5.162 -0.7496  0.1279 -0.0951
 1078TIP3   OH224648   6.722   5.456  12.291 -0.0647  0.8535 -0.7143
 1078TIP3    H124649   6.808   5.422  12.315 -0.6693  0.0439  0.3090
 1078TIP3    H224650   6.723   5.457  12.196  0.9930  0.6372 -0.7174
 1079TIP3   OH224651   2.274   2.911  11.362 -0.7838  0.0902  0.4916
 1079TIP3    H124652   2.238   2.823  11.371  1.3056 -0.7476  1.1530
 1079TIP3    H224653   2.301   2.917  11.271 -3.8983  1.2934 -0.4222
 1080TIP3   OH224654   0.578   0.465   0.582  0.3786  0.3946  0.1130
 1080TIP3    H124655   0.512   0.508   0.527  0.8825  1.2100  0.1348
 1080TIP3    H224656   0.655   0.456   0.525  0.3436 -0.2894  0.1724
 1081TIP3   OH224657   2.309   3.079   1.472 -0.4361  0.0620  0.0482
 1081TIP3    H124658   2.368   3.003   1.474 -0.2967  0.2003  1.9719
 1081TIP3    H224659   2.253   3.064   1.395  0.6091 -1.2062 -0.4820
 1082TIP3   OH224660   2.421   6.145  12.836 -0.1802  0.2613 -0.0079
 1082TIP3    H124661   2.378   6.230  12.848 -0.9321 -0.1633  0.3730
 1082TIP3    H224662   2.467   6.152  12.752 -0.5585  0.9121 -0.1598
 1083TIP3   OH224663   0.512   2.929  14.479  0.0655  0.0259 -0.0358
 1083TIP3    H124664   0.422   2.958  14.470 -0.4136 -1.1370  0.8523
 1083TIP3    H224665   0.547   2.979  14.553  0.1533  0.4567 -0.3639
 1084TIP3   OH224666   6.543   0.311   4.753  0.0783 -0.2414 -0.2917
 1084TIP3    H124667   6.617   0.290   4.811 -0.4687 -1.3058  0.0388
 1084TIP3    H224668   6.559   0.258   4.675  0.1133  0.1863 -0.5757
 1085TIP3   OH224669   1.274   0.296  16.828  0.4362  0.1331 -0.2844
 1085TIP3    H124670   1.213   0.224  16.845 -1.5793  1.9125  0.2269
 1085TIP3    H224671   1.274   0.305  16.732  0.9816 -0.7568 -0.3772
 1086TIP3   OH224672   0.093   1.913   6.268  0.2977 -0.2308 -0.1398
 1086TIP3    H124673   0.018   1.859   6.291 -0.1346  0.1941 -0.5284
 1086TIP3    H224674   0.110   1.966   6.345  0.6614 -0.8492  0.2072
 1087TIP3   OH224675   1.965   1.490  16.436 -0.0603  0.2201 -0.2789
 1087TIP3    H124676   2.006   1.469  16.520  2.1520  0.0604 -1.3488
 1087TIP3    H224677   2.022   1.558  16.399 -1.7857  1.2692 -1.0379
 1088TIP3   OH224678   6.649   3.876   1.876  0.6288 -0.4152 -0.0808
 1088TIP3    H124679   6.632   3.867   1.782 -1.7326 -2.6227  0.4801
 1088TIP3    H224680   6.672   3.787   1.905 -0.2240 -0.1008  1.6772
 1089TIP3   OH224681   5.938   4.052   2.637  0.1632  0.0812 -0.4351
 1089TIP3    H124682   5.895   4.132   2.606  0.8062  0.4841 -0.3234
 1089TIP3    H224683   6.014   4.042   2.579  0.3634 -0.1652 -0.1364
 1090TIP3   OH224684   2.113   6.567  13.293 -0.5565  0.1881  0.1774
 1090TIP3    H124685   2.164   6.647  13.285  0.0716 -0.1539  0.7527
 1090TIP3    H224686   2.094   6.559  13.387  0.2200 -0.8530  0.2458
 1091TIP3   OH224687   3.505   3.550  16.148 -0.0186  0.4980  0.0146
 1091TIP3    H124688   3.496   3.459  16.175  0.2012  0.3522 -0.3974
 1091TIP3    H224689   3.527   3.546  16.055 -0.9597  1.0061 -0.2307
 1092TIP3   OH224690   4.794   4.336   5.442  0.2648 -0.1641 -0.4950
 1092TIP3    H124691   4.751   4.392   5.507  0.2007  0.5739 -1.1649
 1092TIP3    H224692   4.829   4.398   5.377  0.9140 -0.8557 -0.8032
 1093TIP3   OH224693   5.501   5.010   5.416  0.2561 -0.1068  0.6283
 1093TIP3    H124694   5.552   4.967   5.348  2.2463  0.2046  1.8933
 1093TIP3    H224695   5.456   4.938   5.462 -0.9144 -0.3332 -0.8321
 1094TIP3   OH224696   2.889   3.572  11.299  0.1843 -0.0685  0.3617
 1094TIP3    H124697   2.955   3.504  11.301 -0.7636 -1.0249 -0.4302
 1094TIP3    H224698   2.921   3.636  11.236 -0.6653 -1.5855 -1.6307
 1095TIP3   OH224699   3.076   2.317  15.869 -0.4093 -0.1976  0.2957
 1095TIP3    H124700   3.162   2.282  15.893 -0.4540 -0.5310 -0.0248
 1095TIP3    H224701   3.086   2.412  15.876 -0.0252 -0.2378  0.3040
 1096TIP3   OH224702   4.740   6.687  15.837 -0.3099 -0.2149 -0.0733
 1096TIP3    H124703   4.834   6.705  15.830 -0.1305 -0.4387  1.4313
 1096TIP3    H224704   4.733   6.635  15.918 -1.4694 -2.0432 -1.3287
 1097TIP3   OH224705   1.485   1.177   1.098 -0.4689 -0.0299  0.3209
 1097TIP3    H124706   1.445   1.106   1.148  0.5786 -0.0199  1.2003
 1097TIP3    H224707   1.515   1.135   1.017 -0.3799 -0.4717  0.5790
 1098TIP3   OH224708   1.468   0.920   3.377  0.0686  1.0820  0.7142
 1098TIP3    H124709   1.548   0.970   3.361  0.0841  0.5442 -1.0204
 1098TIP3    H224710   1.500   0.835   3.408  0.2888 -0.0106 -2.4120
 1099TIP3   OH224711   5.181   5.772   4.733 -0.0315 -0.5664  0.2671
 1099TIP3    H124712   5.124   5.750   4.660 -0.0610  0.2206  0.0469
 1099TIP3    H224713   5.134   5.841   4.780  1.0945  0.6845 -0.3850
 1100TIP3   OH224714   4.341   1.413   5.508 -0.0799  0.2372 -0.1463
 1100TIP3    H124715   4.262   1.368   5.478  0.4810 -1.1204  0.3999
 1100TIP3    H224716   4.412   1.369   5.462  0.4078  1.2122 -0.3458
 1101TIP3   OH224717   2.085   3.135   2.602  0.2152  0.9330 -0.1067
 1101TIP3    H124718   2.155   3.147   2.538  0.1472  1.4218 -0.0950
 1101TIP3    H224719   2.065   3.042   2.600  1.3483  0.6724  0.3924
 1102TIP3   OH224720   1.476   3.650  11.672  0.2120 -0.5775 -0.1195
 1102TIP3    H124721   1.447   3.604  11.750  0.4422  0.1337  0.3828
 1102TIP3    H224722   1.550   3.703  11.701  0.2641 -0.2679 -0.8074
 1103TIP3   OH224723   5.014   2.411   0.407 -0.2316  0.5485 -0.7963
 1103TIP3    H124724   5.037   2.484   0.464 -1.6380  0.3611  0.0281
 1103TIP3    H224725   4.945   2.364   0.454 -0.4135 -0.4304 -2.0058
 1104TIP3   OH224726   0.355   2.942   2.842  0.0857 -0.1815 -0.4055
 1104TIP3    H124727   0.422   3.009   2.854 -2.3714  2.0949  1.3579
 1104TIP3    H224728   0.346   2.933   2.748  2.1523  0.1927 -0.6649
 1105TIP3   OH224729   3.598   6.051   4.062  0.2275  0.1220 -0.7345
 1105TIP3    H124730   3.535   6.123   4.063  1.2686  1.0516 -1.4890
 1105TIP3    H224731   3.676   6.088   4.022  1.0152 -1.2327 -0.4721
 1106TIP3   OH224732   3.158   0.728  12.430  0.9248 -0.3850 -0.4523
 1106TIP3    H124733   3.230   0.673  12.398  2.9780 -0.0389  3.3372
 1106TIP3    H224734   3.099   0.667  12.473  0.6952 -0.2211 -0.5371
 1107TIP3   OH224735   0.952   4.676   2.207  0.2742 -0.1753  0.2241
 1107TIP3    H124736   0.904   4.747   2.165  1.1602 -0.0449 -0.5851
 1107TIP3    H224737   0.910   4.666   2.292 -0.4877  0.6579 -0.0458
 1108TIP3   OH224738   1.624   4.080  12.013  0.1607 -0.0609 -0.5461
 1108TIP3    H124739   1.681   4.073  11.936 -1.1474 -1.3520 -1.4261
 1108TIP3    H224740   1.537   4.095  11.977 -0.3415  0.1472  0.7271
 1109TIP3   OH224741   1.922   4.359  12.537 -0.0446 -0.0585  0.1624
 1109TIP3    H124742   1.867   4.291  12.577  0.3606 -0.8267 -0.5751
 1109TIP3    H224743   1.994   4.311  12.497 -1.0339  0.5966 -2.4508
 1110TIP3   OH224744   0.293   4.196  11.891 -0.1683 -0.0133 -0.2738
 1110TIP3    H124745   0.246   4.224  11.812 -0.4703  1.0192  0.2628
 1110TIP3    H224746   0.384   4.184  11.862 -0.8034 -2.3653 -1.3950
 1111TIP3   OH224747   5.650   6.496  10.215 -0.1557 -0.0081  0.1274
 1111TIP3    H124748   5.573   6.535  10.173  0.7519  1.3523 -0.3049
 1111TIP3    H224749   5.706   6.470  10.142 -0.6924 -2.0356  0.4153
 1112TIP3   OH224750   4.869   5.156   0.065 -0.2233 -0.0069 -0.1533
 1112TIP3    H124751   4.903   5.071   0.094 -0.6420  0.1324  0.7409
 1112TIP3    H224752   4.934   5.187   0.002  0.7516 -0.2576  0.7161
 1113TIP3   OH224753   6.032   6.049  13.575  0.1773 -0.8539  0.5793
 1113TIP3    H124754   5.948   6.095  13.577 -0.4211 -1.9112  0.3536
 1113TIP3    H224755   6.030   6.000  13.492  1.3412 -0.2873  0.2065
 1114TIP3   OH224756   4.115   3.641  13.370  0.3620  0.4049 -0.0648
 1114TIP3    H124757   4.163   3.655  13.452  0.3241  2.0318 -0.3008
 1114TIP3    H224758   4.173   3.676  13.303 -0.3509  0.6515 -0.5520
 1115TIP3   OH224759   2.920   5.601  12.064  0.0642 -0.4109  0.2231
 1115TIP3    H124760   2.884   5.565  11.983  1.5972 -0.4591 -0.4379
 1115TIP3    H224761   2.945   5.524  12.116  0.9415 -0.3510 -0.1050
 1116TIP3   OH224762   4.761   5.791  15.571 -0.0296 -0.1259  0.1174
 1116TIP3    H124763   4.756   5.699  15.598 -0.5089 -0.0380  0.3210
 1116TIP3    H224764   4.724   5.792  15.483 -0.2326 -0.0886  0.2046
 1117TIP3   OH224765   3.399   5.906  16.782 -0.5463  0.3967 -0.5661
 1117TIP3    H124766   3.343   5.867  16.849 -0.8481  1.9742  0.1400
 1117TIP3    H224767   3.353   5.987  16.757 -0.7831 -0.4830 -3.1779
 1118TIP3   OH224768   3.081   6.520   5.335  0.2715  0.0143  0.1095
 1118TIP3    H124769   3.019   6.463   5.381 -0.8848  0.3920 -0.9604
 1118TIP3    H224770   3.167   6.497   5.372 -0.1441 -2.5970 -0.4707
 1119TIP3   OH224771   0.176   5.712   5.956 -0.1576 -0.2044 -0.1996
 1119TIP3    H124772   0.140   5.663   5.882  0.3864  0.9264 -1.2230
 1119TIP3    H224773   0.208   5.645   6.016  0.7805 -1.0971 -1.6857
 1120TIP3   OH224774   6.546   4.303   2.071 -0.1048  0.3647 -0.4250
 1120TIP3    H124775   6.623   4.325   2.018  0.7122  2.7035  1.6440
 1120TIP3    H224776   6.581   4.281   2.157 -1.6893  0.7591  0.3433
 1121TIP3   OH224777   4.447   1.587   2.705  0.4102  0.0840  0.6649
 1121TIP3    H124778   4.399   1.654   2.752  0.1559 -0.3861  1.0696
 1121TIP3    H224779   4.535   1.589   2.743  0.0938 -0.5634  1.4179
 1122TIP3   OH224780   0.632   2.369   4.209  0.4642 -0.4288 -0.0906
 1122TIP3    H124781   0.713   2.408   4.243 -0.6094  1.9976 -0.2268
 1122TIP3    H224782   0.572   2.372   4.283 -0.5276  0.8811 -0.9256
 1123TIP3   OH224783   5.854   1.417   0.441  0.5624 -0.2265  0.4374
 1123TIP3    H124784   5.786   1.427   0.374  0.5326  1.1678  0.6722
 1123TIP3    H224785   5.920   1.362   0.400  0.4129  0.3816 -0.6386
 1124TIP3   OH224786   5.013   0.008   1.291 -0.1602 -0.0921  0.0635
 1124TIP3    H124787   5.004  -0.087   1.290 -0.2007 -0.0897 -2.0626
 1124TIP3    H224788   5.091   0.023   1.345  0.3672 -1.3887 -0.3014
 1125TIP3   OH224789   4.305   2.728   0.088 -0.3920  0.1786 -0.5495
 1125TIP3    H124790   4.220   2.731   0.131  0.5148  1.1456  1.2543
 1125TIP3    H224791   4.368   2.721   0.160  1.0715 -0.1348 -1.8301
 1126TIP3   OH224792   3.925   4.460   3.978  0.5511 -0.0666 -0.3086
 1126TIP3    H124793   3.958   4.447   3.889  0.0606 -0.9769 -0.3640
 1126TIP3    H224794   3.967   4.390   4.029 -0.8595 -0.9006 -0.2687
 1127TIP3   OH224795   3.320   4.639   3.769  0.2094  0.4401 -0.1260
 1127TIP3    H124796   3.366   4.720   3.745 -2.0920  0.7985 -3.7371
 1127TIP3    H224797   3.279   4.659   3.853  0.1336  2.8626 -0.6897
 1128TIP3   OH224798   2.277   1.178  16.740 -0.6272  0.2321  0.2324
 1128TIP3    H124799   2.316   1.141  16.819  2.4229  1.0621 -0.7883
 1128TIP3    H224800   2.253   1.102  16.687 -0.5062 -0.3144  0.9593
 1129TIP3   OH224801   1.890   1.320  13.414 -0.0432  0.2371  0.3653
 1129TIP3    H124802   1.984   1.338  13.422 -0.1042 -0.3300  2.9282
 1129TIP3    H224803   1.884   1.225  13.421 -0.8003  0.2652  0.0907
 1130TIP3   OH224804   4.391   2.837  10.965  0.5895 -0.2167  0.1684
 1130TIP3    H124805   4.424   2.927  10.966  1.4385 -0.5275  0.0441
 1130TIP3    H224806   4.469   2.783  10.975  0.1704 -0.9699 -0.6590
 1131TIP3   OH224807   1.576   2.714  13.984  0.3675  0.1788  0.1847
 1131TIP3    H124808   1.502   2.774  13.981  0.4298  0.1980 -2.0952
 1131TIP3    H224809   1.652   2.771  13.993  0.3287  0.3837 -0.6958
 1132TIP3   OH224810   2.687   2.751  16.735  0.5075 -0.0962 -0.2798
 1132TIP3    H124811   2.687   2.769  16.641 -0.8558 -3.1482 -0.9569
 1132TIP3    H224812   2.773   2.713  16.752  1.4570  2.1964  0.1099
 1133TIP3   OH224813   4.390   2.159   0.337  0.0598 -0.0295  0.3153
 1133TIP3    H124814   4.425   2.099   0.271 -1.9746  0.8971 -1.6462
 1133TIP3    H224815   4.417   2.246   0.308  1.5016  0.1868  2.2120
 1134TIP3   OH224816   0.709   4.349   2.592 -0.0305  0.5475 -0.0484
 1134TIP3    H124817   0.745   4.263   2.613  0.8857  0.8490 -0.3714
 1134TIP3    H224818   0.634   4.330   2.535  0.0415 -0.0425  0.0497
 1135TIP3   OH224819   6.185   0.951  15.513 -0.1008 -0.1577  0.2001
 1135TIP3    H124820   6.218   0.923  15.427 -0.3975  0.3379 -0.0777
 1135TIP3    H224821   6.135   1.030  15.495 -0.6806 -0.3993  0.7480
 1136TIP3   OH224822   2.507   0.153   4.851 -0.4257 -0.4751  0.5644
 1136TIP3    H124823   2.557   0.187   4.777  0.7150  1.5379  2.2175
 1136TIP3    H224824   2.464   0.230   4.889 -1.5451 -1.5826  1.6015
 1137TIP3   OH224825   5.464   4.950   5.824 -0.0504 -0.1823 -0.4331
 1137TIP3    H124826   5.548   4.909   5.803  0.1650 -0.4842  0.9519
 1137TIP3    H224827   5.418   4.885   5.877 -1.4757 -0.3075 -1.8050
 1138TIP3   OH224828   4.034   1.521   0.612 -0.3360 -0.1960 -1.2780
 1138TIP3    H124829   4.088   1.593   0.580 -1.4045 -0.0708 -2.8616
 1138TIP3    H224830   3.947   1.538   0.577 -1.1579 -0.9844  0.3376
 1139TIP3   OH224831   2.283   4.298   0.813  0.3076 -0.0073  0.2148
 1139TIP3    H124832   2.311   4.241   0.741 -0.6654 -0.7276  0.3947
 1139TIP3    H224833   2.364   4.325   0.856  0.9051  0.4626 -1.1767
 1140TIP3   OH224834   4.875   2.710  13.536 -0.2465  0.3432 -0.2699
 1140TIP3    H124835   4.781   2.730  13.543 -0.0523  1.1600 -0.0232
 1140TIP3    H224836   4.912   2.785  13.490  0.6794  1.0946  1.6686
 1141TIP3   OH224837   1.997   4.317  12.108 -0.1070 -0.3083 -0.0824
 1141TIP3    H124838   1.935   4.330  12.180  0.8497  2.5659  0.3115
 1141TIP3    H224839   1.948   4.343  12.030  0.2576  1.1086  0.1292
 1142TIP3   OH224840   4.824   4.506   3.615 -0.1597 -0.1527 -0.1927
 1142TIP3    H124841   4.833   4.461   3.530  0.9157 -1.1113  0.4091
 1142TIP3    H224842   4.883   4.582   3.608  2.4436 -2.0020  0.8264
 1143TIP3   OH224843   4.362   2.152  16.827 -0.5486  0.0093  0.4120
 1143TIP3    H124844   4.307   2.170  16.750 -1.2348  0.9836  1.1244
 1143TIP3    H224845   4.331   2.213  16.893  0.3847 -0.4866  1.3127
 1144TIP3   OH224846   1.590   0.999  13.374  0.8820 -0.5808 -0.7249
 1144TIP3    H124847   1.579   1.073  13.315  0.7069 -0.7626 -0.9199
 1144TIP3    H224848   1.616   0.926  13.317  0.6664 -0.7671 -0.5850
 1145TIP3   OH224849   1.047   6.234  14.728  0.1011 -0.0073 -0.6318
 1145TIP3    H124850   1.000   6.178  14.790 -1.6514  0.6287 -1.3345
 1145TIP3    H224851   1.084   6.174  14.665 -2.0023 -0.4119 -1.5364
 1146TIP3   OH224852   4.011   0.910  11.350  0.1386  0.4684  1.0131
 1146TIP3    H124853   3.989   0.902  11.258  0.9114  0.7408  0.7940
 1146TIP3    H224854   4.094   0.862  11.359  0.2980  0.8240  1.4705
 1147TIP3   OH224855   2.377   0.025   4.624 -0.6883 -0.0209 -0.2636
 1147TIP3    H124856   2.412   0.004   4.710 -1.5928 -1.1275 -0.1538
 1147TIP3    H224857   2.317   0.097   4.638 -1.7397 -0.9823  0.2266
 1148TIP3   OH224858   4.273   5.213   3.189 -0.3218  0.2078 -0.5767
 1148TIP3    H124859   4.212   5.140   3.176 -0.7184  0.3684  0.3799
 1148TIP3    H224860   4.318   5.193   3.271  0.9561  0.0737 -1.2915
 1149TIP3   OH224861   4.893   4.219   6.693  0.4609  0.6065 -0.2014
 1149TIP3    H124862   4.925   4.135   6.660 -0.7386 -0.0025  0.1616
 1149TIP3    H224863   4.966   4.253   6.745  0.6788 -0.5707  0.2819
 1150TIP3   OH224864   2.384   0.934  12.044 -0.1062  0.1317 -0.1476
 1150TIP3    H124865   2.451   0.919  12.110 -1.1884  1.2085  1.2156
 1150TIP3    H224866   2.387   1.028  12.028 -1.6997  0.2772  0.3661
 1151TIP3   OH224867   3.593   1.505   0.119 -0.5022 -0.0386 -0.8198
 1151TIP3    H124868   3.677   1.549   0.127 -1.2798  1.6230 -1.4345
 1151TIP3    H224869   3.589   1.444   0.193  1.1529 -0.0158 -0.7105
 1152TIP3   OH224870   6.572   2.152  13.652 -0.0488 -0.1951  0.5638
 1152TIP3    H124871   6.571   2.057  13.657 -1.5307 -0.1738  1.0046
 1152TIP3    H224872   6.483   2.176  13.628  0.6196  1.0355 -0.7715
 1153TIP3   OH224873   2.316   5.704   0.628 -0.0798 -0.4764  0.2095
 1153TIP3    H124874   2.267   5.755   0.564 -0.2082 -0.8332  0.0212
 1153TIP3    H224875   2.385   5.763   0.658  0.3850 -0.5261 -0.7415
 1154TIP3   OH224876   4.098   1.984  16.589  0.7145  0.2057  0.2845
 1154TIP3    H124877   4.079   1.970  16.496 -1.7130 -0.8347  0.8775
 1154TIP3    H224878   4.063   2.071  16.608  1.3071  0.4623  0.1953
 1155TIP3   OH224879   0.101   0.345   0.423  0.2512 -0.1802 -0.1207
 1155TIP3    H124880   0.006   0.345   0.415  0.1701  0.3689  0.8433
 1155TIP3    H224881   0.131   0.289   0.351 -0.6489  1.8136 -2.1160
 1156TIP3   OH224882   4.296   4.849   3.527 -0.0042  0.2668 -0.4984
 1156TIP3    H124883   4.302   4.840   3.622  0.1618  1.6565 -0.3639
 1156TIP3    H224884   4.202   4.851   3.508 -0.0408  0.4105 -0.3084
 1157TIP3   OH224885   3.712   0.160  11.684 -0.2277  0.1420 -0.6462
 1157TIP3    H124886   3.620   0.141  11.702 -0.3880  1.8336  0.4116
 1157TIP3    H224887   3.734   0.232  11.743  0.9272  1.8158 -3.0350
 1158TIP3   OH224888   0.953   0.666   0.104 -0.1394  0.1245  0.1126
 1158TIP3    H124889   0.982   0.653   0.014  0.3862  2.1540 -0.0200
 1158TIP3    H224890   1.014   0.614   0.157 -0.4265 -1.0386 -0.6831
 1159TIP3   OH224891   5.723   3.520   3.318 -0.3388  0.4045  0.3206
 1159TIP3    H124892   5.740   3.598   3.266  0.1173 -0.8262 -1.3986
 1159TIP3    H224893   5.795   3.460   3.297  0.7080  0.4323  3.5187
 1160TIP3   OH224894   3.153   2.201   6.099  0.5710 -0.7782  0.5045
 1160TIP3    H124895   3.155   2.214   6.194 -2.0809 -0.8461  0.6309
 1160TIP3    H224896   3.113   2.114   6.088 -2.2806  0.5921 -0.6644
 1161TIP3   OH224897   1.000   2.519   6.045  0.6623  0.6509 -0.9858
 1161TIP3    H124898   0.982   2.485   6.132  1.2191  0.9237 -0.7635
 1161TIP3    H224899   1.046   2.448   6.001  0.7082  0.6518 -0.9386
 1162TIP3   OH224900   6.082   2.011   1.431 -0.3376 -0.9097 -0.1748
 1162TIP3    H124901   6.007   2.063   1.461  0.7011  1.2744 -1.2621
 1162TIP3    H224902   6.115   1.969   1.511 -2.0082 -0.9639  0.5062
 1163TIP3   OH224903   4.017   3.410  15.115 -0.3595  0.2813 -0.3240
 1163TIP3    H124904   3.944   3.354  15.142  1.2153 -1.5282  0.2669
 1163TIP3    H224905   4.041   3.458  15.194 -1.5111  1.6035 -0.7576
 1164TIP3   OH224906   6.692   4.707   6.521  0.3009 -0.3010  0.1675
 1164TIP3    H124907   6.683   4.801   6.535 -0.0345 -0.1173 -1.1913
 1164TIP3    H224908   6.746   4.677   6.593  1.6198  1.1749 -0.1894
 1165TIP3   OH224909   5.034   5.665   4.503  0.8221 -0.2120  0.5621
 1165TIP3    H124910   4.943   5.646   4.482  1.1626 -2.4462  0.9736
 1165TIP3    H224911   5.062   5.725   4.435 -0.0311 -2.0911 -1.5197
 1166TIP3   OH224912   6.684   0.741  16.623  0.0179  0.2445 -0.2933
 1166TIP3    H124913   6.723   0.790  16.696 -1.5601 -0.6366  1.1670
 1166TIP3    H224914   6.668   0.807  16.556  2.6999  0.8574 -0.3827
 1167TIP3   OH224915   4.877   4.690  16.133  0.7501  0.1411 -0.0359
 1167TIP3    H124916   4.889   4.746  16.056 -3.1066 -2.7083 -2.9467
 1167TIP3    H224917   4.957   4.638  16.137  1.2026  0.6459 -1.8551
 1168TIP3   OH224918   1.628   5.606   5.429 -0.0333  0.3542 -0.1351
 1168TIP3    H124919   1.683   5.624   5.352  0.3200 -0.8282 -0.1716
 1168TIP3    H224920   1.670   5.653   5.500 -0.3249  1.4119 -0.6461
 1169TIP3   OH224921   5.789   0.970  12.428 -0.2137  0.1894  0.1162
 1169TIP3    H124922   5.789   1.055  12.384  0.0059  0.5219  0.7557
 1169TIP3    H224923   5.725   0.918  12.379 -1.8022  1.3414  0.9240
 1170TIP3   OH224924   5.717   4.786  11.605 -0.0027  0.5517 -0.1989
 1170TIP3    H124925   5.660   4.783  11.681 -1.2264 -0.7101 -1.1353
 1170TIP3    H224926   5.795   4.832  11.635 -1.3127  1.8872  1.2287
 1171TIP3   OH224927   0.489   6.391   2.597  0.4472  0.3045  0.4517
 1171TIP3    H124928   0.574   6.424   2.568 -0.4413  2.7436  0.5440
 1171TIP3    H224929   0.456   6.340   2.523  1.1065  1.0500 -0.3660
 1172TIP3   OH224930   1.479   3.050  15.592  0.2638 -0.1840  0.0783
 1172TIP3    H124931   1.535   3.027  15.518  0.1382  2.8290 -0.9790
 1172TIP3    H224932   1.399   3.083  15.553  0.3870  1.9050  1.5135
 1173TIP3   OH224933   1.613   2.573   0.037 -0.0024  0.1115 -0.2587
 1173TIP3    H124934   1.619   2.528  -0.047 -0.6579  3.9984 -2.4679
 1173TIP3    H224935   1.703   2.573   0.070  0.3624 -0.8891 -1.2081
 1174TIP3   OH224936   2.682   4.112   1.698  0.0050  0.0883  0.1582
 1174TIP3    H124937   2.716   4.098   1.610 -1.8571 -3.2488 -0.1283
 1174TIP3    H224938   2.758   4.103   1.756  0.8366  0.0174 -0.9435
 1175TIP3   OH224939   0.444   0.591   0.388  0.6533  0.4097 -0.0607
 1175TIP3    H124940   0.483   0.673   0.358 -0.5036  0.5785 -1.1200
 1175TIP3    H224941   0.486   0.523   0.334  0.6983  0.4167 -0.0352
 1176TIP3   OH224942   4.422   0.815  15.497  0.1784 -0.5469  0.6395
 1176TIP3    H124943   4.364   0.833  15.571 -1.3223  0.3641 -0.7141
 1176TIP3    H224944   4.398   0.726  15.469 -0.3023 -0.3156  0.3157
 1177TIP3   OH224945   1.865   4.377   1.314  0.0792 -0.5264 -0.4831
 1177TIP3    H124946   1.934   4.443   1.310  1.7563 -2.1109  1.2015
 1177TIP3    H224947   1.800   4.413   1.374  1.8830 -1.1746  1.9057
 1178TIP3   OH224948   1.309   5.014   2.823 -0.1543  0.3781  0.2957
 1178TIP3    H124949   1.330   5.011   2.916  0.3714 -0.2567  0.1559
 1178TIP3    H224950   1.342   5.100   2.794 -1.4861  1.1320  0.9655
 1179TIP3   OH224951   2.330   5.849  15.403 -0.1977 -0.8204  0.0270
 1179TIP3    H124952   2.283   5.916  15.353 -0.3762 -0.4959  0.6171
 1179TIP3    H224953   2.391   5.811  15.341  0.0882  0.0706 -0.2536
 1180TIP3   OH224954   1.550   5.757   2.388  0.3776  0.0061 -0.4706
 1180TIP3    H124955   1.566   5.828   2.325 -0.7375  0.1123 -0.6521
 1180TIP3    H224956   1.477   5.789   2.442 -0.3524 -1.1256 -0.7620
 1181TIP3   OH224957   2.298   0.931   0.877  0.3563 -0.3048 -0.0630
 1181TIP3    H124958   2.359   0.973   0.937 -0.0949 -0.8752  0.7979
 1181TIP3    H224959   2.244   1.003   0.844  0.3424 -0.0488  0.5155
 1182TIP3   OH224960   4.202   0.030  11.021 -1.0804  0.2933  0.5599
 1182TIP3    H124961   4.142  -0.019  10.965 -2.1657 -0.4177  2.2693
 1182TIP3    H224962   4.282   0.039  10.970 -0.8917 -3.1936  0.1278
 1183TIP3   OH224963   3.159   2.572  16.279 -0.0833  0.2653 -0.1415
 1183TIP3    H124964   3.207   2.493  16.252 -1.0975 -0.4247  0.0374
 1183TIP3    H224965   3.070   2.541  16.298 -0.2582  1.3047  0.8034
 1184TIP3   OH224966   1.727   5.847   0.464  0.8937  0.1530 -0.1411
 1184TIP3    H124967   1.791   5.896   0.515 -1.3805  2.2070  0.8606
 1184TIP3    H224968   1.676   5.798   0.529 -1.1272  1.7210 -0.4637
 1185TIP3   OH224969   5.814   1.275   4.309  0.3307 -0.2044  0.5012
 1185TIP3    H124970   5.837   1.218   4.383 -0.7443 -2.7063 -1.0551
 1185TIP3    H224971   5.728   1.310   4.332 -0.7259 -2.2320 -0.2409
 1186TIP3   OH224972   1.336   6.391   2.890 -0.3318  0.0800 -0.4146
 1186TIP3    H124973   1.288   6.439   2.823 -1.3886  0.6423  0.7337
 1186TIP3    H224974   1.305   6.428   2.973  0.3787 -1.1517  0.4130
 1187TIP3   OH224975   3.957   5.999  11.999 -0.2439  0.5404  0.6970
 1187TIP3    H124976   4.018   5.980  12.070  0.2587 -2.0918 -0.4053
 1187TIP3    H224977   3.926   5.913  11.970 -1.6217  1.6602 -1.2622
 1188TIP3   OH224978   3.019   2.157   5.764 -0.0593  0.3000 -0.2015
 1188TIP3    H124979   3.052   2.246   5.747  0.3244 -0.0160 -1.1528
 1188TIP3    H224980   3.086   2.117   5.820 -0.1110  0.5342  0.0268
 1189TIP3   OH224981   5.457   0.528  14.514 -0.3997 -0.6479 -0.2582
 1189TIP3    H124982   5.431   0.577  14.592 -0.2426 -1.8418  0.5498
 1189TIP3    H224983   5.428   0.583  14.441  0.8186  1.2096  0.6126
 1190TIP3   OH224984   6.475   6.233   2.814 -0.1915 -0.2309 -0.2897
 1190TIP3    H124985   6.562   6.255   2.848  0.3275 -2.9599  0.2181
 1190TIP3    H224986   6.476   6.264   2.723  1.2505 -0.1069 -0.2383
 1191TIP3   OH224987   1.590   5.700  15.142 -0.2170 -0.1272 -0.2401
 1191TIP3    H124988   1.580   5.727  15.051 -2.3278  0.9897  0.3013
 1191TIP3    H224989   1.503   5.711  15.180  0.3926 -1.6522  1.6328
 1192TIP3   OH224990   6.045   5.701  12.108 -0.3723  0.4230  0.6465
 1192TIP3    H124991   5.992   5.732  12.182 -1.2628  0.0907  0.1547
 1192TIP3    H224992   6.135   5.722  12.133 -0.7749  1.4202  1.2819
 1193TIP3   OH224993   1.946   6.117  13.660 -0.1020 -0.6090  0.2169
 1193TIP3    H124994   1.966   6.209  13.677  1.6639 -0.4171 -2.5597
 1193TIP3    H224995   2.021   6.070  13.696  0.2416 -0.7405 -0.6574
 1194TIP3   OH224996   6.030   6.473  10.700  0.5534  0.3302 -0.6034
 1194TIP3    H124997   6.045   6.502  10.790 -0.2684  0.1381 -0.4015
 1194TIP3    H224998   5.937   6.491  10.684  0.6149  0.0488 -1.2956
 1195TIP3   OH224999   4.881   6.435  17.192  0.7194  0.3391 -0.5052
 1195TIP3    H125000   4.871   6.377  17.266 -1.5101  0.9784 -0.2646
 1195TIP3    H225001   4.959   6.488  17.212 -0.4567  1.2251  1.8859
 1196TIP3   OH225002   2.776   6.343   0.150 -0.4144  0.1629  0.4895
 1196TIP3    H125003   2.770   6.325   0.244 -1.1123  0.2616  0.4619
 1196TIP3    H225004   2.686   6.361   0.123 -0.1194  0.7959 -0.0701
 1197TIP3   OH225005   6.603   2.961  11.285 -0.2111  0.1541  0.1775
 1197TIP3    H125006   6.533   2.902  11.258  1.8653 -1.0206 -2.9376
 1197TIP3    H225007   6.628   3.007  11.204  3.7591 -0.7699  0.7789
 1198TIP3   OH225008   5.406   5.541   2.592 -0.0895 -0.7239  0.5225
 1198TIP3    H125009   5.416   5.633   2.566 -0.1891 -0.6961  0.5805
 1198TIP3    H225010   5.407   5.543   2.687  0.1106 -0.8068  0.5228
 1199TIP3   OH225011   1.758   6.102  16.140  0.1946  0.1073 -0.0106
 1199TIP3    H125012   1.731   6.082  16.051  1.7110 -0.6196 -0.3110
 1199TIP3    H225013   1.675   6.109  16.189 -0.6130 -0.0134 -1.3454
 1200TIP3   OH225014   1.306   2.461   0.054  0.2092 -0.5674  0.2735
 1200TIP3    H125015   1.278   2.384   0.103  0.5565  0.1218  1.5696
 1200TIP3    H225016   1.400   2.449   0.042  0.3151 -0.2016  0.7349
 1201TIP3   OH225017   3.388   1.387  12.352  0.1757  0.2908  0.0828
 1201TIP3    H125018   3.333   1.409  12.277  0.4150  0.6227  0.0069
 1201TIP3    H225019   3.391   1.466  12.404 -1.1442 -0.3551  1.1760
 1202TIP3   OH225020   4.233   4.342  13.720 -0.4443 -0.2173  0.1723
 1202TIP3    H125021   4.200   4.263  13.762 -1.3356 -0.0419 -0.1788
 1202TIP3    H225022   4.191   4.344  13.634 -2.1812  1.7684  1.0195
 1203TIP3   OH225023   0.010   1.408  16.626 -0.0900 -0.3086 -0.2085
 1203TIP3    H125024   0.035   1.316  16.622  0.6280 -0.2172  1.7914
 1203TIP3    H225025  -0.064   1.415  16.566  1.7066 -1.5445 -2.6423
 1204TIP3   OH225026   5.533   1.777  14.458  0.5846 -0.1431  0.0656
 1204TIP3    H125027   5.488   1.847  14.504  1.1001 -1.1120  2.1209
 1204TIP3    H225028   5.523   1.798  14.365 -1.3426  1.3235  0.5860
 1205TIP3   OH225029   4.031   4.008   0.566 -0.2281 -0.0735  0.6887
 1205TIP3    H125030   3.976   3.964   0.501  1.3513  1.4360 -1.7984
 1205TIP3    H225031   4.114   3.961   0.563  0.1807  0.6186  0.8385
 1206TIP3   OH225032   5.361   0.959  17.230 -0.5603  0.4307  0.0085
 1206TIP3    H125033   5.290   0.925  17.284 -1.1823  1.3162 -0.2406
 1206TIP3    H225034   5.424   0.995  17.293 -0.6359  0.2211  0.2004
 1207TIP3   OH225035   6.162   0.406  12.456 -0.1293  0.0182  0.2651
 1207TIP3    H125036   6.093   0.352  12.417 -0.7831 -0.4847  2.0237
 1207TIP3    H225037   6.190   0.356  12.533  1.8141  0.4858 -0.1099
 1208TIP3   OH225038   1.268   1.050  13.557  0.5294 -0.6590 -0.0061
 1208TIP3    H125039   1.338   1.057  13.621  1.1104 -0.7424 -0.6200
 1208TIP3    H225040   1.236   1.139  13.547  1.0725 -0.4916 -0.2911
 1209TIP3   OH225041   1.471   4.477  15.605  0.3772  0.0239  0.0917
 1209TIP3    H125042   1.496   4.486  15.697 -0.3603 -1.0797  0.4048
 1209TIP3    H225043   1.384   4.437  15.608  0.7079 -0.7792 -1.1051
 1210TIP3   OH225044   3.189   0.839   1.514  0.4105 -0.2735 -0.3190
 1210TIP3    H125045   3.222   0.929   1.518  1.5785 -0.7097  0.2168
 1210TIP3    H225046   3.100   0.847   1.480  1.0986  0.9392 -1.8897
 1211TIP3   OH225047   5.864   4.545   5.086 -0.5358  0.0110  0.1018
 1211TIP3    H125048   5.854   4.562   4.992 -0.2918  0.5727  0.1760
 1211TIP3    H225049   5.779   4.569   5.123 -0.3308  0.6768  0.1484
 1212TIP3   OH225050   1.889   5.544   4.309 -0.0379  0.3485  0.1236
 1212TIP3    H125051   1.880   5.486   4.385  0.4564  0.3118  0.1536
 1212TIP3    H225052   1.929   5.489   4.242  0.8376  0.7783  0.2943
 1213TIP3   OH225053   3.642   3.200  12.290  0.0553 -0.6808  0.5164
 1213TIP3    H125054   3.701   3.273  12.307 -1.1961  0.3730  0.3333
 1213TIP3    H225055   3.555   3.233  12.312 -0.6949 -1.6281 -0.9866
 1214TIP3   OH225056   4.617   4.019   4.294  0.2332  0.0202  0.1351
 1214TIP3    H125057   4.531   3.986   4.271 -0.9867  1.9328  1.7253
 1214TIP3    H225058   4.679   3.957   4.255 -1.7424  0.7126 -4.3651
 1215TIP3   OH225059   5.287   2.907  12.061 -0.3366  0.0979  0.2321
 1215TIP3    H125060   5.365   2.963  12.063 -0.3010  0.0201  1.6238
 1215TIP3    H225061   5.290   2.864  11.975  0.9295  0.3997  0.1148
 1216TIP3   OH225062   5.536   1.560   0.785 -0.3287 -0.2096  0.2275
 1216TIP3    H125063   5.441   1.559   0.774 -0.0613 -1.2115 -2.2585
 1216TIP3    H225064   5.553   1.636   0.841 -2.5262  0.4713 -0.0079
 1217TIP3   OH225065   3.003   6.375  16.606  0.7052  0.0781  0.2016
 1217TIP3    H125066   2.921   6.333  16.580  0.6519 -1.4240  2.6248
 1217TIP3    H225067   2.998   6.381  16.701  3.2187  0.3417  0.3604
 1218TIP3   OH225068   5.691   3.413  13.744  0.0982  0.0213  0.0539
 1218TIP3    H125069   5.712   3.338  13.800 -0.8791 -1.9668 -2.1535
 1218TIP3    H225070   5.654   3.374  13.664 -1.5070  2.9167 -0.6848
 1219TIP3   OH225071   5.048   3.578  14.312 -0.8417 -0.4027  0.3488
 1219TIP3    H125072   5.124   3.636  14.326 -1.1900 -0.2293  1.5792
 1219TIP3    H225073   5.071   3.528  14.234  0.2413  0.1427  0.2986
 1220TIP3   OH225074   5.177   4.247  12.504 -0.3868  0.3047  0.7566
 1220TIP3    H125075   5.106   4.229  12.442 -0.1681  0.1547  0.5502
 1220TIP3    H225076   5.176   4.172  12.564 -1.2556  0.9399  1.5453
 1221TIP3   OH225077   2.780   5.650   5.951 -0.1930  0.0528  0.9392
 1221TIP3    H125078   2.875   5.658   5.962 -0.2731  2.0727  0.2885
 1221TIP3    H225079   2.744   5.688   6.031 -0.4811  1.1632  0.2925
 1222TIP3   OH225080   4.761   3.803  15.060  0.1954  0.4485  0.0548
 1222TIP3    H125081   4.712   3.872  15.014 -2.2105  0.6179  2.7740
 1222TIP3    H225082   4.710   3.723  15.045  1.3558 -0.1891 -0.5625
 1223TIP3   OH225083   2.940   3.576   5.576  0.1127  0.3178 -0.1402
 1223TIP3    H125084   3.024   3.619   5.592  0.0279  0.2090  0.5946
 1223TIP3    H225085   2.919   3.532   5.658  0.9112 -2.3606 -1.3222
 1224TIP3   OH225086   5.467   0.436  15.982 -0.3881 -0.1461 -0.1313
 1224TIP3    H125087   5.499   0.349  16.002 -0.7237 -0.3345 -0.4119
 1224TIP3    H225088   5.400   0.453  16.047  0.3636  0.3034  0.5401
 1225TIP3   OH225089   5.590   4.098  16.025 -0.0747  0.4977  0.3566
 1225TIP3    H125090   5.600   4.056  16.110  0.8627 -0.1062 -0.0449
 1225TIP3    H225091   5.565   4.027  15.966 -0.6521  0.8985  0.1119
 1226TIP3   OH225092   6.428   5.152  14.248  0.0386 -0.7868  0.2278
 1226TIP3    H125093   6.511   5.150  14.202  0.0463 -0.8125  0.2429
 1226TIP3    H225094   6.396   5.061  14.243 -0.9341 -0.3744 -1.5214
 1227TIP3   OH225095   2.263   3.728   3.529  0.3487  0.8337 -0.2350
 1227TIP3    H125096   2.179   3.759   3.496 -0.2939 -0.1383  0.4499
 1227TIP3    H225097   2.328   3.766   3.470 -0.6198  1.0427 -1.1787
 1228TIP3   OH225098   2.404   2.930   4.298  0.7565  0.0633  0.2996
 1228TIP3    H125099   2.327   2.874   4.285  1.2567 -0.3155 -1.0859
 1228TIP3    H225100   2.458   2.882   4.361 -0.8170  1.0394  2.4761
 1229TIP3   OH225101   3.190   1.908   5.393 -0.3453  0.1305  0.8072
 1229TIP3    H125102   3.201   1.876   5.304 -0.5534 -1.2808  1.2646
 1229TIP3    H225103   3.203   2.002   5.387 -1.4051  0.1944 -0.8897
 1230TIP3   OH225104   5.443   3.038  14.876  0.0799 -0.3665 -0.2019
 1230TIP3    H125105   5.529   3.004  14.901  0.6144  0.4978 -0.8303
 1230TIP3    H225106   5.434   3.012  14.784 -0.4049 -0.5902 -0.0923
 1231TIP3   OH225107   0.789   0.794   4.485 -0.0513  0.1640  0.1608
 1231TIP3    H125108   0.801   0.820   4.576 -0.1075 -0.6762  0.4163
 1231TIP3    H225109   0.712   0.843   4.455 -0.6322 -0.3046  0.8679
 1232TIP3   OH225110   4.426   1.347  16.776  0.0561  0.4729 -0.5331
 1232TIP3    H125111   4.457   1.257  16.781 -1.3231  0.0784  1.4121
 1232TIP3    H225112   4.494   1.393  16.727 -0.0682 -1.9845 -3.1669
 1233TIP3   OH225113   6.206   1.211   4.313 -0.1117 -0.3605  0.7636
 1233TIP3    H125114   6.262   1.210   4.391  0.3840  0.2679  0.4265
 1233TIP3    H225115   6.190   1.304   4.296  0.1465 -0.4757 -0.1354
 1234TIP3   OH225116   4.750   1.419   5.981  0.1946  0.1263  0.0836
 1234TIP3    H125117   4.703   1.401   6.062  0.7956  0.1294  0.4417
 1234TIP3    H225118   4.805   1.342   5.968 -0.4264 -0.1757 -0.6974
 1235TIP3   OH225119   0.618   4.312   4.178 -0.0923 -0.1199  0.1103
 1235TIP3    H125120   0.648   4.268   4.099  2.1964  1.4686  0.0616
 1235TIP3    H225121   0.522   4.301   4.176 -0.0417 -0.4574 -2.6319
 1236TIP3   OH225122   2.734   0.935   5.913  0.2435  0.0338  0.0992
 1236TIP3    H125123   2.687   0.938   5.996  0.7421  1.3398  0.3573
 1236TIP3    H225124   2.801   1.003   5.921  2.8174 -2.4043  0.1184
 1237TIP3   OH225125   5.529   6.323  11.038 -0.0931  0.0508  0.2340
 1237TIP3    H125126   5.502   6.309  10.947  0.6065  1.4861 -0.1925
 1237TIP3    H225127   5.589   6.251  11.057 -0.4022 -0.3645 -0.3647
 1238TIP3   OH225128   0.296   5.016  14.961  0.1889  0.5840  0.1404
 1238TIP3    H125129   0.228   4.969  14.912  1.4306 -0.9568 -0.1432
 1238TIP3    H225130   0.334   5.077  14.897  0.3387  0.1232 -0.2100
 1239TIP3   OH225131   3.617   2.453  14.271 -0.1815  0.2213 -0.4715
 1239TIP3    H125132   3.673   2.527  14.246 -0.0257  0.0581 -0.6007
 1239TIP3    H225133   3.645   2.431  14.360  1.2098 -1.0393 -1.1993
 1240TIP3   OH225134   1.240   0.804   3.511  0.1542  0.1690 -0.2931
 1240TIP3    H125135   1.161   0.832   3.465 -1.0186 -1.7326  0.5240
 1240TIP3    H225136   1.306   0.869   3.487 -1.9023  2.3622 -0.2086
 1241TIP3   OH225137   2.055   3.965  15.896 -0.5753 -0.2717 -0.1149
 1241TIP3    H125138   2.092   4.045  15.933 -3.8211  0.4559  1.7026
 1241TIP3    H225139   2.014   3.994  15.814 -0.0717 -0.4432 -0.4287
 1242TIP3   OH225140   4.794   2.128  11.927  0.4809 -0.2669 -0.3346
 1242TIP3    H125141   4.730   2.104  11.994 -0.2976 -2.2541 -1.7393
 1242TIP3    H225142   4.742   2.165  11.855  1.3410  2.2287  0.2602
 1243TIP3   OH225143   5.885   3.485  16.659  0.3960  0.1419 -0.1417
 1243TIP3    H125144   5.846   3.487  16.746  1.0918 -0.6529  0.1882
 1243TIP3    H225145   5.957   3.423  16.666 -2.5576 -3.8411 -2.4981
 1244TIP3   OH225146   0.184   6.538   6.176 -0.2325  0.0107 -0.1494
 1244TIP3    H125147   0.169   6.627   6.144 -1.2422  0.0707  0.4647
 1244TIP3    H225148   0.147   6.482   6.107 -1.3020  0.1119  0.3382
 1245TIP3   OH225149   3.251   3.478  16.304 -0.4593  0.0975  1.0035
 1245TIP3    H125150   3.258   3.388  16.273 -0.0672 -0.2533  2.1087
 1245TIP3    H225151   3.224   3.528  16.226 -0.5208 -0.9374  0.3531
 1246TIP3   OH225152   3.271   4.767   1.759  0.0827 -0.0127  0.0967
 1246TIP3    H125153   3.313   4.726   1.684  1.1307  1.9754 -0.4481
 1246TIP3    H225154   3.337   4.826   1.794 -1.6727  1.9428  0.2368
 1247TIP3   OH225155   5.384   6.581  16.783  0.2221 -0.2256  0.0656
 1247TIP3    H125156   5.477   6.576  16.762  0.4311  1.5041  0.4485
 1247TIP3    H225157   5.381   6.584  16.879 -0.2075 -0.1473  0.0527
 1248TIP3   OH225158   1.562   3.276  17.192 -0.5772 -0.0555 -0.2029
 1248TIP3    H125159   1.631   3.252  17.131  1.1694  0.2392  1.5865
 1248TIP3    H225160   1.498   3.205  17.187 -0.0773 -0.4067 -1.7694
 1249TIP3   OH225161   3.211   0.331   1.707  0.1517  0.3031 -0.3614
 1249TIP3    H125162   3.161   0.412   1.718 -2.0207 -1.0391  0.1638
 1249TIP3    H225163   3.237   0.331   1.614 -2.1613  0.3569 -1.0473
 1250TIP3   OH225164   3.472   1.153  14.258  0.1394  0.1684  0.0164
 1250TIP3    H125165   3.394   1.123  14.212  0.9081  0.2017 -1.3421
 1250TIP3    H225166   3.468   1.248  14.253  1.0521  0.1522 -1.4493
 1251TIP3   OH225167   0.645   1.383   3.838  0.2829  0.1867 -0.3875
 1251TIP3    H125168   0.550   1.385   3.825  0.2050  0.4618  0.1864
 1251TIP3    H225169   0.659   1.437   3.916  0.7023 -1.6882  0.8610
 1252TIP3   OH225170   3.663   0.147   3.376 -0.3606  0.2068 -0.5585
 1252TIP3    H125171   3.730   0.202   3.416 -0.1576 -1.1952  1.0393
 1252TIP3    H225172   3.599   0.132   3.446 -1.7052  0.4538 -1.6940
 1253TIP3   OH225173   2.000   2.708  14.343  0.2406 -0.2733 -0.3664
 1253TIP3    H125174   1.990   2.672  14.431 -0.7802 -1.9584 -1.1541
 1253TIP3    H225175   2.060   2.782  14.355 -0.6075  0.1069  1.8941
 1254TIP3   OH225176   2.946   3.139   5.916 -0.3295 -0.4072  0.2220
 1254TIP3    H125177   2.996   3.057   5.911  1.2316  0.5424 -0.2990
 1254TIP3    H225178   3.006   3.201   5.958 -1.6001  0.3838  0.8871
 1255TIP3   OH225179   1.144   0.637   0.553 -0.2698 -0.1777  0.6209
 1255TIP3    H125180   1.132   0.727   0.524 -0.0520 -0.4673 -0.3812
 1255TIP3    H225181   1.199   0.643   0.631 -0.3493  0.5602  0.6190
 1256TIP3   OH225182   4.390   0.570   0.570  0.1457 -0.1348 -0.0482
 1256TIP3    H125183   4.360   0.525   0.491  0.8942  0.6878 -0.8225
 1256TIP3    H225184   4.319   0.559   0.633 -1.0628  0.3943 -1.2996
 1257TIP3   OH225185   0.426   5.170  14.326 -0.0216 -0.2396  0.4119
 1257TIP3    H125186   0.367   5.112  14.374 -0.8817  0.7204  0.5294
 1257TIP3    H225187   0.507   5.120  14.316 -0.2787 -0.9272  1.7397
 1258TIP3   OH225188   3.567   6.324  15.832 -0.3268  0.3149  0.2907
 1258TIP3    H125189   3.620   6.364  15.762 -1.3548 -1.4057 -1.5166
 1258TIP3    H225190   3.591   6.373  15.911  1.7666  1.5060 -1.0359
 1259TIP3   OH225191   4.672   4.473   2.702 -0.0403 -0.1930  0.0013
 1259TIP3    H125192   4.656   4.480   2.796  1.1039  0.8194  0.1333
 1259TIP3    H225193   4.737   4.540   2.683 -0.2164 -0.4173 -1.5145
 1260TIP3   OH225194   6.263   2.603  16.925  0.3305 -0.1059  0.0323
 1260TIP3    H125195   6.330   2.622  16.860 -0.5711 -1.1520 -1.2189
 1260TIP3    H225196   6.269   2.675  16.987  1.7279  0.4944 -0.7749
 1261TIP3   OH225197   3.106   0.770   3.852  0.2925 -0.1775 -0.6363
 1261TIP3    H125198   3.062   0.853   3.837  0.1915 -0.3246 -1.1697
 1261TIP3    H225199   3.083   0.716   3.776 -0.9537 -1.2548  0.5019
 1262TIP3   OH225200   0.974   1.124   5.078 -0.2144 -0.1942 -0.1123
 1262TIP3    H125201   0.892   1.115   5.126  1.6960 -3.1940  2.8009
 1262TIP3    H225202   1.010   1.208   5.106 -0.8252 -0.2831  0.9536
 1263TIP3   OH225203   1.435   2.835  15.974 -0.4448 -0.3706  0.6564
 1263TIP3    H125204   1.347   2.837  15.937 -0.5186 -0.5821  0.8179
 1263TIP3    H225205   1.493   2.844  15.899 -0.6282  1.8254  0.7338
 1264TIP3   OH225206   3.773   1.810  16.489 -0.2253 -0.3073 -0.0097
 1264TIP3    H125207   3.758   1.898  16.455 -1.2427 -0.4262  0.1170
 1264TIP3    H225208   3.847   1.777  16.437  0.1104  0.5830 -0.1079
 1265TIP3   OH225209   0.484   2.380   0.145 -0.2494 -0.6160  0.0264
 1265TIP3    H125210   0.559   2.360   0.088 -0.2159 -0.0977 -0.1140
 1265TIP3    H225211   0.457   2.295   0.180  0.4570 -0.7913  0.1424
 1266TIP3   OH225212   3.113   0.641  14.521  0.0208  0.2413 -0.2233
 1266TIP3    H125213   3.147   0.599  14.600 -0.9506  0.6313  0.4048
 1266TIP3    H225214   3.189   0.685  14.483  0.4945  0.0407  0.4863
 1267TIP3   OH225215   0.493   1.602  14.109  0.1130 -0.2231 -0.5456
 1267TIP3    H125216   0.507   1.513  14.143 -0.2687 -0.5130 -1.1341
 1267TIP3    H225217   0.558   1.655  14.154  0.4937 -0.8452 -0.3506
 1268TIP3   OH225218   1.918   6.514   4.557 -0.2266 -0.1413  0.2762
 1268TIP3    H125219   1.944   6.423   4.574  1.5441  0.0192 -1.3342
 1268TIP3    H225220   2.001   6.561   4.548 -1.0943  1.1070 -1.5582
 1269TIP3   OH225221   0.819   1.342  12.809 -0.2030 -0.4314 -0.1459
 1269TIP3    H125222   0.842   1.431  12.781 -0.8123 -0.5896 -1.1491
 1269TIP3    H225223   0.748   1.316  12.751 -0.4586 -1.3407  0.5630
 1270TIP3   OH225224   0.672   0.356   0.997 -0.5981  0.2493 -0.8831
 1270TIP3    H125225   0.587   0.366   0.954 -1.5675 -0.3541  0.8466
 1270TIP3    H225226   0.668   0.269   1.038  0.1193  0.9633  0.7500
 1271TIP3   OH225227   3.554   4.806  16.301  0.1879 -0.1106  0.0177
 1271TIP3    H125228   3.558   4.874  16.234  0.5737  0.1467  0.3006
 1271TIP3    H225229   3.591   4.728  16.259  3.8382  0.9936  1.0656
 1272TIP3   OH225230   0.206   0.825   2.945 -0.5883  0.5358  0.7250
 1272TIP3    H125231   0.273   0.760   2.925 -1.4568  0.0317 -0.6505
 1272TIP3    H225232   0.254   0.906   2.957  0.2557  0.2142 -0.4242
 1273TIP3   OH225233   3.923   0.280  12.101 -0.7067  0.0128  0.4430
 1273TIP3    H125234   3.889   0.210  12.157  1.0053  0.3349  1.9333
 1273TIP3    H225235   3.976   0.235  12.035 -1.1591 -0.2323  0.2486
 1274TIP3   OH225236   0.358   1.521  14.907 -0.3556 -0.5967  0.0939
 1274TIP3    H125237   0.360   1.452  14.840 -1.0008 -0.5721  0.0441
 1274TIP3    H225238   0.294   1.584  14.874  1.0127  0.5686 -0.3837
 1275TIP3   OH225239   3.987   0.946   3.338  0.2873 -0.4569  0.2425
 1275TIP3    H125240   4.013   0.992   3.258 -0.2389  1.8029  1.3339
 1275TIP3    H225241   4.068   0.907   3.371  0.8679  0.1777 -0.4057
 1276TIP3   OH225242   5.891   0.316  12.435  0.3080  0.2020  0.0570
 1276TIP3    H125243   5.820   0.289  12.378  1.4019 -0.7030 -0.9093
 1276TIP3    H225244   5.878   0.410  12.446 -0.1754  0.3161 -1.3357
 1277TIP3   OH225245   1.238   2.710   4.068 -0.4814 -0.0775  0.3789
 1277TIP3    H125246   1.297   2.663   4.008  0.5599  0.7870  0.7075
 1277TIP3    H225247   1.155   2.663   4.062  0.2417 -1.3252 -0.0970
 1278TIP3   OH225248   5.071   2.233  10.691 -0.0161 -0.9088  0.4480
 1278TIP3    H125249   5.166   2.236  10.694  0.0527 -0.6814 -1.2910
 1278TIP3    H225250   5.042   2.317  10.725  0.4534 -0.4552 -0.2619
 1279TIP3   OH225251   6.289   3.324   5.188  0.2642 -0.4768 -0.4079
 1279TIP3    H125252   6.313   3.404   5.141  1.2308 -0.6724 -0.2655
 1279TIP3    H225253   6.280   3.258   5.119 -0.0692 -0.3538 -0.4824
 1280TIP3   OH225254   3.313   5.365  11.264 -0.3392  0.0815 -0.2332
 1280TIP3    H125255   3.302   5.381  11.357 -0.1897 -0.1187 -0.1802
 1280TIP3    H225256   3.343   5.448  11.228  1.7963 -0.4595  0.2687
 1281TIP3   OH225257   1.639   2.861  16.401 -0.3363 -0.1975 -0.1479
 1281TIP3    H125258   1.602   2.909  16.475 -1.5587 -0.4387 -0.5741
 1281TIP3    H225259   1.699   2.923  16.359  2.0259 -0.7586  2.2629
 1282TIP3   OH225260   4.530   4.682   5.046 -0.0365  0.2217  0.1347
 1282TIP3    H125261   4.587   4.725   4.982 -1.3055  1.0786 -0.4442
 1282TIP3    H225262   4.512   4.596   5.008 -0.1087  0.4141 -0.2685
 1283TIP3   OH225263   1.268   3.515   3.306 -0.3104  0.2084  0.1224
 1283TIP3    H125264   1.288   3.441   3.363 -1.2966 -0.0590  0.1313
 1283TIP3    H225265   1.245   3.475   3.222 -1.9984  0.4459  0.4641
 1284TIP3   OH225266   5.576   5.157   0.370  0.6123 -0.3607 -0.7181
 1284TIP3    H125267   5.584   5.214   0.293  0.8277  2.0373  1.0329
 1284TIP3    H225268   5.627   5.201   0.438 -1.3577 -1.2969  1.4334
 1285TIP3   OH225269   2.284   6.369  15.100  0.3418  0.3499  0.0142
 1285TIP3    H125270   2.353   6.304  15.114  0.0255  0.1793  0.7827
 1285TIP3    H225271   2.235   6.372  15.182 -0.2149  0.8939 -0.3229
 1286TIP3   OH225272   6.206   6.020  11.215 -0.3231 -0.2491 -0.1470
 1286TIP3    H125273   6.288   5.989  11.178  0.0951 -0.2648  0.7766
 1286TIP3    H225274   6.227   6.102  11.258 -1.1241  0.5589 -1.2595
 1287TIP3   OH225275   1.036   2.564   1.471 -0.2595  0.0916  0.1002
 1287TIP3    H125276   1.103   2.545   1.537 -0.9496 -1.8779  0.2341
 1287TIP3    H225277   1.052   2.656   1.448  3.1971 -0.6243 -0.6732
 1288TIP3   OH225278   0.170   1.697  11.909 -0.9493  0.0070 -0.6243
 1288TIP3    H125279   0.177   1.601  11.905  0.5142  0.0377  0.4606
 1288TIP3    H225280   0.206   1.727  11.826 -0.0812 -0.3492 -0.3857
 1289TIP3   OH225281   0.534   5.438  16.121 -0.6588  0.5139 -0.5517
 1289TIP3    H125282   0.525   5.507  16.187  0.3727  1.0726 -0.9805
 1289TIP3    H225283   0.487   5.363  16.157 -1.2393  1.2354  0.2091
 1290TIP3   OH225284   2.616   2.269  11.738 -0.3178 -0.2246 -0.0228
 1290TIP3    H125285   2.535   2.218  11.748 -0.6261 -0.2429 -2.1853
 1290TIP3    H225286   2.631   2.269  11.643  1.6662  0.6481  0.2816
 1291TIP3   OH225287   6.275   2.513   3.209  0.1348  0.1095  0.0131
 1291TIP3    H125288   6.351   2.544   3.258  0.7753 -1.6485  0.1719
 1291TIP3    H225289   6.302   2.427   3.176 -2.0216 -0.8159  0.6245
 1292TIP3   OH225290   4.788   1.645  13.954 -0.1984  0.0954  0.3304
 1292TIP3    H125291   4.719   1.677  13.896  2.0261  0.3879 -2.2731
 1292TIP3    H225292   4.754   1.563  13.989 -2.6768  1.2647  0.7261
 1293TIP3   OH225293   0.274   5.389   2.745  0.0635  0.0068  0.0657
 1293TIP3    H125294   0.352   5.422   2.789  0.1609 -3.2457  2.5575
 1293TIP3    H225295   0.297   5.300   2.718 -2.1443 -0.3328 -0.8551
 1294TIP3   OH225296   1.787   3.738   2.450  0.3817 -0.0480 -0.0293
 1294TIP3    H125297   1.708   3.689   2.428  1.0721 -0.3941 -1.8398
 1294TIP3    H225298   1.856   3.672   2.453  0.8819  0.4735 -0.0055
 1295TIP3   OH225299   5.373   0.807  15.732  0.8738  0.3629 -0.0161
 1295TIP3    H125300   5.366   0.796  15.827  0.0000  0.9226 -0.0046
 1295TIP3    H225301   5.463   0.837  15.718  1.5264 -1.3106  0.4697
 1296TIP3   OH225302   3.339   2.391  13.066 -0.1697  0.3622 -0.1737
 1296TIP3    H125303   3.270   2.339  13.024 -0.5563  1.0000 -0.3410
 1296TIP3    H225304   3.337   2.365  13.158 -0.6774  0.4205 -0.1668
 1297TIP3   OH225305   2.816   6.137   0.638  0.1843 -0.4510  0.3372
 1297TIP3    H125306   2.887   6.084   0.674  1.7917  0.9941 -0.6145
 1297TIP3    H225307   2.753   6.145   0.710  1.9265 -0.0950  1.8512
 1298TIP3   OH225308   2.267   2.176  12.809 -0.5201  0.2121  0.7329
 1298TIP3    H125309   2.187   2.129  12.785 -0.9516  0.7351  1.1266
 1298TIP3    H225310   2.246   2.268  12.792  0.3422  0.2549 -0.1040
 1299TIP3   OH225311   6.524   3.003   5.555  0.5642 -0.0707 -0.0599
 1299TIP3    H125312   6.478   3.021   5.638  2.1381 -0.0228  0.8185
 1299TIP3    H225313   6.475   3.054   5.490  0.0378  0.8789  1.0463
 1300TIP3   OH225314   0.408   5.779   3.931  0.0443  0.2238 -0.0362
 1300TIP3    H125315   0.477   5.781   3.997 -0.4721  1.8676  0.4787
 1300TIP3    H225316   0.340   5.836   3.966 -0.1988  1.1974 -2.0416
 1301TIP3   OH225317   4.398   6.194  13.198 -0.0714 -0.9838  0.0493
 1301TIP3    H125318   4.459   6.161  13.132  1.7736  1.1537  0.6259
 1301TIP3    H225319   4.454   6.223  13.270 -1.8277  0.1427  0.9861
 1302TIP3   OH225320   4.896   2.094  15.542  0.7994 -0.4144  0.3104
 1302TIP3    H125321   4.874   2.030  15.609 -0.5081 -0.4948 -0.1864
 1302TIP3    H225322   4.959   2.153  15.585 -1.1334  0.4188  2.0986
 1303TIP3   OH225323   0.242   3.831   3.158 -0.0778 -0.6093 -0.1842
 1303TIP3    H125324   0.204   3.765   3.101  0.1786 -1.2748  0.4161
 1303TIP3    H225325   0.215   3.806   3.246  0.1377  0.0066  0.0638
 1304TIP3   OH225326   3.749   1.555  12.879 -0.2446 -0.6051 -0.1495
 1304TIP3    H125327   3.783   1.482  12.931  0.1332 -0.5523 -0.3205
 1304TIP3    H225328   3.656   1.536  12.869 -0.0688 -1.2682 -0.5358
 1305TIP3   OH225329   2.723   3.594  11.837 -0.2122  0.1467 -0.2193
 1305TIP3    H125330   2.747   3.631  11.922 -0.3614  1.6423 -0.8303
 1305TIP3    H225331   2.786   3.630  11.776  0.0252 -1.0964 -0.7283
 1306TIP3   OH225332   2.220   2.440  16.217 -0.1172  0.4612 -0.0628
 1306TIP3    H125333   2.221   2.346  16.201 -0.9039  0.4351  0.0435
 1306TIP3    H225334   2.313   2.465  16.219  0.2125 -0.7863  2.7692
 1307TIP3   OH225335   1.422   4.612  15.845 -0.2310  0.2295  0.0191
 1307TIP3    H125336   1.517   4.603  15.848 -0.3486 -1.1571 -0.2866
 1307TIP3    H225337   1.407   4.682  15.781  0.5409 -0.4772 -0.9559
 1308TIP3   OH225338   5.791   6.047   2.270 -0.5180 -0.3043 -0.3694
 1308TIP3    H125339   5.738   6.115   2.310  0.3778  0.4297 -0.4135
 1308TIP3    H225340   5.804   6.077   2.180  1.4095  0.3934  0.1146
 1309TIP3   OH225341   2.040   6.632   0.746 -0.3384  0.0987  0.3459
 1309TIP3    H125342   2.069   6.581   0.671 -1.9019 -0.9399  0.4120
 1309TIP3    H225343   2.007   6.567   0.808 -0.3965  1.0384  1.3181
 1310TIP3   OH225344   3.630   5.221  13.742 -0.1199  0.2459 -0.5314
 1310TIP3    H125345   3.611   5.128  13.752 -0.4800  0.4725  0.9375
 1310TIP3    H225346   3.582   5.247  13.663 -3.0648  0.0172  1.1345
 1311TIP3   OH225347   3.737   6.265  12.707 -0.5506 -0.3310 -0.2049
 1311TIP3    H125348   3.709   6.174  12.698  0.9553 -1.1497  2.7723
 1311TIP3    H225349   3.689   6.298  12.783  0.0726  0.9016 -0.3303
 1312TIP3   OH225350   4.451   3.475   4.124 -0.5263 -0.2981  0.4267
 1312TIP3    H125351   4.511   3.450   4.194  0.2818 -0.2052 -0.2119
 1312TIP3    H225352   4.494   3.550   4.081 -2.3029  1.4129  1.5212
 1313TIP3   OH225353   2.046   4.716   0.538  0.0121  0.3721 -0.0283
 1313TIP3    H125354   2.047   4.631   0.581 -0.5680 -0.5398 -1.7709
 1313TIP3    H225355   1.967   4.759   0.570  1.2982  1.0775  2.3389
 1314TIP3   OH225356   6.605   1.846   2.004  0.1454  0.0734  0.0710
 1314TIP3    H125357   6.574   1.756   1.995 -1.7553  0.8001 -1.0970
 1314TIP3    H225358   6.566   1.892   1.929  1.0386  1.8756  0.6831
 1315TIP3   OH225359   5.397   1.805  11.323  0.1364 -0.8771 -0.6605
 1315TIP3    H125360   5.378   1.857  11.244 -0.4127 -1.4369 -0.8987
 1315TIP3    H225361   5.312   1.775  11.353  0.2928 -0.2330  0.4576
 1316TIP3   OH225362   0.200   1.049   4.344 -0.2419  0.4274 -0.3169
 1316TIP3    H125363   0.139   1.076   4.413  0.4686 -0.2102  0.5870
 1316TIP3    H225364   0.268   1.115   4.345  0.4935 -0.3269  0.5671
 1317TIP3   OH225365   3.950   2.653  13.324 -0.4411 -0.0004 -0.2948
 1317TIP3    H125366   3.899   2.576  13.350 -0.2809  0.0932  0.3050
 1317TIP3    H225367   3.915   2.724  13.378 -0.6788  0.3828 -0.9397
 1318TIP3   OH225368   4.393   1.054   4.987  0.1505  0.3927 -0.3815
 1318TIP3    H125369   4.458   1.011   5.043 -0.8001 -1.3078 -0.5747
 1318TIP3    H225370   4.445   1.105   4.925  1.3555 -1.8002 -1.2241
 1319TIP3   OH225371   3.210   0.069  13.486 -0.1985  1.0209  0.3950
 1319TIP3    H125372   3.121   0.036  13.492  0.8469 -2.2801 -1.0484
 1319TIP3    H225373   3.229   0.070  13.392  1.6689  0.5543  0.7497
 1320TIP3   OH225374   0.585   4.062   1.802  0.0890  0.1775 -0.1641
 1320TIP3    H125375   0.593   3.968   1.785 -0.8327  0.0634 -0.0097
 1320TIP3    H225376   0.492   4.075   1.823  0.5773  0.8158  1.7087
 1321TIP3   OH225377   1.676   5.457   0.976  0.0851 -0.6632  0.7240
 1321TIP3    H125378   1.604   5.403   0.945 -0.3533  0.8957 -1.0911
 1321TIP3    H225379   1.733   5.396   1.023 -0.3714 -2.7178 -1.2824
 1322TIP3   OH225380   5.416   2.187  12.419  0.6512  0.0512  0.1957
 1322TIP3    H125381   5.338   2.181  12.474  0.1055 -0.0599 -0.5808
 1322TIP3    H225382   5.483   2.226  12.476 -0.1710  0.8121  0.6527
 1323TIP3   OH225383   2.052   5.133  14.434  0.2747 -0.4378  0.7805
 1323TIP3    H125384   1.995   5.117  14.510  1.0100 -1.0244  1.2130
 1323TIP3    H225385   2.111   5.203  14.463 -1.0029  1.0220 -0.0842
 1324TIP3   OH225386   2.346   3.701   3.815  0.9221 -0.4654  0.8228
 1324TIP3    H125387   2.415   3.635   3.822  2.2555  0.8444  0.3069
 1324TIP3    H225388   2.333   3.712   3.721  3.1170  2.4316  0.8004
 1325TIP3   OH225389   3.792   2.564   2.022 -0.7830  0.1937  0.0305
 1325TIP3    H125390   3.764   2.648   2.059 -3.2035 -0.3027 -0.5664
 1325TIP3    H225391   3.813   2.583   1.930  0.6134  0.5062  0.4000
 1326TIP3   OH225392   6.121   0.030  11.557  0.5840 -0.2338 -0.4812
 1326TIP3    H125393   6.165   0.114  11.573 -1.0101  0.8354 -1.4475
 1326TIP3    H225394   6.183  -0.036  11.586  1.6204  1.3102  0.9219
 1327TIP3   OH225395   4.123   3.138   1.285 -0.2935  0.0036 -0.4288
 1327TIP3    H125396   4.095   3.114   1.373  0.8758 -2.2335 -0.6204
 1327TIP3    H225397   4.217   3.121   1.284 -0.2930  0.0356 -2.0939
 1328TIP3   OH225398   1.498   4.341  17.043  0.5372  0.6184  0.0102
 1328TIP3    H125399   1.527   4.346  17.134 -0.0175 -0.0171  0.2303
 1328TIP3    H225400   1.556   4.276  17.003  0.1396  0.1579  0.1720
 1329TIP3   OH225401   6.314   1.767  12.366 -0.2811  0.2481 -0.4130
 1329TIP3    H125402   6.379   1.697  12.367 -0.8706 -0.3130 -0.6967
 1329TIP3    H225403   6.318   1.802  12.277 -1.2772 -0.6556 -0.8182
 1330TIP3   OH225404   0.888   3.438   2.713  0.1870  0.0426  0.0979
 1330TIP3    H125405   0.846   3.523   2.723 -0.9102 -0.7767  2.8804
 1330TIP3    H225406   0.959   3.453   2.651  0.6091  3.2057  1.2810
 1331TIP3   OH225407   6.394   6.170   5.524 -0.1935  0.2276  0.0363
 1331TIP3    H125408   6.428   6.259   5.523 -1.4938  0.7374  0.4332
 1331TIP3    H225409   6.471   6.115   5.507  0.4518  1.4662 -1.1935
 1332TIP3   OH225410   0.951   4.407   0.751  0.2541 -0.1863  0.1321
 1332TIP3    H125411   0.887   4.455   0.805  1.1949 -0.3230  1.3968
 1332TIP3    H225412   0.898   4.344   0.702 -0.7004  0.3573  0.4392
 1333TIP3   OH225413   3.079   2.974  10.738  0.1112  0.2675 -0.3470
 1333TIP3    H125414   2.999   2.940  10.698 -1.8697  2.2788  1.7927
 1333TIP3    H225415   3.114   2.900  10.788  0.1621 -0.9026 -2.0534
 1334TIP3   OH225416   3.622   6.297   1.825 -0.4671  0.1643  0.5010
 1334TIP3    H125417   3.668   6.226   1.870  0.7957  2.0060  2.1780
 1334TIP3    H225418   3.600   6.359   1.894 -0.0483  2.2257 -1.1769
 1335TIP3   OH225419   5.234   2.313  15.931  0.3920 -0.0495 -0.8520
 1335TIP3    H125420   5.322   2.293  15.898  1.0129 -0.9311  1.3040
 1335TIP3    H225421   5.237   2.406  15.955  1.6751 -0.8154  2.0709
 1336TIP3   OH225422   1.368   5.066  16.771 -0.0485  0.2923 -0.6923
 1336TIP3    H125423   1.390   5.048  16.679  1.5196  0.1955 -0.3084
 1336TIP3    H225424   1.396   5.157  16.784  2.0481 -0.4819  0.3750
 1337TIP3   OH225425   1.932   2.109   0.518  0.4005  0.2736  0.2586
 1337TIP3    H125426   1.929   2.025   0.472  0.2529  0.0798  0.6214
 1337TIP3    H225427   1.881   2.169   0.462  0.2233  0.0393  0.1706
 1338TIP3   OH225428   4.783   0.683   2.785 -0.1951 -0.6102 -0.3765
 1338TIP3    H125429   4.846   0.727   2.728 -1.8359  3.2676  0.6261
 1338TIP3    H225430   4.816   0.697   2.873 -1.6212  0.1629  0.0631
 1339TIP3   OH225431   1.743   4.865  14.658 -0.0314 -0.0037  0.2325
 1339TIP3    H125432   1.771   4.863  14.750  0.0479  1.7235  0.2655
 1339TIP3    H225433   1.824   4.858  14.608  0.0786  0.6425  0.3121
 1340TIP3   OH225434   0.188   5.127   1.813  0.3781  0.0549  0.2552
 1340TIP3    H125435   0.183   5.067   1.738  0.1472  0.7338 -0.2750
 1340TIP3    H225436   0.216   5.210   1.776  0.1606  0.4239  0.9084
 1341TIP3   OH225437   4.319   1.845   3.307 -0.0455 -0.0735 -0.0907
 1341TIP3    H125438   4.266   1.902   3.362  0.6324  0.6690 -0.2000
 1341TIP3    H225439   4.345   1.773   3.364 -0.0874  0.2335  0.3121
 1342TIP3   OH225440   1.794   5.905   5.862 -0.2162  0.0453 -0.2481
 1342TIP3    H125441   1.778   5.892   5.955 -0.6743 -3.8503 -0.7670
 1342TIP3    H225442   1.871   5.962   5.858 -0.1308  0.1649  2.4916
 1343TIP3   OH225443   3.809   0.036  13.868 -0.0845  0.1857 -0.1792
 1343TIP3    H125444   3.841  -0.050  13.841 -1.6039 -0.7922  1.0333
 1343TIP3    H225445   3.715   0.024  13.882 -0.4760  2.2646 -0.8310
 1344TIP3   OH225446   1.649   1.968   3.306  0.4409  0.0742 -0.3825
 1344TIP3    H125447   1.699   1.988   3.227  0.7624  2.3681  0.3472
 1344TIP3    H225448   1.635   2.053   3.347  1.5620 -1.2173  2.8191
 1345TIP3   OH225449   0.520   2.196   0.467  0.4418 -0.1133  0.1834
 1345TIP3    H125450   0.594   2.254   0.456  0.8791 -0.8353 -0.7688
 1345TIP3    H225451   0.542   2.143   0.544  0.8758 -0.2506 -0.0313
 1346TIP3   OH225452   0.970   5.333  12.583  0.3728  0.0369 -0.2363
 1346TIP3    H125453   0.886   5.297  12.614 -0.0933  0.7967 -0.6022
 1346TIP3    H225454   0.962   5.428  12.597  1.7521 -0.0264  1.1256
 1347TIP3   OH225455   6.080   6.242   5.527  0.6724  0.5536 -0.1187
 1347TIP3    H125456   6.021   6.296   5.475  1.8944  1.5690 -0.4789
 1347TIP3    H225457   6.101   6.295   5.603  0.6176 -0.0597  0.3276
 1348TIP3   OH225458   5.391   1.853   2.150 -0.1776 -0.4259 -0.0244
 1348TIP3    H125459   5.307   1.849   2.195 -0.3580 -1.6355 -0.4459
 1348TIP3    H225460   5.440   1.778   2.184 -0.1969 -1.1608 -1.5729
 1349TIP3   OH225461   0.825   6.076   3.017 -0.0608  0.3932  0.2806
 1349TIP3    H125462   0.875   6.026   3.081  1.2906  1.0226 -0.2765
 1349TIP3    H225463   0.737   6.038   3.021 -0.0702  0.6185  2.6949
 1350TIP3   OH225464   0.844   1.654   4.524 -0.0053 -0.1102 -0.4625
 1350TIP3    H125465   0.884   1.613   4.601  0.0452  0.9587  0.0803
 1350TIP3    H225466   0.916   1.701   4.482 -0.4429  0.8493 -0.1340
 1351TIP3   OH225467   6.159   5.042   0.766  0.0372 -0.4782 -0.0497
 1351TIP3    H125468   6.108   5.050   0.847  0.3111 -0.3261  0.1098
 1351TIP3    H225469   6.099   5.071   0.697  0.2614  0.7811  0.2664
 1352TIP3   OH225470   2.174   2.232   3.776 -0.3048  0.4944  0.1802
 1352TIP3    H125471   2.248   2.171   3.786 -0.4983  0.0263 -1.1342
 1352TIP3    H225472   2.210   2.317   3.798  0.3653  0.1219  0.5527
 1353TIP3   OH225473   5.819   2.784  16.276  0.1792  0.4796  0.1994
 1353TIP3    H125474   5.820   2.734  16.195 -0.0750  0.8306 -0.0223
 1353TIP3    H225475   5.775   2.866  16.253  2.8916  1.9250 -0.0952
 1354TIP3   OH225476   2.447   1.872   4.104 -0.6958  0.8549  0.2456
 1354TIP3    H125477   2.355   1.897   4.109 -0.5881  1.5180 -1.0452
 1354TIP3    H225478   2.495   1.952   4.122 -0.3554  0.3595  1.6228
 1355TIP3   OH225479   0.730   0.056   4.619 -0.4708 -0.1428  1.0733
 1355TIP3    H125480   0.751   0.117   4.548  1.6513 -1.1657  0.8032
 1355TIP3    H225481   0.704   0.113   4.692 -1.1045  0.9691  0.0105
 1356TIP3   OH225482   5.856   5.356   2.780  0.3696  0.6482 -0.5360
 1356TIP3    H125483   5.800   5.329   2.853  0.4140  1.9423 -0.0076
 1356TIP3    H225484   5.810   5.431   2.741  2.4773  2.7801  0.9186
 1357TIP3   OH225485   4.359   1.124  15.748 -0.4674  0.2219  0.0247
 1357TIP3    H125486   4.303   1.053  15.779 -0.5738  0.2530 -0.0985
 1357TIP3    H225487   4.365   1.184  15.822  2.5075 -1.6561  1.4041
 1358TIP3   OH225488   2.769   0.763   2.022  0.4313 -1.4296 -0.6885
 1358TIP3    H125489   2.767   0.837   1.961  0.0317 -0.2168  0.7696
 1358TIP3    H225490   2.725   0.692   1.974 -1.4968  0.0249 -1.1583
 1359TIP3   OH225491   5.071   5.312   4.087 -0.2194 -0.2830  0.0619
 1359TIP3    H125492   5.031   5.238   4.040  0.5375 -1.5447  1.3683
 1359TIP3    H225493   5.160   5.316   4.054  0.7771 -2.1042  2.3649
 1360TIP3   OH225494   3.529   3.610  11.094 -0.7475 -0.3151 -0.3303
 1360TIP3    H125495   3.603   3.670  11.083 -0.0944 -1.0328  0.0496
 1360TIP3    H225496   3.557   3.530  11.048 -0.7162 -1.0529  0.9513
 1361TIP3   OH225497   3.294   0.722   1.143  0.0062  0.6471 -0.4793
 1361TIP3    H125498   3.247   0.800   1.171  1.9110  1.8851 -0.5925
 1361TIP3    H225499   3.241   0.649   1.175 -0.4345  1.9985  2.0184
 1362TIP3   OH225500   0.654   6.468  15.584 -0.3853 -0.4047  0.0842
 1362TIP3    H125501   0.732   6.421  15.612 -0.8162 -0.7725  0.6680
 1362TIP3    H225502   0.642   6.537  15.649  0.4226  0.7192 -0.9405
 1363TIP3   OH225503   2.888   3.343  11.809  0.1459  0.4854 -0.1837
 1363TIP3    H125504   2.861   3.356  11.900 -0.3314 -0.0654 -0.2384
 1363TIP3    H225505   2.867   3.426  11.765 -2.5107 -0.2774 -0.4509
 1364TIP3   OH225506   5.661   0.035  10.750  0.0094  0.1181  0.1900
 1364TIP3    H125507   5.631   0.023  10.660  0.7884  1.4958 -0.2664
 1364TIP3    H225508   5.727  -0.034  10.762 -2.2659 -2.0225  0.7501
 1365TIP3   OH225509   5.019   3.234   0.221 -0.0244 -0.2071 -0.7361
 1365TIP3    H125510   4.997   3.297   0.290  0.4303  1.3881 -2.0178
 1365TIP3    H225511   4.935   3.204   0.188 -0.2594 -2.1143  1.4960
 1366TIP3   OH225512   0.554   1.645  10.599 -0.3505 -0.1556 -0.2676
 1366TIP3    H125513   0.595   1.732  10.596  0.4679 -0.5696 -1.7104
 1366TIP3    H225514   0.515   1.634  10.512  0.2972 -1.5843 -0.3942
 1367TIP3   OH225515   0.088   2.775  12.061 -0.2818  0.2654  0.0444
 1367TIP3    H125516   0.123   2.780  12.150  2.2505 -2.1760 -0.7584
 1367TIP3    H225517   0.153   2.821  12.008 -0.0835 -1.2054 -0.9925
 1368TIP3   OH225518   3.979   0.417   5.597  0.3632 -0.9814  0.5077
 1368TIP3    H125519   4.036   0.366   5.654  0.8522 -0.5241  0.4307
 1368TIP3    H225520   3.891   0.402   5.631  0.3808 -2.6848 -0.1148
 1369TIP3   OH225521   0.152   1.972   5.944  0.1815  0.5368 -0.2915
 1369TIP3    H125522   0.165   1.907   5.875 -3.9739 -0.8032  0.0916
 1369TIP3    H225523   0.177   2.055   5.903  1.3696 -0.7097 -2.1740
 1370TIP3   OH225524   3.589   0.747   0.791  0.2110  0.7151  0.1814
 1370TIP3    H125525   3.545   0.701   0.720 -0.2314  0.4499  0.6269
 1370TIP3    H225526   3.519   0.795   0.835  0.5834  1.4034  0.0410
 1371TIP3   OH225527   3.269   4.752   0.893 -0.0286  0.0167  0.7183
 1371TIP3    H125528   3.193   4.809   0.904 -0.5642 -1.1512  3.5040
 1371TIP3    H225529   3.340   4.810   0.866 -1.1002  1.6358  1.3653
 1372TIP3   OH225530   6.774   0.021  12.165  0.4525 -0.6054  0.0962
 1372TIP3    H125531   6.764  -0.036  12.088  0.8065 -0.3949 -0.1033
 1372TIP3    H225532   6.689   0.064  12.174  1.3404  1.6553 -1.9884
 1373TIP3   OH225533   5.837   6.513  11.958  0.6744  0.7000  0.4609
 1373TIP3    H125534   5.811   6.471  11.876  1.9785  2.7142 -1.0169
 1373TIP3    H225535   5.834   6.442  12.022 -1.5942 -0.6294 -1.0460
 1374TIP3   OH225536   0.855   0.027  16.251 -0.6052  0.3225 -0.3354
 1374TIP3    H125537   0.814  -0.014  16.175  0.6979 -1.3974 -0.1383
 1374TIP3    H225538   0.940  -0.017  16.259 -0.9539  0.0826  2.4421
 1375TIP3   OH225539   1.340   4.732  11.914  0.5693  0.4678 -0.1173
 1375TIP3    H125540   1.348   4.813  11.964  0.7807  0.1611  0.3469
 1375TIP3    H225541   1.328   4.761  11.824  0.6757  1.0151  0.0417
 1376TIP3   OH225542   5.189   4.432   1.846 -0.3305 -0.2961 -0.1275
 1376TIP3    H125543   5.097   4.440   1.870 -0.6228 -1.4879 -0.7822
 1376TIP3    H225544   5.237   4.477   1.915 -1.3882  0.0017  0.4137
 1377TIP3   OH225545   0.120   4.150  15.804 -0.1899  0.0938  0.0671
 1377TIP3    H125546   0.121   4.142  15.899 -0.8088 -1.2408 -0.0305
 1377TIP3    H225547   0.105   4.061  15.772  0.7652  0.4080 -1.3024
 1378TIP3   OH225548   4.047   5.006  14.588  0.0818  0.1709  0.1832
 1378TIP3    H125549   4.019   4.946  14.518 -0.8054  0.4009  0.3323
 1378TIP3    H225550   3.968   5.017  14.642  0.0977  1.8583 -0.1139
 1379TIP3   OH225551   1.173   3.827   5.709 -0.2146 -0.0032 -0.0506
 1379TIP3    H125552   1.078   3.814   5.705 -0.1203 -0.7925  0.2078
 1379TIP3    H225553   1.202   3.771   5.781  0.6360 -0.8726 -1.0697
 1380TIP3   OH225554   2.672   1.029   4.111 -0.4124  0.5374 -0.4081
 1380TIP3    H125555   2.596   1.054   4.162 -0.9803 -0.9667 -0.4736
 1380TIP3    H225556   2.637   0.970   4.043  0.7542  0.0272 -0.5860
 1381TIP3   OH225557   3.539   5.752   0.484 -0.4962 -0.4680 -0.1832
 1381TIP3    H125558   3.502   5.836   0.513  0.8506  0.1701 -0.2745
 1381TIP3    H225559   3.615   5.738   0.540  0.1686 -0.8807 -1.1626
 1382TIP3   OH225560   4.958   3.466  15.757 -0.0573  0.3594  0.4578
 1382TIP3    H125561   5.000   3.387  15.722  0.6956  1.5882 -1.5226
 1382TIP3    H225562   4.874   3.470  15.712  0.1929  1.0304  0.0364
 1383TIP3   OH225563   3.008   1.237  13.226 -0.5357  0.2589 -0.1785
 1383TIP3    H125564   3.027   1.184  13.148 -0.1312  2.8552 -1.9317
 1383TIP3    H225565   3.078   1.215  13.287 -1.5605 -2.7493 -0.0046
 1384TIP3   OH225566   1.179   6.609  11.896  0.0575  0.0192  0.0607
 1384TIP3    H125567   1.129   6.613  11.978  0.2510  1.0426  0.1407
 1384TIP3    H225568   1.249   6.674  11.908  1.7389 -1.7749  0.1700
 1385TIP3   OH225569   1.788   4.007  13.153  0.3704  0.0304 -0.1897
 1385TIP3    H125570   1.862   3.949  13.169 -1.0095 -1.2733  1.8529
 1385TIP3    H225571   1.764   4.038  13.240 -0.6221  1.5051 -0.9778
 1386TIP3   OH225572   5.720   0.141   1.347 -0.6555  0.1047 -0.0247
 1386TIP3    H125573   5.688   0.230   1.362  0.8302  0.5836  0.4107
 1386TIP3    H225574   5.733   0.104   1.434  0.1212 -0.0270 -0.1940
 1387TIP3   OH225575   5.753   5.440  14.201 -0.0889  0.4072 -0.3278
 1387TIP3    H125576   5.726   5.360  14.157 -1.2947  0.5369  0.1721
 1387TIP3    H225577   5.826   5.413  14.257  0.0292 -0.1796 -0.7646
 1388TIP3   OH225578   2.821   6.295   3.162 -0.1911  0.1099  0.0858
 1388TIP3    H125579   2.859   6.227   3.217 -0.5022 -0.7088 -0.7074
 1388TIP3    H225580   2.846   6.271   3.073  0.9001  1.8088 -0.0847
 1389TIP3   OH225581   0.932   0.562  14.306  0.3217 -0.7079 -0.1275
 1389TIP3    H125582   0.998   0.630  14.319  0.3830 -0.7305 -0.3173
 1389TIP3    H225583   0.934   0.544  14.212 -0.6557  0.0090 -0.2971
 1390TIP3   OH225584   0.639   2.084  13.332  0.2537  0.9286 -0.5862
 1390TIP3    H125585   0.584   2.046  13.400  2.6033  0.0764  0.8865
 1390TIP3    H225586   0.699   2.142  13.378 -0.0640  2.6862 -2.2893
 1391TIP3   OH225587   5.014   4.562  16.927  0.5674 -0.1111 -0.0865
 1391TIP3    H125588   4.990   4.627  16.861  1.3807  0.5526  0.2642
 1391TIP3    H225589   4.931   4.520  16.950 -0.1422  1.5067  0.4182
 1392TIP3   OH225590   0.668   2.276  12.372 -0.4081  0.3694 -0.0643
 1392TIP3    H125591   0.711   2.330  12.307 -0.5357 -0.9526 -1.2721
 1392TIP3    H225592   0.671   2.187  12.336 -2.6195 -0.0183  0.6054
 1393TIP3   OH225593   1.648   4.954  12.837 -0.0286 -0.0621 -0.0164
 1393TIP3    H125594   1.651   4.956  12.741  0.6485 -0.5177 -0.0075
 1393TIP3    H225595   1.603   4.872  12.857 -0.9120  0.4309  0.0496
 1394TIP3   OH225596   2.356   3.287  15.960  0.3108  0.1242 -0.0442
 1394TIP3    H125597   2.447   3.279  15.933  0.1812  2.5703 -1.3313
 1394TIP3    H225598   2.306   3.237  15.895  0.6188 -0.1427 -0.0743
 1395TIP3   OH225599   2.628   1.604  15.170 -0.7072 -0.0732  0.0408
 1395TIP3    H125600   2.701   1.664  15.153  0.8083 -1.2871  1.9832
 1395TIP3    H225601   2.589   1.588  15.084  1.5528  0.3314 -1.0994
 1396TIP3   OH225602   0.918   3.288  16.867 -0.1290 -0.4715 -0.1895
 1396TIP3    H125603   0.994   3.289  16.925 -0.7584 -0.7603  0.6501
 1396TIP3    H225604   0.847   3.327  16.919 -1.0107 -1.8744 -0.2992
 1397TIP3   OH225605   4.573   5.122   2.437 -0.0625 -0.2243  0.2502
 1397TIP3    H125606   4.633   5.053   2.464 -0.1157 -0.1506  0.5610
 1397TIP3    H225607   4.620   5.204   2.454  0.5653 -0.1987 -1.4507
 1398TIP3   OH225608   6.095   1.080   2.651  0.1525 -0.2772  0.1634
 1398TIP3    H125609   6.154   1.021   2.605  0.4424  0.5451 -0.5384
 1398TIP3    H225610   6.103   1.056   2.743 -0.1185 -1.6614 -0.1639
 1399TIP3   OH225611   2.397   5.320   5.495 -0.7509 -0.4102 -0.3646
 1399TIP3    H125612   2.405   5.262   5.570 -0.0797 -0.3573 -0.3892
 1399TIP3    H225613   2.448   5.277   5.426 -1.9262 -0.8029 -1.0041
 1400TIP3   OH225614   5.333   5.299  13.967  0.2048 -0.1552  0.1177
 1400TIP3    H125615   5.408   5.248  13.998 -0.2795 -0.2920  1.0546
 1400TIP3    H225616   5.370   5.386  13.951  0.0783  0.4494  2.8848
 1401TIP3   OH225617   2.139   0.106   0.393 -0.4422  0.5697  0.0893
 1401TIP3    H125618   2.136   0.124   0.487 -1.0739 -1.9749  0.5879
 1401TIP3    H225619   2.065   0.049   0.377 -1.0063  1.8697 -2.2023
 1402TIP3   OH225620   4.752   1.395   4.071 -0.2472  0.5179 -0.0304
 1402TIP3    H125621   4.816   1.372   4.004  1.0980 -0.2952  1.4985
 1402TIP3    H225622   4.722   1.311   4.105 -1.3792  0.9163 -0.0345
 1403TIP3   OH225623   4.113   2.356  10.325  0.0848  0.5083  1.0003
 1403TIP3    H125624   4.032   2.313  10.301  0.3212  1.3267 -1.3889
 1403TIP3    H225625   4.093   2.450  10.324  0.2558  0.6295  3.5839
 1404TIP3   OH225626   3.303   1.483   2.173  0.1164 -0.6338 -0.1903
 1404TIP3    H125627   3.317   1.577   2.172 -1.4033 -0.3780  0.9820
 1404TIP3    H225628   3.366   1.449   2.236 -1.1989 -0.0506  1.4899
 1405TIP3   OH225629   5.487   5.030   4.537  0.3725 -0.2503  0.3611
 1405TIP3    H125630   5.532   5.089   4.598  3.1535  0.8521 -2.6492
 1405TIP3    H225631   5.464   5.086   4.462  0.3035 -2.3267 -1.2147
 1406TIP3   OH225632   5.698   3.830   1.261 -0.1922  0.6918  0.5487
 1406TIP3    H125633   5.792   3.816   1.257 -0.0746  1.6352 -0.1444
 1406TIP3    H225634   5.668   3.821   1.171 -0.6551  1.0883  0.6570
 1407TIP3   OH225635   1.897   1.799  15.331  0.0919  0.1944 -0.0343
 1407TIP3    H125636   1.889   1.713  15.290 -2.2741 -0.2027  1.1628
 1407TIP3    H225637   1.837   1.855  15.282  0.9645  0.9607 -0.2438
 1408TIP3   OH225638   0.586   1.034   0.068  0.4292 -0.0534  0.2622
 1408TIP3    H125639   0.553   1.119   0.098  0.2651  0.3407 -0.9907
 1408TIP3    H225640   0.663   1.055   0.016 -0.6407 -0.5207 -1.5398
 1409TIP3   OH225641   1.121   5.987   1.591  0.1828 -0.0691  0.0857
 1409TIP3    H125642   1.044   6.029   1.631 -0.6561 -1.6277  0.1462
 1409TIP3    H225643   1.158   5.934   1.661  0.4477 -0.4872 -0.3701
 1410TIP3   OH225644   5.722   6.551   1.542 -0.3436  0.2041  0.0272
 1410TIP3    H125645   5.749   6.640   1.516  2.0101 -0.3234  0.6157
 1410TIP3    H225646   5.647   6.566   1.601  0.6511  1.8646  0.9288
 1411TIP3   OH225647   2.944   0.344   4.752  0.4837 -0.1903  0.2424
 1411TIP3    H125648   3.019   0.356   4.811 -0.2013  1.0696  0.8671
 1411TIP3    H225649   2.871   0.387   4.796 -1.0629 -2.9380  0.4843
 1412TIP3   OH225650   1.876   1.740   1.115 -0.3754 -0.5625 -0.1818
 1412TIP3    H125651   1.934   1.745   1.191 -1.2607  0.8834  0.4266
 1412TIP3    H225652   1.790   1.723   1.151 -0.6155 -0.9727 -0.9481
 1413TIP3   OH225653   1.701   6.434  12.143  0.5173  0.2211  0.5987
 1413TIP3    H125654   1.651   6.403  12.068  0.7983 -1.6215  1.1451
 1413TIP3    H225655   1.723   6.524  12.122  1.3763 -0.5471 -1.9596
 1414TIP3   OH225656   4.711   0.107  15.588 -0.7788 -0.2872 -0.4197
 1414TIP3    H125657   4.795   0.136  15.553 -0.4911  0.2742  0.7466
 1414TIP3    H225658   4.733   0.031  15.641 -1.0952 -0.5181 -0.6164
 1415TIP3   OH225659   1.515   4.695  16.355 -0.0069 -0.3209  0.0205
 1415TIP3    H125660   1.466   4.681  16.436  1.2837 -2.2263  0.5051
 1415TIP3    H225661   1.449   4.684  16.286 -1.0623  1.0800  0.7680
 1416TIP3   OH225662   3.049   1.729  17.170  0.5718 -0.4530  0.2972
 1416TIP3    H125663   2.977   1.727  17.233 -1.2865 -0.1561 -1.7578
 1416TIP3    H225664   3.043   1.646  17.123  1.4585 -0.3575 -0.0040
 1417TIP3   OH225665   1.290   2.794  16.659  0.2626 -0.7572 -0.7711
 1417TIP3    H125666   1.206   2.792  16.614 -0.0007  0.5407 -0.3428
 1417TIP3    H225667   1.309   2.702  16.677 -1.2791 -1.0364 -0.4753
 1418TIP3   OH225668   2.237   2.793   4.935 -0.5313  0.2277  0.0352
 1418TIP3    H125669   2.240   2.867   4.995 -0.2403  0.0027  0.3039
 1418TIP3    H225670   2.156   2.804   4.886 -1.1097  0.0464  0.9393
 1419TIP3   OH225671   6.027   4.984  12.511  0.1075  0.1513  0.0488
 1419TIP3    H125672   6.045   4.899  12.550 -0.0452  0.5285  0.9588
 1419TIP3    H225673   6.013   5.042  12.586 -2.1446  0.4599 -0.5659
 1420TIP3   OH225674   3.427   4.170   1.035 -0.1718  0.2088  0.4159
 1420TIP3    H125675   3.403   4.095   0.980 -1.0875  0.6729  0.1731
 1420TIP3    H225676   3.519   4.186   1.015 -0.3682  0.0706 -0.6172
 1421TIP3   OH225677   0.700   6.618  13.011 -0.1233 -0.0540 -0.1622
 1421TIP3    H125678   0.678   6.607  13.103 -0.0533 -1.3739 -0.2899
 1421TIP3    H225679   0.788   6.654  13.012  0.1844 -0.8124  0.2768
 1422TIP3   OH225680   5.662   3.586  16.179  0.2730 -0.2503 -0.1539
 1422TIP3    H125681   5.685   3.592  16.272 -1.3795 -0.2560  0.2780
 1422TIP3    H225682   5.633   3.674  16.156 -0.0551 -0.4364 -0.4559
 1423TIP3   OH225683   2.886   1.807  11.522  0.2914 -0.0491  0.2443
 1423TIP3    H125684   2.858   1.729  11.571 -2.1575  0.8085  0.2343
 1423TIP3    H225685   2.859   1.880  11.577  0.5247  0.8572 -0.8497
 1424TIP3   OH225686   2.273   4.973   2.726 -0.1963  0.0479  0.3442
 1424TIP3    H125687   2.290   5.062   2.695  1.5384 -0.4735 -0.2400
 1424TIP3    H225688   2.239   4.985   2.815 -1.5341  1.3601 -0.3189
 1425TIP3   OH225689   1.075   0.524   1.128 -0.3124 -0.0557  0.7089
 1425TIP3    H125690   1.150   0.464   1.124 -0.1410  0.1983  0.0937
 1425TIP3    H225691   0.999   0.468   1.115 -0.2353 -0.3208  1.3677
 1426TIP3   OH225692   2.641   0.418   6.051 -0.2133  0.2530  0.0013
 1426TIP3    H125693   2.668   0.342   6.103  2.8868  0.1909 -1.5843
 1426TIP3    H225694   2.621   0.382   5.965 -0.8094  0.9670 -0.1635
 1427TIP3   OH225695   5.174   0.462   0.726  0.2369  0.3668  0.4868
 1427TIP3    H125696   5.220   0.514   0.661 -1.0651  0.5634 -0.2997
 1427TIP3    H225697   5.093   0.511   0.743 -0.3514 -0.6803  0.7829
 1428TIP3   OH225698   3.472   3.123   1.619 -0.4220  0.3678 -0.3495
 1428TIP3    H125699   3.405   3.114   1.686  2.2742 -1.5080  2.2539
 1428TIP3    H225700   3.521   3.201   1.644  0.7125 -0.4473  0.0279
 1429TIP3   OH225701   5.467   4.415   4.177  0.0696 -0.2689  0.1123
 1429TIP3    H125702   5.400   4.412   4.245  0.4337  1.2305  0.5477
 1429TIP3    H225703   5.419   4.432   4.096 -0.1077  0.5862  0.3910
 1430TIP3   OH225704   2.083   6.184   1.075  0.6011 -0.2249 -0.4944
 1430TIP3    H125705   1.998   6.181   1.120  1.2059 -0.6936  0.6640
 1430TIP3    H225706   2.105   6.092   1.060  1.0708 -0.1206 -0.4609
 1431TIP3   OH225707   2.560   0.668   6.109 -0.1921  0.0020  0.0026
 1431TIP3    H125708   2.510   0.676   6.028  2.3788  0.0127 -1.6723
 1431TIP3    H225709   2.604   0.583   6.101  1.4718  0.7816  0.5163
 1432TIP3   OH225710   2.640   6.037  11.964  0.9231 -0.2240  0.5051
 1432TIP3    H125711   2.703   5.982  11.917 -0.1488 -0.4695 -0.6809
 1432TIP3    H225712   2.580   6.068  11.896 -0.4244 -0.2510  1.6550
 1433TIP3   OH225713   3.644   4.875  12.471  0.4823 -0.7105  0.0481
 1433TIP3    H125714   3.715   4.827  12.513  1.3710 -0.0594 -0.6955
 1433TIP3    H225715   3.600   4.809  12.417  0.3268 -1.1796  0.7360
 1434TIP3   OH225716   4.153   3.361  11.029 -0.0374 -0.2802  0.1447
 1434TIP3    H125717   4.200   3.437  11.063 -1.5668  0.4101  0.7193
 1434TIP3    H225718   4.194   3.344  10.944 -0.5542  1.9729 -0.5661
 1435TIP3   OH225719   3.470   2.799  13.352 -0.1780 -0.2754 -0.0120
 1435TIP3    H125720   3.542   2.847  13.393 -0.3937  0.2360 -0.2229
 1435TIP3    H225721   3.493   2.707  13.363  1.8914 -0.1126 -2.5165
 1436TIP3   OH225722   0.432   1.017   4.518 -0.5260 -0.1340  0.0640
 1436TIP3    H125723   0.494   1.090   4.514 -0.9988  0.2556 -0.2294
 1436TIP3    H225724   0.457   0.961   4.444  1.4454 -1.5865  1.7663
 1437TIP3   OH225725   4.071   4.949   6.580 -0.4916 -0.2105 -0.0968
 1437TIP3    H125726   3.981   4.979   6.566 -1.0918 -1.7531  0.3260
 1437TIP3    H225727   4.064   4.853   6.579  0.9984 -0.3418  0.9179
 1438TIP3   OH225728   1.870   0.523   0.304 -0.1328  0.2744  0.6285
 1438TIP3    H125729   1.842   0.551   0.216  1.2581 -0.7148 -0.1363
 1438TIP3    H225730   1.838   0.433   0.312  0.1085  0.2210  0.9867
 1439TIP3   OH225731   3.689   1.378  11.070  0.9128  0.0280 -0.1160
 1439TIP3    H125732   3.758   1.312  11.061 -1.1210 -2.3686  1.1063
 1439TIP3    H225733   3.616   1.343  11.019 -0.3185  1.1723  0.8245
 1440TIP3   OH225734   3.049   2.223   3.263 -0.5585  0.1376 -0.4329
 1440TIP3    H125735   2.969   2.271   3.285  0.6610  1.9968 -0.0293
 1440TIP3    H225736   3.077   2.184   3.346 -1.4303 -1.1368 -0.7190
 1441TIP3   OH225737   2.697   0.969   3.612 -0.3346  0.0518  0.0696
 1441TIP3    H125738   2.614   1.011   3.634 -1.0037 -1.4846  0.5891
 1441TIP3    H225739   2.706   0.899   3.677  1.0935 -0.1526 -0.3257
 1442TIP3   OH225740   0.161   1.667  14.793 -0.7870 -0.3218  0.0441
 1442TIP3    H125741   0.077   1.682  14.837 -0.3164  3.7645 -0.2931
 1442TIP3    H225742   0.138   1.653  14.701 -1.1575 -0.3901  0.1426
 1443TIP3   OH225743   2.499   2.688  14.216 -0.1234 -0.3087  0.1703
 1443TIP3    H125744   2.575   2.745  14.197 -0.9736  0.6539 -0.4022
 1443TIP3    H225745   2.538   2.604  14.239  1.1406  0.2351  0.0981
 1444TIP3   OH225746   1.133   2.036  12.687 -0.1206  0.5386  0.4946
 1444TIP3    H125747   1.057   2.032  12.630  2.9818 -0.0157 -3.8198
 1444TIP3    H225748   1.147   1.946  12.715  0.2084  0.2838 -0.4772
 1445TIP3   OH225749   4.792   0.352   2.811  0.2802 -0.5968  0.1123
 1445TIP3    H125750   4.861   0.415   2.788 -1.9747  1.8643 -0.1054
 1445TIP3    H225751   4.822   0.315   2.894  0.9595  1.8780  1.0209
 1446TIP3   OH225752   0.604   4.057   1.520 -0.2435  0.5814  0.2792
 1446TIP3    H125753   0.660   4.024   1.451 -0.4850  0.1779  0.2722
 1446TIP3    H225754   0.664   4.083   1.590 -0.0690 -0.3509  0.4886
 1447TIP3   OH225755   6.554   0.398  10.537  0.2114  0.1054  0.5932
 1447TIP3    H125756   6.526   0.431  10.451  0.2697 -0.2860  0.4217
 1447TIP3    H225757   6.608   0.469  10.573  1.1065 -0.1735 -0.1724
 1448TIP3   OH225758   0.795   0.701  11.461  0.1816 -0.2645  0.5093
 1448TIP3    H125759   0.723   0.651  11.423  0.5105 -0.3585  0.0110
 1448TIP3    H225760   0.871   0.678  11.408  0.1452  1.4899 -0.3416
 1449TIP3   OH225761   5.756   3.784   0.258 -0.2202 -0.0987  0.1026
 1449TIP3    H125762   5.846   3.791   0.224  0.0036 -0.3869  0.6259
 1449TIP3    H225763   5.713   3.724   0.197 -0.1567  0.3224 -0.3546
 1450TIP3   OH225764   5.662   3.108  17.090  0.2749  0.8376  0.2361
 1450TIP3    H125765   5.642   3.199  17.066  2.1650  0.9832 -0.8114
 1450TIP3    H225766   5.729   3.081  17.028  2.3762 -0.0835  2.8200
 1451TIP3   OH225767   4.248   4.454  11.210 -0.1468  0.3095  0.1466
 1451TIP3    H125768   4.244   4.513  11.134 -3.0389  0.2628  0.2107
 1451TIP3    H225769   4.331   4.407  11.200  0.2461  1.4288 -2.1358
 1452TIP3   OH225770   3.035   3.830   0.339  0.2825  0.2436 -0.2052
 1452TIP3    H125771   2.974   3.797   0.273  0.3467 -0.5456  0.1255
 1452TIP3    H225772   3.087   3.896   0.292 -0.3290  0.4001 -0.6788
 1453TIP3   OH225773   0.641   0.966  12.972  0.9600  0.2897 -0.2537
 1453TIP3    H125774   0.602   0.928  12.893  0.8285  0.5364 -0.3064
 1453TIP3    H225775   0.713   0.907  12.994 -0.1339 -0.7740  0.4961
 1454TIP3   OH225776   3.234   5.145  16.412 -0.4913 -0.5533 -0.1498
 1454TIP3    H125777   3.171   5.181  16.475  2.2415 -0.1064  2.4931
 1454TIP3    H225778   3.307   5.207  16.415 -1.0379  0.5165 -5.2936
 1455TIP3   OH225779   0.986   2.196  16.710  0.2554  0.7005  0.2707
 1455TIP3    H125780   1.042   2.180  16.633  0.7648 -0.4131  0.8477
 1455TIP3    H225781   0.909   2.141  16.695 -0.3596  1.6799 -0.1750
 1456TIP3   OH225782   5.177   1.508   3.175 -0.3506  0.1786  0.1647
 1456TIP3    H125783   5.090   1.503   3.216  0.0949  0.0475  1.0973
 1456TIP3    H225784   5.219   1.584   3.217  0.4920 -0.5738  0.6948
 1457TIP3   OH225785   0.969   0.994   4.301  0.1561 -0.1134 -0.2524
 1457TIP3    H125786   0.961   1.005   4.396 -0.8888 -1.2692 -0.1895
 1457TIP3    H225787   1.058   0.960   4.288  0.3817  0.2640  0.2995
 1458TIP3   OH225788   2.933   6.451  17.070  0.5226 -0.0153  0.0773
 1458TIP3    H125789   2.850   6.404  17.074 -0.4627  1.7180  0.6162
 1458TIP3    H225790   2.991   6.403  17.129 -1.2205  0.8881  2.5655
 1459TIP3   OH225791   4.163   2.391  12.012 -0.2292 -0.0063 -0.3668
 1459TIP3    H125792   4.170   2.467  11.954  1.7709 -0.6497 -1.0145
 1459TIP3    H225793   4.096   2.415  12.076 -0.3245  1.8963 -1.1552
 1460TIP3   OH225794   2.528   6.511  10.924  0.5439 -0.3538  0.0781
 1460TIP3    H125795   2.461   6.579  10.935  0.5680 -0.5446  1.5261
 1460TIP3    H225796   2.590   6.549  10.862 -0.6542  0.0121 -0.9175
 1461TIP3   OH225797   5.892   5.093  16.349  0.3248  0.1113  0.4620
 1461TIP3    H125798   5.835   5.170  16.352 -1.0022 -0.8980  2.0145
 1461TIP3    H225799   5.835   5.022  16.319  0.8634 -0.8091  1.5788
 1462TIP3   OH225800   3.793   4.242   2.645  0.1308 -0.2483  0.2097
 1462TIP3    H125801   3.827   4.300   2.713 -0.3670  0.7740 -0.4120
 1462TIP3    H225802   3.835   4.271   2.565  1.0869 -1.7661  0.1447
 1463TIP3   OH225803   0.986   5.019  15.311 -0.0746  0.2435  0.1983
 1463TIP3    H125804   0.924   5.019  15.384  0.4038  0.5971  0.6079
 1463TIP3    H225805   1.037   5.100  15.323  1.1191 -0.5312  0.4351
 1464TIP3   OH225806   0.696   0.727   4.138 -0.0001  0.8233  0.2806
 1464TIP3    H125807   0.785   0.741   4.172  1.1589 -1.5448 -1.5763
 1464TIP3    H225808   0.696   0.770   4.053 -1.6286  3.3624  1.5242
 1465TIP3   OH225809   5.154   3.304  15.303 -0.0148  0.4399  0.1564
 1465TIP3    H125810   5.226   3.358  15.269  0.5040 -0.9820 -1.0301
 1465TIP3    H225811   5.077   3.362  15.299  0.5932  1.2051 -0.8103
 1466TIP3   OH225812   0.977   0.825  16.002  0.2791 -0.0608 -0.7986
 1466TIP3    H125813   1.022   0.813  15.918 -0.3828  0.2112 -1.1955
 1466TIP3    H225814   0.916   0.897  15.987  1.6567  1.4340  0.5412
 1467TIP3   OH225815   5.223   1.026   5.088  0.2646 -0.7820  0.4090
 1467TIP3    H125816   5.200   1.041   4.997  0.3583 -0.2947  0.4664
 1467TIP3    H225817   5.298   1.084   5.104  1.5468 -2.3335  0.2150
 1468TIP3   OH225818   1.415   3.867  15.694 -0.1320  0.2103  0.1824
 1468TIP3    H125819   1.420   3.772  15.707 -0.4981  0.1220 -0.3227
 1468TIP3    H225820   1.451   3.881  15.606  0.3872  0.5959  0.4481
 1469TIP3   OH225821   4.451   0.999   2.558  0.4784  0.0501  0.2400
 1469TIP3    H125822   4.360   0.982   2.584  0.0051 -0.8065 -1.9068
 1469TIP3    H225823   4.495   1.024   2.640 -1.2762 -1.2341  1.6134
 1470TIP3   OH225824   6.381   2.472  17.175 -0.0677  0.2829  0.1684
 1470TIP3    H125825   6.356   2.510  17.092 -0.0132  0.0231  0.0303
 1470TIP3    H225826   6.461   2.422  17.156  0.5162  1.0445  0.5825
 1471TIP3   OH225827   4.886   5.525   5.290  0.5438  0.5078 -0.1919
 1471TIP3    H125828   4.871   5.526   5.385  0.6252 -2.4603 -0.0851
 1471TIP3    H225829   4.918   5.613   5.270 -1.2688  1.7663  2.2140
 1472TIP3   OH225830   4.219   4.329  12.288  0.1498 -0.1708  0.1293
 1472TIP3    H125831   4.290   4.312  12.227 -0.1138 -2.3936  0.4259
 1472TIP3    H225832   4.159   4.386  12.240  1.2677  0.3092 -0.7085
 1473TIP3   OH225833   4.136   0.888  15.126  0.1641 -0.0059  0.2567
 1473TIP3    H125834   4.054   0.907  15.171 -0.6286 -3.0771  0.2732
 1473TIP3    H225835   4.164   0.804  15.162  2.5446  0.2662 -0.8467
 1474TIP3   OH225836   0.441   2.895  14.761 -0.3734  0.3284  0.6243
 1474TIP3    H125837   0.450   2.828  14.693  0.0324 -0.0410  1.0385
 1474TIP3    H225838   0.363   2.869  14.810 -1.1724  1.0788 -0.2328
 1475TIP3   OH225839   3.507   2.663   1.361  0.1510  0.3489  0.3719
 1475TIP3    H125840   3.572   2.706   1.305  0.4509  0.5773  0.8938
 1475TIP3    H225841   3.522   2.700   1.448 -1.6311  1.4793  0.2111
 1476TIP3   OH225842   1.921   3.154   2.379  0.0836  0.0195  0.2407
 1476TIP3    H125843   2.000   3.184   2.424  0.5870 -1.2816  0.2522
 1476TIP3    H225844   1.856   3.144   2.449  0.1520  0.2845  0.3437
 1477TIP3   OH225845   5.880   0.139   2.629  0.3847 -0.4612  0.2287
 1477TIP3    H125846   5.905   0.061   2.679 -0.0898  0.0504  1.2805
 1477TIP3    H225847   5.960   0.166   2.583  0.8163 -0.9447  0.6967
 1478TIP3   OH225848   3.289   4.219  13.804  0.2844 -0.1311  0.2686
 1478TIP3    H125849   3.195   4.225  13.786  0.4354 -0.3350 -0.5990
 1478TIP3    H225850   3.309   4.299  13.852  0.0052  0.7746 -1.0949
 1479TIP3   OH225851   6.146   1.874   3.866  0.1573 -0.1965 -0.2542
 1479TIP3    H125852   6.148   1.781   3.885 -1.6906  0.1200  1.5818
 1479TIP3    H225853   6.226   1.909   3.906 -0.1865 -0.6759  0.8633
 1480TIP3   OH225854   4.465   3.463   1.295 -0.1381  0.6508  0.1599
 1480TIP3    H125855   4.542   3.501   1.337  1.7156 -0.7304 -1.8854
 1480TIP3    H225856   4.426   3.536   1.246  0.1193  1.2415  0.8334
 1481TIP3   OH225857   3.954   1.362   4.768 -0.4770 -0.0833  0.0012
 1481TIP3    H125858   3.861   1.350   4.752 -0.2534 -1.6162 -0.2410
 1481TIP3    H225859   3.974   1.303   4.841  0.8016 -1.7251 -1.6399
 1482TIP3   OH225860   3.129   3.101  14.843 -0.0480 -0.4115 -0.0102
 1482TIP3    H125861   3.116   3.118  14.936 -0.2428  1.4669 -0.3658
 1482TIP3    H225862   3.050   3.055  14.815 -0.7557  0.5832  0.3671
 1483TIP3   OH225863   1.670   3.160  15.374 -0.0665  0.3551 -0.0549
 1483TIP3    H125864   1.680   3.223  15.445  2.8028 -0.3112  0.2092
 1483TIP3    H225865   1.671   3.212  15.294  0.3464  0.8323  0.2572
 1484TIP3   OH225866   0.615   1.664   2.002  0.6699  0.5138  0.1439
 1484TIP3    H125867   0.653   1.581   1.971  0.0066  0.3462 -0.2297
 1484TIP3    H225868   0.595   1.648   2.094  2.0231  0.7905  0.4969
 1485TIP3   OH225869   4.693   3.853  11.852  0.3425  0.0253  0.0769
 1485TIP3    H125870   4.686   3.918  11.922  0.3179 -1.1379  1.1690
 1485TIP3    H225871   4.603   3.828  11.832  0.3317  0.5542 -0.5851
 1486TIP3   OH225872   1.608   1.731  15.685 -0.5002  0.7926 -0.2067
 1486TIP3    H125873   1.694   1.719  15.644  0.1766 -2.1704  1.9474
 1486TIP3    H225874   1.545   1.718  15.615  0.6989 -1.4961 -0.8857
 1487TIP3   OH225875   1.339   4.994  11.389 -0.1394 -0.3016  1.1724
 1487TIP3    H125876   1.397   5.004  11.314 -0.8488 -0.9118  0.5336
 1487TIP3    H225877   1.389   5.030  11.463 -0.7101  3.3539 -0.1236
 1488TIP3   OH225878   3.713   3.395  13.830 -0.0369  0.4933  0.3308
 1488TIP3    H125879   3.758   3.378  13.747  1.4685  0.1981  1.1869
 1488TIP3    H225880   3.755   3.337  13.893 -2.0810 -0.2804  1.0421
 1489TIP3   OH225881   3.112   6.109  15.870  0.1709  0.0482  0.0095
 1489TIP3    H125882   3.097   6.046  15.941  0.3010 -0.6120 -0.5347
 1489TIP3    H225883   3.180   6.168  15.904 -0.7954  0.6291  0.9771
 1490TIP3   OH225884   3.362   4.501   2.458  0.4032  0.3570 -0.5327
 1490TIP3    H125885   3.365   4.549   2.541 -2.2847  0.4056 -0.4092
 1490TIP3    H225886   3.307   4.425   2.478  0.8380 -0.3329 -1.9368
 1491TIP3   OH225887   1.192   0.608  14.434 -0.0019 -0.4263  0.4246
 1491TIP3    H125888   1.246   0.687  14.429 -0.2743 -0.2961 -0.4575
 1491TIP3    H225889   1.206   0.575  14.523 -0.6936  1.1895  1.1594
 1492TIP3   OH225890   2.909   6.315  15.357  0.6317  0.5883 -0.3424
 1492TIP3    H125891   2.845   6.261  15.310 -1.3725  0.8303  2.0027
 1492TIP3    H225892   2.931   6.264  15.435  1.1878  1.7207  0.2612
 1493TIP3   OH225893   6.496   6.098  13.093  0.1689  0.0431  0.0526
 1493TIP3    H125894   6.410   6.132  13.118  0.1156 -0.0818  0.0399
 1493TIP3    H225895   6.505   6.122  13.001  0.1719  0.1099  0.0705
 1494TIP3   OH225896   6.707   5.941  16.053  0.4743  0.2400 -0.1025
 1494TIP3    H125897   6.792   5.898  16.042 -0.6552 -1.6016 -2.0185
 1494TIP3    H225898   6.697   5.995  15.975  0.4927  1.5891  0.8044
 1495TIP3   OH225899   0.237   5.845   5.167 -0.6548 -0.0315 -0.2366
 1495TIP3    H125900   0.273   5.778   5.225 -0.7573  0.9651  1.0211
 1495TIP3    H225901   0.312   5.903   5.149 -0.8695  0.2526 -0.2215
 1496TIP3   OH225902   3.392   0.818  14.054  0.0875  0.5865 -0.2637
 1496TIP3    H125903   3.364   0.897  14.101  0.9757  0.6259  0.2005
 1496TIP3    H225904   3.411   0.849  13.965  0.1544  0.8414 -0.1619
 1497TIP3   OH225905   0.515   0.151  11.546 -0.0296  0.1827  0.2535
 1497TIP3    H125906   0.435   0.100  11.535 -0.1337  0.6158 -1.0971
 1497TIP3    H225907   0.530   0.153  11.641 -0.1178 -2.1974  0.3359
 1498TIP3   OH225908   3.749   5.266  16.133  0.2111  0.0626  0.6228
 1498TIP3    H125909   3.756   5.186  16.080  0.8718  1.1258 -0.9405
 1498TIP3    H225910   3.718   5.332  16.071 -0.8116  0.9087  2.0230
 1499TIP3   OH225911   2.348   4.912  12.060  0.5845 -0.3061  0.0851
 1499TIP3    H125912   2.439   4.916  12.029  1.4138  1.8636  2.6000
 1499TIP3    H225913   2.316   5.002  12.050 -0.3775 -0.4462  1.7878
 1500TIP3   OH225914   3.703   6.338   5.069 -0.4139  0.5532  0.5047
 1500TIP3    H125915   3.700   6.246   5.043 -1.4231  0.6822  0.1615
 1500TIP3    H225916   3.794   6.352   5.096 -0.2313 -0.5150  0.4615
 1501TIP3   OH225917   2.532   0.997  14.941  0.0750 -0.4282  0.1522
 1501TIP3    H125918   2.469   1.009  14.870  1.2697  0.2506 -0.8226
 1501TIP3    H225919   2.559   0.905  14.934 -0.1989 -0.5024  0.0578
 1502TIP3   OH225920   1.323   1.104  14.836  0.2327 -0.1094  0.0013
 1502TIP3    H125921   1.245   1.062  14.800  0.5702 -0.8486  0.1286
 1502TIP3    H225922   1.289   1.171  14.896 -0.3159  0.5304 -1.0062
 1503TIP3   OH225923   4.456   3.136   0.460 -0.6437  0.6948  0.6922
 1503TIP3    H125924   4.403   3.202   0.414 -3.4167  0.4850  3.4672
 1503TIP3    H225925   4.414   3.053   0.440 -0.1677  0.2981  1.3103
 1504TIP3   OH225926   1.165   0.663   3.182  0.1023 -1.0823 -0.1761
 1504TIP3    H125927   1.230   0.627   3.242  0.4494 -1.4632 -0.7796
 1504TIP3    H225928   1.081   0.635   3.218  0.2004  0.4043  1.2706
 1505TIP3   OH225929   6.151   2.782  16.560 -0.1658  0.0185  0.6455
 1505TIP3    H125930   6.069   2.826  16.582  0.4486  0.8698  1.2624
 1505TIP3    H225931   6.197   2.844  16.503 -1.0223 -1.4883 -1.7303
 1506TIP3   OH225932   5.057   0.745   2.821  0.2505  0.3323 -0.5026
 1506TIP3    H125933   5.056   0.770   2.913 -1.7247 -2.0111  0.1580
 1506TIP3    H225934   5.072   0.651   2.822 -0.8636  0.1015 -2.5367
 1507TIP3   OH225935   3.849   0.561  12.615 -0.6024 -0.4815  0.2096
 1507TIP3    H125936   3.808   0.643  12.589 -0.8508 -0.3823  0.9096
 1507TIP3    H225937   3.907   0.539  12.542 -1.6312 -0.4420 -0.6476
 1508TIP3   OH225938   4.963   2.017   5.078 -0.1566  0.3064 -0.5548
 1508TIP3    H125939   4.900   1.964   5.127  0.2414 -0.6255 -1.0430
 1508TIP3    H225940   5.000   2.077   5.143  0.7963 -1.3169  0.4340
 1509TIP3   OH225941   5.208   2.501  15.581  0.1302  0.3331 -0.1944
 1509TIP3    H125942   5.270   2.567  15.550  0.3009 -0.0295 -0.6237
 1509TIP3    H225943   5.259   2.420  15.585 -0.5816 -0.1911 -1.5504
 1510TIP3   OH225944   1.495   0.383  12.538 -0.0358  0.1896  0.2844
 1510TIP3    H125945   1.508   0.331  12.617 -0.3667 -1.2579 -0.6139
 1510TIP3    H225946   1.409   0.357  12.505 -0.3458  1.5222 -0.0147
 1511TIP3   OH225947   0.232   4.950   4.258 -0.0076 -0.4818 -0.3953
 1511TIP3    H125948   0.283   4.983   4.184  0.3557 -0.0731  0.0290
 1511TIP3    H225949   0.143   4.979   4.241  0.1270 -0.1462 -0.5339
 1512TIP3   OH225950   4.457   0.443   3.081 -0.1681  0.0038  0.2935
 1512TIP3    H125951   4.518   0.491   3.025 -1.9049 -1.3379 -2.9011
 1512TIP3    H225952   4.477   0.472   3.170  3.5003  1.3223 -0.8919
 1513TIP3   OH225953   0.077   0.334   2.617  0.4951 -0.1572 -0.3682
 1513TIP3    H125954   0.063   0.321   2.711 -0.2056 -0.0380 -0.4586
 1513TIP3    H225955   0.082   0.245   2.582  2.3475 -0.2266  0.0121
 1514TIP3   OH225956   2.810   0.336  13.837  0.2192 -0.7047 -0.2332
 1514TIP3    H125957   2.828   0.288  13.756 -0.5560 -2.0309  0.3679
 1514TIP3    H225958   2.816   0.428  13.812  1.6612 -1.1144 -1.4130
 1515TIP3   OH225959   2.557   3.700  15.163 -0.5502 -0.3418 -0.1646
 1515TIP3    H125960   2.502   3.624  15.143 -0.1065 -0.5342 -0.6775
 1515TIP3    H225961   2.626   3.666  15.219  0.3505 -0.5737 -1.4033
 1516TIP3   OH225962   2.309   2.394  17.154  0.2966 -0.6737 -0.4739
 1516TIP3    H125963   2.381   2.448  17.121 -0.1122  0.1203 -0.0885
 1516TIP3    H225964   2.246   2.458  17.188 -0.3833 -1.3861 -0.4090
 1517TIP3   OH225965   3.620   6.637   1.368  0.1638  0.1046  0.5051
 1517TIP3    H125966   3.626   6.567   1.434 -1.2123 -0.0286  0.5151
 1517TIP3    H225967   3.664   6.602   1.291  0.4161 -0.3612  0.8617
 1518TIP3   OH225968   1.955   5.382   0.889  0.4232  0.4783  0.2775
 1518TIP3    H125969   1.904   5.365   0.809 -0.4303  2.8632  0.2809
 1518TIP3    H225970   2.030   5.433   0.858  2.1789 -1.8996  0.4711
 1519TIP3   OH225971   2.404   6.432   4.587 -0.7391 -0.1117 -0.0078
 1519TIP3    H125972   2.365   6.386   4.513 -0.6797 -1.2288  0.6549
 1519TIP3    H225973   2.470   6.489   4.548 -0.4354 -0.9921 -0.7732
 1520TIP3   OH225974   1.007   5.467   2.040  0.0516  0.1876 -0.1204
 1520TIP3    H125975   1.038   5.377   2.035  0.5009  0.2595  1.2264
 1520TIP3    H225976   0.955   5.470   2.120 -1.6893  0.6086 -1.2366
 1521TIP3   OH225977   6.175   3.449  16.691 -0.6590  0.4041  0.0641
 1521TIP3    H125978   6.152   3.360  16.666  0.3446  0.0800  0.2725
 1521TIP3    H225979   6.252   3.469  16.638  0.9320  0.0503  2.2094
 1522TIP3   OH225980   0.558   3.160   5.672 -0.1086  0.9606  0.0591
 1522TIP3    H125981   0.479   3.114   5.645 -0.4321 -0.5037  3.2643
 1522TIP3    H225982   0.630   3.103   5.645 -0.4862 -1.2562  3.4872
 1523TIP3   OH225983   2.280   2.109  17.149 -0.1535 -0.4453  0.0202
 1523TIP3    H125984   2.295   2.089  17.056 -1.4807 -0.6948 -0.1433
 1523TIP3    H225985   2.304   2.201  17.157 -1.3613 -0.0363 -0.8826
 1524TIP3   OH225986   4.704   0.836   4.324  0.0926 -0.0514 -0.1327
 1524TIP3    H125987   4.644   0.895   4.369  0.1283  1.1687 -1.6674
 1524TIP3    H225988   4.648   0.768   4.287  0.0210 -0.8219  1.3438
 1525TIP3   OH225989   2.888   0.221   2.262 -0.1500 -0.3038  0.0342
 1525TIP3    H125990   2.918   0.202   2.173 -2.6101  1.6556 -1.3169
 1525TIP3    H225991   2.854   0.311   2.257 -2.6452 -1.0289  2.2961
 1526TIP3   OH225992   0.997   6.212   5.270  0.0693  0.9445  0.4700
 1526TIP3    H125993   0.954   6.245   5.191 -0.9579 -1.2105  0.0800
 1526TIP3    H225994   1.066   6.275   5.289 -1.1956  2.7405 -0.7897
 1527TIP3   OH225995   0.013   1.790  16.017 -0.1525  0.0373 -0.0399
 1527TIP3    H125996   0.090   1.746  15.981 -1.1503 -0.4880 -1.5489
 1527TIP3    H225997  -0.013   1.734  16.091 -1.3128 -1.8662 -1.8369
 1528TIP3   OH225998   6.690   5.674  15.255  0.0054 -0.6160  0.1947
 1528TIP3    H125999   6.652   5.740  15.197  0.7292  0.5471  1.0267
 1528TIP3    H226000   6.682   5.592  15.207  1.4406  0.4786 -1.9456
 1529TIP3   OH226001   1.411   5.151  16.498 -0.0979 -0.1038 -0.1640
 1529TIP3    H126002   1.430   5.243  16.515 -1.3357  0.2742 -0.7891
 1529TIP3    H226003   1.498   5.109  16.494  0.4326  0.8740  0.9401
 1530TIP3   OH226004   3.391   4.020   0.672  0.3125  0.1652 -0.5515
 1530TIP3    H126005   3.324   4.067   0.623  0.9394 -0.1397 -1.7365
 1530TIP3    H226006   3.347   3.990   0.751 -1.3147 -1.2126 -1.9558
 1531TIP3   OH226007   4.578   6.339  16.226 -0.1066  0.1877  0.3437
 1531TIP3    H126008   4.647   6.395  16.192  0.9586 -0.8741  0.7300
 1531TIP3    H226009   4.624   6.267  16.269 -1.4415  0.1649  1.7748
 1532TIP3   OH226010   2.163   0.339  13.216 -0.4831  0.2234  0.1584
 1532TIP3    H126011   2.216   0.273  13.262  2.1556 -0.0501 -3.0918
 1532TIP3    H226012   2.199   0.423  13.246  0.5016  0.0683 -0.5700
 1533TIP3   OH226013   6.267   2.131   1.142 -0.0870 -0.1083  0.4629
 1533TIP3    H126014   6.190   2.142   1.085 -0.2667 -0.8422  0.5577
 1533TIP3    H226015   6.307   2.049   1.112  0.7124  0.3242  0.3512
 1534TIP3   OH226016   3.458   6.191   5.868 -0.3760  0.5103 -0.3478
 1534TIP3    H126017   3.428   6.119   5.924 -1.9966  0.0825 -1.7227
 1534TIP3    H226018   3.542   6.161   5.834 -1.6080 -1.3302 -1.8879
 1535TIP3   OH226019   1.096   1.463  12.945  0.3598  0.4909  0.4600
 1535TIP3    H126020   1.061   1.547  12.975 -2.0126 -0.1730 -0.3608
 1535TIP3    H226021   1.061   1.399  13.007 -1.1620 -0.3618 -1.2153
 1536TIP3   OH226022   4.758   6.239  15.996 -0.1617  0.2817  0.8251
 1536TIP3    H126023   4.686   6.226  15.934  0.2314 -1.5865  0.7277
 1536TIP3    H226024   4.762   6.156  16.045  3.0111 -0.3099 -0.3391
 1537TIP3   OH226025   1.890   6.589   2.549 -0.1483  0.2707  0.0137
 1537TIP3    H126026   1.867   6.506   2.590 -1.4470  1.3319  1.4957
 1537TIP3    H226027   1.822   6.603   2.483  0.8077 -0.4580 -1.1480
 1538TIP3   OH226028   5.383   6.395   0.875  0.0058 -0.1680  0.4472
 1538TIP3    H126029   5.294   6.394   0.911  0.2617 -1.1610  1.0547
 1538TIP3    H226030   5.423   6.313   0.905  1.2945  0.4982  0.6038
 1539TIP3   OH226031   2.234   3.035   4.698  0.3153  0.1146  0.3585
 1539TIP3    H126032   2.141   3.050   4.711  0.3313 -0.0427  0.6395
 1539TIP3    H226033   2.239   2.952   4.651  0.4344 -1.2030  2.6397
 1540TIP3   OH226034   1.694   1.599   3.057 -0.4265 -0.0892 -0.5211
 1540TIP3    H126035   1.742   1.531   3.104 -0.1030  0.4404 -0.0870
 1540TIP3    H226036   1.639   1.640   3.123 -0.4742  0.2052 -0.7418
 1541TIP3   OH226037   3.341   6.198   2.588  0.2048 -0.2957  0.1702
 1541TIP3    H126038   3.247   6.197   2.570 -0.1796 -2.1745  2.0462
 1541TIP3    H226039   3.347   6.193   2.684  2.1988  2.6199  0.2684
 1542TIP3   OH226040   5.544   1.566   4.758  0.3479  0.1852 -0.2308
 1542TIP3    H126041   5.578   1.620   4.828  0.1483  0.4456 -0.3354
 1542TIP3    H226042   5.548   1.621   4.680 -1.9169  0.8301  0.0695
 1543TIP3   OH226043   3.675   4.505  12.150 -0.2534 -0.1733 -0.6053
 1543TIP3    H126044   3.711   4.525  12.064 -1.7449 -0.0482 -1.2219
 1543TIP3    H226045   3.625   4.424  12.137 -3.5380  1.7764 -0.7608
 1544TIP3   OH226046   3.891   4.362   2.886 -0.7839 -0.0607 -0.2748
 1544TIP3    H126047   3.950   4.428   2.924 -1.3389  1.1328 -1.4805
 1544TIP3    H226048   3.835   4.336   2.959  1.3919 -1.4462  0.9918
 1545TIP3   OH226049   6.071   1.347   3.896 -0.5902 -0.2199 -0.3085
 1545TIP3    H126050   6.016   1.376   3.969 -1.0759  0.0927 -0.7935
 1545TIP3    H226051   6.075   1.252   3.905 -0.1851 -0.1355  0.4474
 1546TIP3   OH226052   3.839   0.356  16.853  0.5403 -0.0949  0.4958
 1546TIP3    H126053   3.791   0.385  16.930 -0.8446  0.8385 -0.6934
 1546TIP3    H226054   3.795   0.276  16.825  0.1077  0.3756 -0.1845
 1547TIP3   OH226055   0.568   4.706  17.205  0.3021 -0.3870  0.4471
 1547TIP3    H126056   0.528   4.772  17.262  1.3170  0.2755  0.4063
 1547TIP3    H226057   0.642   4.752  17.164 -1.1868 -0.4607 -2.3979
 1548TIP3   OH226058   3.792   3.404  13.493  0.5198 -0.5767 -0.2492
 1548TIP3    H126059   3.850   3.438  13.424  0.6915  1.3793  0.8267
 1548TIP3    H226060   3.720   3.467  13.497 -1.3494 -2.5919 -1.0502
 1549TIP3   OH226061   2.225   1.724   3.833 -0.0725 -0.1774 -0.3459
 1549TIP3    H126062   2.159   1.734   3.901  0.3518  1.9295 -0.2210
 1549TIP3    H226063   2.257   1.634   3.844 -1.7531 -0.6805  0.6220
 1550TIP3   OH226064   3.549   2.760  17.192  0.1715  0.0161  0.5053
 1550TIP3    H126065   3.636   2.763  17.232  0.3735  1.7727 -0.0455
 1550TIP3    H226066   3.499   2.702  17.250  1.3892 -0.1281  1.4367
 1551TIP3   OH226067   1.275   4.176  14.340 -0.1886  0.0640  0.0781
 1551TIP3    H126068   1.243   4.144  14.256  0.8361 -1.1838  0.1633
 1551TIP3    H226069   1.367   4.197  14.325  0.4510 -1.7552  1.3008
 1552TIP3   OH226070   3.030   1.227   4.665  0.0192  0.0064 -0.0423
 1552TIP3    H126071   3.121   1.219   4.635 -0.9358 -2.5014 -2.4458
 1552TIP3    H226072   3.018   1.154   4.725 -0.8589 -0.6002 -0.9463
 1553TIP3   OH226073   5.235   2.495   2.582 -0.1834  0.1228  0.0533
 1553TIP3    H126074   5.327   2.470   2.592 -0.4436  0.0691  2.5358
 1553TIP3    H226075   5.229   2.527   2.491  2.7842  2.2341  0.5054
 1554TIP3   OH226076   1.687   3.786  10.615  0.2047 -0.2095  0.2701
 1554TIP3    H126077   1.638   3.768  10.535  2.2140 -1.8676 -0.6211
 1554TIP3    H226078   1.628   3.760  10.685 -0.9635 -0.2828 -0.7190
 1555TIP3   OH226079   2.126   0.772  16.401 -0.3545  0.0998 -1.1645
 1555TIP3    H126080   2.101   0.766  16.308  2.3383 -0.9531 -1.8510
 1555TIP3    H226081   2.074   0.703  16.443  1.3820 -2.1872 -2.6092
 1556TIP3   OH226082   1.714   1.398  11.633 -0.3434  0.2407 -0.4525
 1556TIP3    H126083   1.763   1.316  11.636 -1.8175 -0.7112 -1.8884
 1556TIP3    H226084   1.629   1.377  11.671 -0.8486  1.0099 -1.1412
 1557TIP3   OH226085   3.989   5.328   1.352 -0.3107 -0.1123 -0.2386
 1557TIP3    H126086   3.964   5.281   1.272  0.0734 -0.5561 -0.0979
 1557TIP3    H226087   4.048   5.397   1.321  1.0388 -1.2155 -0.1740
 1558TIP3   OH226088   3.250   2.139  11.372  0.3886 -0.2616  0.2290
 1558TIP3    H126089   3.269   2.193  11.448  2.4018 -1.4186  0.5893
 1558TIP3    H226090   3.249   2.049  11.406  0.4478 -0.7106 -0.9369
 1559TIP3   OH226091   1.837   6.685   3.229 -0.3023 -0.3624 -0.2547
 1559TIP3    H126092   1.930   6.677   3.250 -0.5735  0.4909  1.3398
 1559TIP3    H226093   1.795   6.707   3.312 -1.9945 -1.1480 -0.8681
 1560TIP3   OH226094   1.001   0.115  13.999 -0.5369 -1.0531 -0.5567
 1560TIP3    H126095   0.939   0.066  14.053  1.2276 -1.4157  1.1790
 1560TIP3    H226096   1.050   0.169  14.061 -0.6530  0.9586 -2.1463
 1561TIP3   OH226097   3.281   0.438   6.021  0.1394 -0.3506 -0.3796
 1561TIP3    H126098   3.194   0.441   6.060  0.1279 -0.4958 -0.3944
 1561TIP3    H226099   3.340   0.463   6.093 -0.1105  2.2446 -1.0178
 1562TIP3   OH226100   0.077   2.401   0.162 -0.3087 -0.0867  0.5329
 1562TIP3    H126101   0.133   2.379   0.236 -0.1337  1.3405  0.8362
 1562TIP3    H226102   0.077   2.497   0.159 -0.2027 -0.1304 -1.4015
 1563TIP3   OH226103   5.298   1.038   1.936  0.1515  0.1429 -0.1860
 1563TIP3    H126104   5.324   0.948   1.913 -0.9754  0.3319 -2.3205
 1563TIP3    H226105   5.379   1.079   1.968  0.7304 -1.5442  0.5870
 1564TIP3   OH226106   5.282   5.024   1.141  0.3839  0.9466  0.0658
 1564TIP3    H126107   5.224   5.090   1.179 -2.1671  0.5516 -2.9298
 1564TIP3    H226108   5.356   5.074   1.107  0.5898  1.7389  1.6034
 1565TIP3   OH226109   5.337   2.785   1.067  0.6766 -0.4375  0.2984
 1565TIP3    H126110   5.408   2.829   1.115  1.4162 -1.1864 -0.0971
 1565TIP3    H226111   5.365   2.786   0.976 -0.1057 -0.2074  0.0574
 1566TIP3   OH226112   1.428   1.765  15.894  0.0980  0.3290 -0.5350
 1566TIP3    H126113   1.480   1.745  15.816 -0.1626 -1.7828 -0.2026
 1566TIP3    H226114   1.465   1.708  15.962 -0.1463  1.6366  0.7022
 1567TIP3   OH226115   1.268   4.432   3.450 -0.3847  0.0159  0.3386
 1567TIP3    H126116   1.195   4.475   3.407 -0.8319  0.5659  1.6165
 1567TIP3    H226117   1.233   4.404   3.535  0.9796  0.6237  1.1282
 1568TIP3   OH226118   2.699   4.945   5.631 -0.2122  0.5198  0.0513
 1568TIP3    H126119   2.714   4.867   5.685 -0.5519  1.7941  2.0333
 1568TIP3    H226120   2.708   5.019   5.691  0.8986  2.0848 -1.9494
 1569TIP3   OH226121   3.374   4.646   5.407 -0.0617  0.8346  0.5077
 1569TIP3    H126122   3.373   4.658   5.312  2.0676  1.7100  0.5605
 1569TIP3    H226123   3.332   4.562   5.421  2.8082 -1.0218 -1.5115
 1570TIP3   OH226124   1.388   3.087   3.270  0.0479 -0.3491 -0.2637
 1570TIP3    H126125   1.393   3.023   3.199 -0.2359 -0.0494 -0.5551
 1570TIP3    H226126   1.353   3.166   3.229 -1.2985 -0.5591  0.4678
 1571TIP3   OH226127   6.747   3.915  17.109  0.3572 -0.6589 -0.3349
 1571TIP3    H126128   6.697   3.953  17.182 -0.0661 -1.9040  0.0499
 1571TIP3    H226129   6.765   3.989  17.051 -2.3187 -0.2284 -0.7017
 1572TIP3   OH226130   0.195   3.132  14.486  0.0500 -0.3294 -0.1392
 1572TIP3    H126131   0.235   3.069  14.425 -0.4764 -1.0212  0.2214
 1572TIP3    H226132   0.107   3.145  14.452 -0.9000 -2.1891  1.5391
 1573TIP3   OH226133   6.078   0.201   1.204 -0.3500  0.5601 -1.0199
 1573TIP3    H126134   6.170   0.226   1.209 -0.1044 -0.2338 -1.5082
 1573TIP3    H226135   6.071   0.123   1.259 -0.0901 -1.1562 -3.3359
 1574TIP3   OH226136   4.010   4.587  15.943  0.1896  0.2974  0.1039
 1574TIP3    H126137   4.048   4.570  15.856  3.0725  0.6325  1.2327
 1574TIP3    H226138   4.021   4.681  15.955 -0.3224  0.2680  0.7734
 1575TIP3   OH226139   0.536   0.760   2.015  0.2642 -0.5989  0.0750
 1575TIP3    H126140   0.548   0.671   2.048  0.2116 -0.7563 -0.3245
 1575TIP3    H226141   0.506   0.810   2.090  0.6009 -0.8505  0.3773
 1576TIP3   OH226142   6.631   2.872   1.647  0.2146 -0.1577  0.0045
 1576TIP3    H126143   6.677   2.842   1.726 -0.7547  1.3376  1.1586
 1576TIP3    H226144   6.679   2.949   1.619 -1.1930  1.0564  0.8653
 1577TIP3   OH226145   5.828   2.452  12.992 -0.3526 -0.3557  0.0977
 1577TIP3    H126146   5.895   2.513  13.021  0.3561 -0.5449 -1.1082
 1577TIP3    H226147   5.868   2.405  12.919 -1.6444 -0.7514 -0.3739
 1578TIP3   OH226148   4.045   2.136  11.542 -0.6071  0.3409 -0.0755
 1578TIP3    H126149   3.950   2.127  11.533 -0.7254  1.0657  0.4651
 1578TIP3    H226150   4.057   2.171  11.630  0.0709  2.0296 -0.8355
 1579TIP3   OH226151   0.002   0.044   5.899  0.4341 -0.1114  0.3065
 1579TIP3    H126152  -0.092   0.031   5.909  0.2894 -1.0957 -2.0940
 1579TIP3    H226153   0.038   0.027   5.986 -1.6637  1.0219  1.4356
 1580TIP3   OH226154   1.059   6.405  12.765  0.7613  0.2449 -0.9620
 1580TIP3    H126155   0.968   6.378  12.775  0.3580  0.5171 -3.5577
 1580TIP3    H226156   1.086   6.433  12.853 -1.2086 -1.1485  0.1157
 1581TIP3   OH226157   2.026   2.462   4.148 -0.1745  0.2567  0.3927
 1581TIP3    H126158   1.944   2.428   4.111 -0.7353  2.5701 -0.5604
 1581TIP3    H226159   1.998   2.519   4.220  0.6384  0.5876  0.4510
 1582TIP3   OH226160   4.563   3.180   4.010 -0.4852 -0.1337  0.3736
 1582TIP3    H126161   4.632   3.128   4.051 -0.7251  0.5568  1.6788
 1582TIP3    H226162   4.558   3.146   3.920 -0.0400 -1.7567  0.9313
 1583TIP3   OH226163   0.435   5.972  15.851  0.1908 -0.6309 -0.5444
 1583TIP3    H126164   0.362   5.952  15.792 -0.0514 -1.7231  0.1106
 1583TIP3    H226165   0.418   5.920  15.929  1.6172 -0.8106 -0.3336
 1584TIP3   OH226166   1.611   5.567  16.459  0.3364  0.6494 -0.2454
 1584TIP3    H126167   1.704   5.565  16.480  0.4274  0.3710 -0.6539
 1584TIP3    H226168   1.578   5.648  16.499 -0.0454 -1.1206  3.1229
 1585TIP3   OH226169   5.447   5.117   4.272  0.1378 -0.2156  0.5790
 1585TIP3    H126170   5.459   5.212   4.279 -4.3113  0.5312 -0.0715
 1585TIP3    H226171   5.482   5.094   4.187  0.1390  1.1007  0.2149
 1586TIP3   OH226172   2.530   0.477   2.608  0.2757 -0.0605  0.9668
 1586TIP3    H126173   2.570   0.451   2.691  0.3888  1.6276  1.4765
 1586TIP3    H226174   2.508   0.570   2.621 -0.5167 -0.0207 -0.5789
 1587TIP3   OH226175   1.334   0.579   1.647 -0.1825 -0.2125 -0.0954
 1587TIP3    H126176   1.357   0.534   1.728  1.7037  1.0580  0.0777
 1587TIP3    H226177   1.325   0.671   1.672 -0.1545  0.1017 -1.2256
 1588TIP3   OH226178   3.059   5.396  13.557  0.6521  0.2658  0.1631
 1588TIP3    H126179   3.021   5.444  13.630 -1.0612  0.1229 -0.6268
 1588TIP3    H226180   2.986   5.380  13.498  1.6708 -1.2558 -0.7023
 1589TIP3   OH226181   0.078   6.550  13.390  0.6115  0.2545 -0.4149
 1589TIP3    H126182   0.119   6.599  13.461  1.0003  1.0645 -1.1698
 1589TIP3    H226183   0.122   6.465  13.391  0.8688  0.3916  0.0821
 1590TIP3   OH226184   0.074   3.628   5.587 -0.3754 -0.0369 -0.4062
 1590TIP3    H126185   0.145   3.636   5.651 -2.7510  1.5647  2.1535
 1590TIP3    H226186   0.115   3.646   5.503  1.6021  4.6663  1.4184
 1591TIP3   OH226187   4.826   2.362   5.741 -0.3941  0.1834 -0.0052
 1591TIP3    H126188   4.762   2.317   5.685 -2.3382  1.3963  1.1624
 1591TIP3    H226189   4.874   2.292   5.785 -1.4464 -0.7679 -0.3472
 1592TIP3   OH226190   5.241   1.836  10.868  0.6861 -0.1532 -0.4048
 1592TIP3    H126191   5.245   1.929  10.889  1.5855 -0.1912 -0.3835
 1592TIP3    H226192   5.160   1.806  10.909 -0.1736  0.8511 -1.3566
 1593TIP3   OH226193   4.289   3.637  13.587  0.8046 -0.5078  0.3282
 1593TIP3    H126194   4.374   3.663  13.553  0.8999 -0.5617  0.5207
 1593TIP3    H226195   4.305   3.621  13.680  0.5144 -0.2216  0.4259
 1594TIP3   OH226196   4.959   3.236   5.306  0.9558  0.0078  0.2236
 1594TIP3    H126197   4.993   3.323   5.323 -2.2623  1.2535  0.6303
 1594TIP3    H226198   4.919   3.209   5.389  1.6260 -1.7401  0.0069
 1595TIP3   OH226199   1.649   1.039  15.933 -0.6732  0.3716 -0.2144
 1595TIP3    H126200   1.631   1.011  15.844 -2.9512 -0.0419  0.3562
 1595TIP3    H226201   1.585   0.993  15.987  0.7976  0.4429  1.6808
 1596TIP3   OH226202   6.631   5.111   2.144  0.0633  0.3527 -0.4616
 1596TIP3    H126203   6.638   5.162   2.225  2.2271 -0.6123  0.0144
 1596TIP3    H226204   6.557   5.149   2.097 -0.9969  1.1525  1.8081
 1597TIP3   OH226205   5.093   2.088   2.473 -0.3484 -0.0158  0.5474
 1597TIP3    H126206   5.123   2.164   2.422  1.2110 -0.8621  0.1555
 1597TIP3    H226207   5.053   2.030   2.408 -1.5587  0.4830  0.8489
 1598TIP3   OH226208   4.113   0.513   1.437 -0.5316 -0.1197 -0.0705
 1598TIP3    H126209   4.043   0.546   1.492 -0.1009 -1.0369  1.0545
 1598TIP3    H226210   4.079   0.519   1.347 -1.5298  0.6639  0.3619
 1599TIP3   OH226211   2.175   1.426  13.760 -0.1597  0.0457 -0.1701
 1599TIP3    H126212   2.193   1.518  13.739 -0.8185  0.0840 -0.5801
 1599TIP3    H226213   2.240   1.376  13.710  1.5877  0.3745  1.6915
 1600TIP3   OH226214   5.580   1.004   3.284 -0.6939 -0.4848  0.3004
 1600TIP3    H126215   5.586   1.040   3.196 -0.8572 -0.4879  0.2890
 1600TIP3    H226216   5.560   1.079   3.340  1.3576 -0.1358  0.6008
 1601TIP3   OH226217   2.632   3.125  16.830 -0.9602 -0.2116 -0.4618
 1601TIP3    H126218   2.565   3.137  16.898  0.4594  0.8307  0.7850
 1601TIP3    H226219   2.688   3.055  16.864 -0.6478 -0.1647 -0.8828
 1602TIP3   OH226220   2.556   0.264  11.431  0.0549  0.2503  0.2919
 1602TIP3    H126221   2.502   0.185  11.434 -0.4393  0.5749  0.0840
 1602TIP3    H226222   2.583   0.279  11.521 -1.2460  0.7904  0.6150
 1603TIP3   OH226223   2.928   5.085  15.487  0.4239  0.3083  0.1660
 1603TIP3    H126224   2.944   4.994  15.465  1.7198  0.5958 -0.0913
 1603TIP3    H226225   2.964   5.135  15.413  0.5436  1.0670  0.7303
 1604TIP3   OH226226   5.602   3.105  16.311 -0.1570  0.1308 -0.7736
 1604TIP3    H126227   5.697   3.116  16.300 -0.1552  0.8794 -0.0638
 1604TIP3    H226228   5.573   3.065  16.229  0.3868  2.2549 -2.0471
 1605TIP3   OH226229   0.753   4.405  14.525 -0.3598 -0.3423  0.6827
 1605TIP3    H126230   0.783   4.403  14.616  2.5765 -1.5005 -0.2298
 1605TIP3    H226231   0.788   4.487  14.491 -1.2595 -0.0203  0.5239
 1606TIP3   OH226232   6.083   3.286  15.075 -0.2298  0.1041 -0.4835
 1606TIP3    H126233   6.080   3.304  14.982  0.5889  0.6087 -0.4117
 1606TIP3    H226234   6.124   3.363  15.114 -2.4083  0.8058  0.5380
 1607TIP3   OH226235   2.793   0.418  11.343  0.9814 -0.0256  0.5642
 1607TIP3    H126236   2.729   0.352  11.369 -0.0160  0.9289  0.5342
 1607TIP3    H226237   2.874   0.368  11.328 -0.4095 -1.5752 -1.9509
 1608TIP3   OH226238   5.801   0.321  14.127 -0.3968 -0.4868  0.1789
 1608TIP3    H126239   5.856   0.285  14.196  1.7321  5.0136  1.6355
 1608TIP3    H226240   5.740   0.379  14.173 -2.2752 -0.5804 -2.1282
 1609TIP3   OH226241   0.787   6.763  15.114 -0.5077 -0.2425 -0.2076
 1609TIP3    H126242   0.699   6.725  15.107  0.2270 -2.2515  1.1239
 1609TIP3    H226243   0.785   6.811  15.197 -0.5812  0.3721 -0.5616
 1610TIP3   OH226244   1.076   4.431   3.711  0.1917 -0.1235 -0.3308
 1610TIP3    H126245   1.075   4.344   3.672 -1.4736 -0.6972  0.9097
 1610TIP3    H226246   1.068   4.416   3.805  0.6667  1.3414 -0.0324
 1611TIP3   OH226247   6.590   5.499  16.299 -0.3243 -0.0515  0.0045
 1611TIP3    H126248   6.557   5.567  16.358 -1.0064 -1.1195  0.8486
 1611TIP3    H226249   6.683   5.492  16.320  0.0629  1.5720 -1.0340
 1612TIP3   OH226250   1.762   4.137   2.090 -0.3035  0.1644  0.0676
 1612TIP3    H126251   1.785   4.222   2.127 -2.2813  0.1850  1.3195
 1612TIP3    H226252   1.777   4.075   2.161 -0.5999 -0.2995 -0.2673
 1613TIP3   OH226253   6.251   2.517   0.184 -0.4679  0.4715  0.3865
 1613TIP3    H126254   6.264   2.509   0.090  2.2334 -0.0239  0.7529
 1613TIP3    H226255   6.189   2.589   0.195 -1.4960 -0.0670 -1.7901
 1614TIP3   OH226256   4.750   3.601   3.082  0.3811 -0.2225 -0.1712
 1614TIP3    H126257   4.740   3.594   2.987  0.3287  2.7790 -0.4352
 1614TIP3    H226258   4.764   3.511   3.112  0.3025 -1.2088 -3.0018
 1615TIP3   OH226259   0.061   2.437   5.121 -0.4797 -0.1259 -0.0401
 1615TIP3    H126260   0.135   2.395   5.078 -0.4365 -0.3182  0.2131
 1615TIP3    H226261   0.019   2.489   5.053 -1.2934 -1.6083 -0.6872
 1616TIP3   OH226262   4.735   5.721  16.929 -0.0509  0.1270 -0.0347
 1616TIP3    H126263   4.814   5.707  16.982 -0.3585 -2.9502 -0.2619
 1616TIP3    H226264   4.755   5.798  16.876  1.3858  1.5290  2.4405
 1617TIP3   OH226265   5.394   1.514  15.607 -0.3999  0.1571 -0.5667
 1617TIP3    H126266   5.389   1.610  15.602 -1.1064  0.2339  1.3327
 1617TIP3    H226267   5.400   1.486  15.516  0.5236  2.0476 -1.1220
 1618TIP3   OH226268   3.517   3.532  15.300 -0.2105  0.3751  0.4296
 1618TIP3    H126269   3.550   3.620  15.320  0.8632  0.1051 -0.1352
 1618TIP3    H226270   3.578   3.497  15.235 -0.2711 -1.0377  1.1106
 1619TIP3   OH226271   0.589   1.909   2.615  0.1055 -0.6285  0.3360
 1619TIP3    H126272   0.593   1.917   2.711  0.4546 -1.3968  0.3896
 1619TIP3    H226273   0.616   1.995   2.583 -0.8074 -0.1134  0.9336
 1620TIP3   OH226274   4.076   5.896  13.112 -0.3268  0.3065  0.0306
 1620TIP3    H126275   3.990   5.892  13.070  0.3526  2.5652 -1.7539
 1620TIP3    H226276   4.138   5.878  13.041  0.7020 -0.5245  1.1212
 1621TIP3   OH226277   5.989   2.743  16.850 -0.5753 -0.7909  0.0060
 1621TIP3    H126278   6.078   2.708  16.846 -0.4323 -0.3350 -0.9008
 1621TIP3    H226279   5.932   2.666  16.838 -0.3285 -1.2027  1.4069
 1622TIP3   OH226280   6.615   6.017  11.813  0.2045  0.1007 -0.5185
 1622TIP3    H126281   6.604   5.929  11.777  0.1458  0.0960 -0.4912
 1622TIP3    H226282   6.701   6.016  11.855 -0.4005 -0.3675  0.7224
 1623TIP3   OH226283   0.099   6.729  13.152 -0.3141 -0.0313  0.0602
 1623TIP3    H126284   0.076   6.715  13.244 -0.8693 -1.5933 -0.3034
 1623TIP3    H226285   0.189   6.697  13.145  0.4288  1.8923  0.4729
 1624TIP3   OH226286   5.379   5.376   3.374  0.6208  0.3934 -0.0575
 1624TIP3    H126287   5.409   5.377   3.283  1.9804  0.5722  0.3832
 1624TIP3    H226288   5.297   5.425   3.373  1.2760  1.4845 -0.9708
 1625TIP3   OH226289   0.264   5.002   1.447  0.0658 -0.1410 -0.0732
 1625TIP3    H126290   0.201   5.067   1.416  1.1574 -0.1108 -2.2844
 1625TIP3    H226291   0.211   4.924   1.463 -0.6058  0.0156 -1.4701
 1626TIP3   OH226292   1.954   3.047   4.682 -0.0495  0.6881 -0.2148
 1626TIP3    H126293   1.909   2.967   4.708  2.8010 -0.4297  1.4797
 1626TIP3    H226294   1.885   3.113   4.675 -1.8923 -0.8526  2.7026
 1627TIP3   OH226295   0.124   1.711  12.385 -0.4324 -0.2374  0.2403
 1627TIP3    H126296   0.031   1.688  12.385 -0.5033  0.0625  0.8144
 1627TIP3    H226297   0.155   1.686  12.471  0.0709 -0.5233 -0.0231
 1628TIP3   OH226298   1.114   5.694   3.626  0.0374 -0.6778  0.5192
 1628TIP3    H126299   1.023   5.665   3.622  0.1206 -0.8121 -0.4934
 1628TIP3    H226300   1.121   5.762   3.558  0.6096 -0.4478  0.7999
 1629TIP3   OH226301   6.488   3.190   1.448  0.7249 -0.4416  0.1969
 1629TIP3    H126302   6.551   3.118   1.446  0.2131 -0.9464  1.6837
 1629TIP3    H226303   6.538   3.264   1.481  0.4602 -0.9681  1.8662
 1630TIP3   OH226304   0.444   3.997   0.184 -0.5275  0.4322 -0.0348
 1630TIP3    H126305   0.422   4.010   0.276 -0.4954  0.8687 -0.0843
 1630TIP3    H226306   0.527   4.044   0.173 -0.1683 -0.2167 -0.1195
 1631TIP3   OH226307   6.151   0.556   2.249  0.0313  0.1518 -0.2223
 1631TIP3    H126308   6.134   0.470   2.211 -0.7664 -0.2835  1.0585
 1631TIP3    H226309   6.151   0.540   2.344  0.3677  1.4702  0.0049
 1632TIP3   OH226310   2.170   3.348  16.487 -0.8546 -0.7718  0.7103
 1632TIP3    H126311   2.186   3.268  16.536 -1.6216 -0.3273  1.6957
 1632TIP3    H226312   2.145   3.318  16.400  2.2748 -1.5458 -0.0179
 1633TIP3   OH226313   5.501   5.464   6.411 -0.6803 -0.1722  0.7889
 1633TIP3    H126314   5.459   5.423   6.335  0.6282 -0.0526 -0.0292
 1633TIP3    H226315   5.494   5.558   6.394 -1.1174 -0.1230  1.2325
 1634TIP3   OH226316   5.010   5.170   2.206 -0.0658 -0.3946  0.0441
 1634TIP3    H126317   5.015   5.226   2.129  1.0083  0.4579  0.7219
 1634TIP3    H226318   5.015   5.081   2.170 -1.4544 -0.0707 -1.0051
 1635TIP3   OH226319   4.031   5.413  17.123  0.0211 -0.5610 -0.0011
 1635TIP3    H126320   4.022   5.317  17.121  2.2778 -0.7802 -1.8060
 1635TIP3    H226321   4.052   5.436  17.033  0.2340  1.5739  0.5836
 1636TIP3   OH226322   2.726   2.046  16.313  0.3575 -0.2306  0.3767
 1636TIP3    H126323   2.678   2.029  16.394  0.4258 -1.2796  0.2045
 1636TIP3    H226324   2.676   2.115  16.269 -0.7840 -1.0618  0.3702
 1637TIP3   OH226325   4.349   2.011  11.701  0.4308 -0.4560  0.2593
 1637TIP3    H126326   4.413   1.972  11.761  0.6447  0.0547  0.3613
 1637TIP3    H226327   4.343   2.103  11.728  2.1671  0.3242 -1.8771
 1638TIP3   OH226328   5.663   5.238  15.455  0.0018 -0.0506  0.3340
 1638TIP3    H126329   5.663   5.142  15.449  1.3638 -0.0439  0.2446
 1638TIP3    H226330   5.589   5.265  15.400  0.7668 -0.9600 -1.1859
 1639TIP3   OH226331   1.807   1.116   4.443 -0.0075  0.0587  0.5381
 1639TIP3    H126332   1.891   1.133   4.487  0.4457 -0.3863 -0.1348
 1639TIP3    H226333   1.827   1.047   4.380 -0.7038  0.4980 -0.1745
 1640TIP3   OH226334   2.837   4.881   4.212  0.2231  0.4701 -0.3534
 1640TIP3    H126335   2.846   4.967   4.171  1.8439 -0.2668 -1.5983
 1640TIP3    H226336   2.871   4.820   4.147  0.1176 -1.0104  0.9571
 1641TIP3   OH226337   5.616   6.109   3.652  0.1098  0.2946  0.1162
 1641TIP3    H126338   5.544   6.046   3.656  0.0864  0.3137 -0.0201
 1641TIP3    H226339   5.588   6.182   3.706  0.8910 -0.5991  1.7721
 1642TIP3   OH226340   0.879   4.299  14.108 -0.4398  0.4317 -0.5151
 1642TIP3    H126341   0.934   4.375  14.093  1.2419 -0.1604  2.3065
 1642TIP3    H226342   0.789   4.332  14.102  0.2590  2.4637 -0.0879
 1643TIP3   OH226343   3.158   5.625  11.467  0.1050  0.0586 -0.5152
 1643TIP3    H126344   3.069   5.615  11.432 -0.1578  1.0141 -0.1338
 1643TIP3    H226345   3.149   5.690  11.536  0.8372 -0.9379  0.5289
 1644TIP3   OH226346   2.751   0.067   0.712 -0.1930 -0.0781  0.1502
 1644TIP3    H126347   2.751   0.098   0.802  0.1939  0.1409  0.0783
 1644TIP3    H226348   2.842   0.076   0.683 -0.0301 -1.4725  0.1822
 1645TIP3   OH226349   6.273   5.704   1.471  0.2357  0.3325  0.1238
 1645TIP3    H126350   6.224   5.626   1.498 -2.2862  1.6616 -0.4710
 1645TIP3    H226351   6.238   5.774   1.526  1.5083  1.3196 -0.2991
 1646TIP3   OH226352   3.014   5.631   1.741  0.4315 -0.2545  0.4262
 1646TIP3    H126353   2.976   5.657   1.657  3.7212 -1.1688 -1.4286
 1646TIP3    H226354   3.033   5.714   1.785 -0.5309  0.2394 -0.0570
 1647TIP3   OH226355   5.549   1.781   3.967 -0.0794  0.3667 -0.2448
 1647TIP3    H126356   5.459   1.789   3.935 -0.4376 -1.4490  0.2458
 1647TIP3    H226357   5.540   1.744   4.054  1.1039  1.3859  0.3325
 1648TIP3   OH226358   1.770   6.563  15.681  0.3067  0.1359  0.1091
 1648TIP3    H126359   1.804   6.549  15.769 -0.4464  0.6160  0.4744
 1648TIP3    H226360   1.737   6.652  15.681  1.9149  0.7567 -1.2005
 1649TIP3   OH226361   2.163   6.042   6.180 -0.0753  0.2663 -0.9729
 1649TIP3    H126362   2.241   6.082   6.141  0.5027 -0.2983 -0.4034
 1649TIP3    H226363   2.116   6.115   6.219  0.9413  0.4110  0.0029
 1650TIP3   OH226364   5.344   0.584  14.998 -0.6586 -0.3361 -0.1942
 1650TIP3    H126365   5.265   0.633  15.021 -1.1962 -1.2326 -0.0990
 1650TIP3    H226366   5.316   0.493  14.997 -0.2110 -0.4896 -2.5985
 1651TIP3   OH226367   2.384   5.778   2.083 -0.4478 -0.1644  0.2689
 1651TIP3    H126368   2.392   5.853   2.025  1.4223  0.9845  1.9558
 1651TIP3    H226369   2.419   5.705   2.032 -0.3955  0.4956 -0.6528
 1652TIP3   OH226370   5.096   2.620  16.879  0.0988  0.7238  0.2427
 1652TIP3    H126371   5.147   2.699  16.861 -0.7885  1.1284 -0.5181
 1652TIP3    H226372   5.092   2.574  16.795 -0.2499  0.3652  0.4525
 1653TIP3   OH226373   2.546   3.166  15.617  0.8247 -0.2673  0.6041
 1653TIP3    H126374   2.487   3.156  15.692 -0.0058 -0.9621 -0.1150
 1653TIP3    H226375   2.559   3.076  15.586  1.5561 -0.0274  0.2196
 1654TIP3   OH226376   2.708   3.583   1.331  0.3250 -0.1990 -0.2991
 1654TIP3    H126377   2.792   3.592   1.375  1.6949 -1.9117 -2.4811
 1654TIP3    H226378   2.681   3.493   1.349 -1.5928  0.6354  1.2482
 1655TIP3   OH226379   5.346   2.791  11.461  0.3679 -0.6532 -0.0225
 1655TIP3    H126380   5.398   2.854  11.510  0.5961 -0.6180 -0.3047
 1655TIP3    H226381   5.411   2.741  11.410  0.0866 -0.2555 -0.7801
 1656TIP3   OH226382   4.185   2.346   6.092  0.2303  0.1517 -0.2289
 1656TIP3    H126383   4.248   2.293   6.141 -2.5920 -0.8424  2.4915
 1656TIP3    H226384   4.191   2.433   6.132 -1.7289 -0.5387  1.6660
 1657TIP3   OH226385   0.689   2.550  12.051  0.3742 -0.5433  0.4718
 1657TIP3    H126386   0.688   2.456  12.034 -0.7451 -0.3786 -0.4463
 1657TIP3    H226387   0.609   2.567  12.102  0.8808 -0.1788  1.1559
 1658TIP3   OH226388   6.248   0.118   0.942  0.7130 -0.3043 -0.3932
 1658TIP3    H126389   6.295   0.133   1.024 -2.5304  0.4854  1.4137
 1658TIP3    H226390   6.269   0.027   0.919  1.4506 -0.6288  1.4611
 1659TIP3   OH226391   5.530   3.624  15.425  0.8753 -0.1704  0.0527
 1659TIP3    H126392   5.462   3.690  15.415  0.4177 -0.5424  0.6554
 1659TIP3    H226393   5.609   3.673  15.446  0.8885  0.2950 -1.0888
 1660TIP3   OH226394   4.594   4.023   1.487 -0.2766 -0.1215  0.1163
 1660TIP3    H126395   4.675   4.033   1.438 -2.0413  0.4078 -2.8205
 1660TIP3    H226396   4.565   4.113   1.505 -0.7409 -0.2957  0.2595
 1661TIP3   OH226397   1.468   0.163   4.101 -0.7000  0.2787  0.0556
 1661TIP3    H126398   1.479   0.181   4.195  0.4411 -2.5079  0.5010
 1661TIP3    H226399   1.417   0.082   4.099  0.4160 -0.3914 -1.7307
 1662TIP3   OH226400   5.378   5.803  16.050 -0.5353  0.2747  0.2879
 1662TIP3    H126401   5.470   5.803  16.024 -0.3849 -0.4586  0.8007
 1662TIP3    H226402   5.333   5.756  15.980 -0.1656 -1.4873  1.2252
 1663TIP3   OH226403   2.916   3.156  16.862  0.6992  0.0018  0.7083
 1663TIP3    H126404   2.997   3.203  16.883  0.3116  0.8791  0.2289
 1663TIP3    H226405   2.857   3.176  16.935  0.5671  0.1796  0.5537
 1664TIP3   OH226406   1.102   0.814  11.555 -0.0920  0.3114 -0.0578
 1664TIP3    H126407   1.180   0.868  11.554 -0.6026  1.0486 -1.0398
 1664TIP3    H226408   1.111   0.756  11.480 -0.1480 -0.1071  0.2519
 1665TIP3   OH226409   6.607   1.990  15.945 -0.2513 -0.1592  0.2754
 1665TIP3    H126410   6.521   1.949  15.954 -0.8845  1.1500  0.3756
 1665TIP3    H226411   6.669   1.924  15.975 -1.0956 -1.7250 -1.3646
 1666TIP3   OH226412   0.322   5.532  15.204 -0.3751  0.4827 -0.5069
 1666TIP3    H126413   0.380   5.480  15.260 -2.9964 -0.0401  1.8285
 1666TIP3    H226414   0.357   5.519  15.116  1.6160 -1.7360  0.5272
 1667TIP3   OH226415   4.235   4.397  16.419 -0.1086  0.0400  0.1507
 1667TIP3    H126416   4.292   4.455  16.469 -1.5898  0.7233  1.0858
 1667TIP3    H226417   4.161   4.452  16.394 -0.1515 -0.7144 -1.4374
 1668TIP3   OH226418   5.288   5.936   3.978  0.0751 -0.4418 -0.4106
 1668TIP3    H126419   5.309   5.844   3.963  1.9329  0.1354 -1.4449
 1668TIP3    H226420   5.194   5.943   3.960  0.2199 -1.8420 -1.7566
 1669TIP3   OH226421   2.967   0.763   2.215 -0.0402  0.0322 -0.6964
 1669TIP3    H126422   3.021   0.719   2.150 -0.6216 -1.7202 -0.0111
 1669TIP3    H226423   2.884   0.780   2.171 -0.3075 -0.8353 -0.5403
 1670TIP3   OH226424   6.146   2.649  13.205  0.1260  0.6390 -0.2862
 1670TIP3    H126425   6.167   2.660  13.113  0.7939  1.4174 -0.0557
 1670TIP3    H226426   6.075   2.711  13.222  0.3080  0.8189 -0.1775
 1671TIP3   OH226427   0.549   4.059  11.525 -0.2244  0.1342 -0.1919
 1671TIP3    H126428   0.578   4.140  11.484  0.4125  0.3109  0.5969
 1671TIP3    H226429   0.556   3.993  11.456 -3.1500  1.2027 -1.5861
 1672TIP3   OH226430   4.346   3.551   5.662  0.3478  0.7704 -0.6253
 1672TIP3    H126431   4.274   3.605   5.629 -1.6759 -1.3316  0.1606
 1672TIP3    H226432   4.323   3.535   5.753  2.0449  0.3631 -0.2502
 1673TIP3   OH226433   5.448   2.998  16.083 -0.2468  0.3305  0.2348
 1673TIP3    H126434   5.449   2.927  16.019  2.3857 -0.3003  0.9042
 1673TIP3    H226435   5.381   2.972  16.146 -0.4210 -0.7847 -0.4035
 1674TIP3   OH226436   4.744   0.885   1.159  0.6528  0.0381  0.0210
 1674TIP3    H126437   4.751   0.963   1.104  1.4408  1.0833  1.5848
 1674TIP3    H226438   4.650   0.878   1.179  0.5228  0.3272 -0.4818
 1675TIP3   OH226439   5.286   1.209  10.680  0.0281  0.1724  0.3882
 1675TIP3    H126440   5.370   1.168  10.659  0.1070  0.4303  0.1967
 1675TIP3    H226441   5.230   1.189  10.605  0.4142  1.3906 -0.2510
 1676TIP3   OH226442   3.754   6.078   1.683 -0.1529 -0.0218 -0.1123
 1676TIP3    H126443   3.844   6.088   1.712 -0.4931  0.5220  0.7828
 1676TIP3    H226444   3.716   6.165   1.692 -0.8391 -0.3036 -0.2331
 1677TIP3   OH226445   2.912   0.208   1.544 -0.1299  0.3204 -0.2432
 1677TIP3    H126446   2.887   0.152   1.471  2.2879  0.8591 -1.5493
 1677TIP3    H226447   3.003   0.231   1.526  0.0929  1.5486  2.2643
 1678TIP3   OH226448   0.538   3.976  16.174  0.0630 -0.5361  0.3663
 1678TIP3    H126449   0.480   3.929  16.114 -0.8491  1.6073 -0.4835
 1678TIP3    H226450   0.572   4.049  16.123  4.1817 -2.1211  0.6196
 1679TIP3   OH226451   3.289   1.494  12.652 -0.3531 -0.2935  0.1484
 1679TIP3    H126452   3.280   1.552  12.576  2.6020  1.2300  0.9048
 1679TIP3    H226453   3.243   1.414  12.625 -0.6037  0.7261 -2.6857
 1680TIP3   OH226454   3.810   0.376  16.064  0.7674 -0.4017 -0.0750
 1680TIP3    H126455   3.832   0.310  15.997 -1.2091 -2.3869  1.1497
 1680TIP3    H226456   3.873   0.360  16.134 -1.2783 -2.7715  1.3106
 1681TIP3   OH226457   5.138   0.135  15.456  0.4649 -0.1125 -0.1786
 1681TIP3    H126458   5.182   0.165  15.535  1.2680  0.1531 -0.7208
 1681TIP3    H226459   5.053   0.178  15.457 -0.1799 -1.3728  1.3685
 1682TIP3   OH226460   4.624   3.484   0.623 -0.3202 -0.1097 -0.1354
 1682TIP3    H126461   4.630   3.390   0.608 -1.2717 -0.1002 -0.6200
 1682TIP3    H226462   4.560   3.493   0.694 -0.8646  0.2158 -0.6649
 1683TIP3   OH226463   3.624   6.426   1.574 -0.3949 -0.5543  0.1311
 1683TIP3    H126464   3.617   6.387   1.661 -2.6466 -1.1598 -0.3119
 1683TIP3    H226465   3.577   6.366   1.516 -0.3219  0.6828 -1.2427
 1684TIP3   OH226466   0.873   5.393  12.157 -0.3487  0.0391 -0.9830
 1684TIP3    H126467   0.915   5.337  12.092  0.7926  1.4749 -1.5095
 1684TIP3    H226468   0.904   5.359  12.241 -0.7132 -0.9346 -1.2318
 1685TIP3   OH226469   2.175   2.756   1.975 -0.1259 -0.1965 -0.2867
 1685TIP3    H126470   2.146   2.844   1.999 -1.0887 -0.4153 -0.5909
 1685TIP3    H226471   2.097   2.715   1.936  0.9698 -0.3190 -2.4693
 1686TIP3   OH226472   4.998   4.696   3.556 -0.6575  0.0516  0.3361
 1686TIP3    H126473   4.995   4.791   3.562 -1.3345  0.0248  0.4444
 1686TIP3    H226474   5.062   4.678   3.486  2.0283  0.5032  2.5616
 1687TIP3   OH226475   0.666   3.491  10.866  0.2493  0.6264 -0.4823
 1687TIP3    H126476   0.588   3.449  10.903  0.6819  0.8318  0.7018
 1687TIP3    H226477   0.734   3.423  10.871  0.4826  0.8750 -0.2676
 1688TIP3   OH226478   4.436   4.919   2.297 -0.3092  0.3641 -0.4092
 1688TIP3    H126479   4.486   4.993   2.332  1.5523 -1.0544 -0.0364
 1688TIP3    H226480   4.397   4.878   2.375  0.3017 -0.2380 -0.4222
 1689TIP3   OH226481   6.227   2.675  12.939 -0.3485  0.1203  0.2108
 1689TIP3    H126482   6.275   2.596  12.915  1.1620  1.4112 -1.1841
 1689TIP3    H226483   6.163   2.686  12.869 -0.3456  0.2969  0.2351
 1690TIP3   OH226484   0.101   0.514  13.985 -0.7397  0.1007  0.5906
 1690TIP3    H126485   0.118   0.508  14.079 -0.1216  0.7885  0.5291
 1690TIP3    H226486   0.187   0.501  13.945 -1.0535 -0.4784  0.1076
 1691TIP3   OH226487   3.322   3.265   3.527 -0.3089  0.2462 -0.3764
 1691TIP3    H126488   3.329   3.252   3.432 -2.6949 -0.3683 -0.4885
 1691TIP3    H226489   3.231   3.289   3.542  0.2350  1.1516  1.6892
 1692TIP3   OH226490   5.179   5.366   0.250  0.3129  0.3024  0.2011
 1692TIP3    H126491   5.266   5.401   0.269  0.9573 -1.1564  0.0830
 1692TIP3    H226492   5.187   5.330   0.161 -0.2884 -0.1618  0.3316
 1693TIP3   OH226493   5.690   5.443  13.024 -0.3478  0.2622 -0.3645
 1693TIP3    H126494   5.732   5.423  13.107  0.5351 -0.9991 -1.0848
 1693TIP3    H226495   5.692   5.538  13.017  1.3174  0.2730  0.1654
 1694TIP3   OH226496   3.383   2.142  11.123 -0.3666 -0.2128 -0.0269
 1694TIP3    H126497   3.464   2.185  11.150 -1.2319  1.9049 -0.7355
 1694TIP3    H226498   3.327   2.146  11.201 -0.4510 -0.0710 -0.0961
 1695TIP3   OH226499   2.829   5.709   5.684 -0.7864 -0.7093 -0.0763
 1695TIP3    H126500   2.776   5.708   5.763 -0.3811  1.5722  0.2516
 1695TIP3    H226501   2.773   5.750   5.618 -0.7485 -1.6529 -0.7084
 1696TIP3   OH226502   5.244   6.543  15.015  0.5792  0.1797 -0.4772
 1696TIP3    H126503   5.340   6.542  15.007  0.6697 -1.5677  0.4574
 1696TIP3    H226504   5.222   6.453  15.041 -1.3729  0.3966 -1.3024
 1697TIP3   OH226505   3.549   2.496  12.371 -0.0738  0.1010  0.1318
 1697TIP3    H126506   3.466   2.491  12.418 -0.1157 -2.0609 -0.1280
 1697TIP3    H226507   3.534   2.448  12.290  1.2495  0.2167 -0.1892
 1698TIP3   OH226508   4.492   3.926  16.600  0.4732  0.1632 -0.2105
 1698TIP3    H126509   4.448   4.003  16.565  1.8125  0.0325 -2.2887
 1698TIP3    H226510   4.543   3.959  16.674 -2.4450  0.4363  1.7474
 1699TIP3   OH226511   2.722   2.592   0.821 -0.0726  0.1010 -0.2547
 1699TIP3    H126512   2.772   2.556   0.747  0.3078  3.1305 -1.5699
 1699TIP3    H226513   2.788   2.610   0.888 -0.0016  0.0885 -0.3212
 1700TIP3   OH226514   5.408   0.224  14.037  0.2114 -0.3278 -0.3894
 1700TIP3    H126515   5.477   0.257  13.980  0.5133 -0.6195 -0.1902
 1700TIP3    H226516   5.453   0.172  14.103 -0.2745 -1.3129 -0.8152
 1701TIP3   OH226517   5.851   1.653  12.982  0.2133 -0.1453  0.5027
 1701TIP3    H126518   5.767   1.609  12.992 -0.4762  0.5652 -1.7520
 1701TIP3    H226519   5.829   1.738  12.944  2.0232 -0.4279 -1.2941
 1702TIP3   OH226520   3.819   5.081  15.951 -0.2177  0.4856 -0.3544
 1702TIP3    H126521   3.822   5.111  15.860  0.6996  0.4707 -0.3351
 1702TIP3    H226522   3.831   4.986  15.946 -1.3634  0.3323 -0.2940
 1703TIP3   OH226523   0.553   1.078  12.522 -0.5208  0.2772  0.4267
 1703TIP3    H126524   0.564   1.037  12.436 -1.4293  0.3613  0.2683
 1703TIP3    H226525   0.614   1.031  12.579  0.7572  0.8424 -0.4631
 1704TIP3   OH226526   2.490   3.100  11.181  0.0651 -0.0723  0.5665
 1704TIP3    H126527   2.559   3.165  11.192  1.3809 -1.4020  0.4063
 1704TIP3    H226528   2.487   3.084  11.087 -1.0183  0.5701  0.4954
 1705TIP3   OH226529   4.919   5.071   1.719  0.0197 -0.6851 -0.5373
 1705TIP3    H126530   4.859   5.077   1.794 -0.3583  2.0306 -0.9890
 1705TIP3    H226531   4.977   5.147   1.729  0.4241 -0.6991 -2.5973
 1706TIP3   OH226532   2.592   5.542   0.091 -0.5531 -0.1759 -0.4510
 1706TIP3    H126533   2.508   5.497   0.101 -0.2470 -1.0520 -1.7130
 1706TIP3    H226534   2.645   5.481   0.040  0.5515  0.7596 -0.4182
 1707TIP3   OH226535   1.739   2.170   2.578  0.1065 -0.0577 -0.3350
 1707TIP3    H126536   1.677   2.113   2.532  1.3088 -0.2773 -1.7248
 1707TIP3    H226537   1.773   2.229   2.509  1.1057  0.3501  0.4883
 1708TIP3   OH226538   4.806   0.572   3.340  0.4418 -0.2949 -0.2995
 1708TIP3    H126539   4.823   0.662   3.312 -1.1480 -0.2344 -1.1311
 1708TIP3    H226540   4.850   0.564   3.424  1.8323  0.8067 -0.9156
 1709TIP3   OH226541   0.205   4.690   2.073 -0.4811 -0.5820 -1.2041
 1709TIP3    H126542   0.260   4.704   2.150 -0.8768  2.6295 -1.4664
 1709TIP3    H226543   0.262   4.645   2.011  0.9839  0.2052 -0.4529
 1710TIP3   OH226544   0.529   4.682   0.744 -0.1052 -0.2866 -0.3275
 1710TIP3    H126545   0.576   4.676   0.827  0.3923  1.2555 -0.4872
 1710TIP3    H226546   0.448   4.728   0.765  0.6067  1.2804 -0.9093
 1711TIP3   OH226547   4.546   0.309   0.077  0.0880  0.0026  0.1111
 1711TIP3    H126548   4.504   0.394   0.065 -0.0024 -0.2665 -1.6764
 1711TIP3    H226549   4.636   0.322   0.050  0.1214 -0.4149  0.0065
 1712TIP3   OH226550   5.518   3.425   1.685 -0.3724 -1.1139 -0.4988
 1712TIP3    H126551   5.609   3.436   1.657  0.4206 -1.8318  1.7181
 1712TIP3    H226552   5.468   3.425   1.603  1.2194  2.6390 -1.5925
 1713TIP3   OH226553   5.729   3.804  12.414  0.3836 -0.4799  0.1971
 1713TIP3    H126554   5.730   3.889  12.458 -0.7014  0.8722 -2.2511
 1713TIP3    H226555   5.642   3.769  12.433 -0.4913  0.5956 -1.6857
 1714TIP3   OH226556   2.009   4.164  13.733  0.3844 -0.1955 -0.2550
 1714TIP3    H126557   1.956   4.171  13.654  0.2060 -1.4567 -0.2594
 1714TIP3    H226558   1.995   4.074  13.764  0.8173  0.1398  0.9466
 1715TIP3   OH226559   6.424   2.118   2.797 -0.0357 -0.5126  0.1442
 1715TIP3    H126560   6.511   2.105   2.760  0.6122 -0.3601  1.5799
 1715TIP3    H226561   6.392   2.030   2.815  0.5830 -0.5210  1.2967
 1716TIP3   OH226562   3.125   0.765  11.815  0.3466  0.2978 -0.0742
 1716TIP3    H126563   3.176   0.684  11.817 -0.2397 -0.0474  1.5404
 1716TIP3    H226564   3.114   0.789  11.907 -0.7590  1.4126 -0.4799
 1717TIP3   OH226565   1.126   1.744  15.324 -0.3700  0.6083 -0.0410
 1717TIP3    H126566   1.088   1.827  15.352 -1.5869  0.0927 -0.1622
 1717TIP3    H226567   1.210   1.769  15.285  0.8000  1.4557  2.8925
 1718TIP3   OH226568   6.383   3.836  17.116 -0.1921 -0.9702  0.0135
 1718TIP3    H126569   6.292   3.865  17.123  0.2373  0.3114  0.4992
 1718TIP3    H226570   6.382   3.770  17.047 -1.4801 -0.9036 -0.0385
 1719TIP3   OH226571   2.930   3.832  11.746 -0.5250 -0.4125 -0.0819
 1719TIP3    H126572   2.848   3.862  11.784 -0.7915  0.6313 -1.4117
 1719TIP3    H226573   2.959   3.906  11.692  3.1059  0.6603  3.1536
 1720TIP3   OH226574   1.961   5.148   3.647 -0.0865  0.1625 -0.1587
 1720TIP3    H126575   1.875   5.106   3.651 -0.8638  1.7704  0.9357
 1720TIP3    H226576   1.957   5.203   3.569 -0.0584  0.2485 -0.0997
 1721TIP3   OH226577   1.927   0.773  14.562 -0.0655 -0.4228  0.5350
 1721TIP3    H126578   1.851   0.784  14.620 -0.7719  0.4277 -0.5249
 1721TIP3    H226579   2.000   0.814  14.610 -0.4520 -0.5037  1.1976
 1722TIP3   OH226580   6.053   6.436  11.536  0.4202  0.5114 -0.7027
 1722TIP3    H126581   6.001   6.513  11.560 -0.7151 -0.4297 -0.0809
 1722TIP3    H226582   6.092   6.406  11.618 -0.6211 -0.6365 -0.6135
 1723TIP3   OH226583   4.671   3.143   1.308 -0.0356  0.7409 -0.3967
 1723TIP3    H126584   4.739   3.208   1.292  1.4123 -0.9729 -1.4003
 1723TIP3    H226585   4.701   3.096   1.385  0.4609 -0.7145 -1.4636
 1724TIP3   OH226586   5.518   6.042  14.057  0.0798 -0.2608 -0.0684
 1724TIP3    H126587   5.554   5.978  13.996 -0.2202 -0.0363 -0.4838
 1724TIP3    H226588   5.594   6.074  14.106  0.4313  0.1290 -0.8645
 1725TIP3   OH226589   0.026   1.739   5.233  0.4807  0.0418 -0.2447
 1725TIP3    H126590   0.096   1.750   5.298  0.7723  0.4649 -0.6261
 1725TIP3    H226591  -0.039   1.805   5.255  1.0616  0.8851 -1.0048
 1726TIP3   OH226592   6.677   6.602  11.579 -0.3821  0.0923 -0.0528
 1726TIP3    H126593   6.703   6.515  11.609 -1.2348 -0.1927 -0.1120
 1726TIP3    H226594   6.619   6.584  11.504 -1.2001  0.6791  0.4280
 1727TIP3   OH226595   0.155   3.072  12.021 -0.4767 -0.3180 -0.2218
 1727TIP3    H126596   0.147   3.051  11.928 -2.0463 -0.3378 -0.0911
 1727TIP3    H226597   0.178   2.989  12.062  0.0111 -0.3540 -0.5609
 1728TIP3   OH226598   2.609   2.875  14.475  0.3517 -1.2954 -0.2703
 1728TIP3    H126599   2.603   2.947  14.412  0.0150 -0.5008  0.6578
 1728TIP3    H226600   2.526   2.879  14.523  0.9859 -1.3033  0.8354
 1729TIP3   OH226601   3.407   3.800   2.287 -0.1958  0.6915 -0.5580
 1729TIP3    H126602   3.359   3.745   2.225 -0.1127  0.8698 -0.7809
 1729TIP3    H226603   3.379   3.889   2.266 -0.5216  0.7162 -0.0347
 1730TIP3   OH226604   0.027   5.046  13.684  0.2960 -0.0285 -0.5573
 1730TIP3    H126605   0.008   5.030  13.592 -0.0089 -1.8470 -0.2076
 1730TIP3    H226606   0.011   4.962  13.726 -0.8944  1.1212  1.3618
 1731TIP3   OH226607   2.281   4.861  13.158 -0.2009 -0.5720 -0.1570
 1731TIP3    H126608   2.253   4.771  13.139 -0.5619 -0.1582 -1.6018
 1731TIP3    H226609   2.200   4.909  13.175  0.1084 -0.9384  2.5876
 1732TIP3   OH226610   2.915   0.747   1.142  0.2036 -0.0010  0.4866
 1732TIP3    H126611   2.981   0.697   1.190 -0.4109 -0.0843  1.2588
 1732TIP3    H226612   2.961   0.781   1.065  0.9950 -0.5312  0.7248
 1733TIP3   OH226613   3.933   5.713   2.069 -0.0088  0.3677 -0.2518
 1733TIP3    H126614   3.869   5.706   1.998  0.5930  0.3819 -0.7990
 1733TIP3    H226615   3.908   5.644   2.131 -0.5441  0.3633 -0.4700
 1734TIP3   OH226616   4.427   6.313  14.412  0.3436  0.7105  0.4521
 1734TIP3    H126617   4.459   6.346  14.328  0.0345 -0.0001  0.0485
 1734TIP3    H226618   4.338   6.283  14.394 -0.9661  3.5957  1.8032
 1735TIP3   OH226619   4.862   5.340   5.653  0.1611 -0.9363 -0.1020
 1735TIP3    H126620   4.930   5.309   5.712  0.0498 -0.7890  0.1014
 1735TIP3    H226621   4.891   5.311   5.566  1.4994  0.8463 -0.2826
 1736TIP3   OH226622   1.698   4.902   0.423 -0.1049  0.1803 -0.6898
 1736TIP3    H126623   1.619   4.873   0.378 -0.5228 -0.1254  0.2205
 1736TIP3    H226624   1.717   4.832   0.485  0.0059  0.9392  0.1558
 1737TIP3   OH226625   0.674   4.555  15.834 -0.4811  0.1453 -0.3112
 1737TIP3    H126626   0.739   4.550  15.764 -0.4510  1.6750 -0.3965
 1737TIP3    H226627   0.722   4.531  15.913 -0.6212 -2.0466 -0.8559
 1738TIP3   OH226628   0.148   6.431   3.455 -0.3967  0.8945  0.1828
 1738TIP3    H126629   0.156   6.374   3.378 -0.6059 -0.1669  0.9280
 1738TIP3    H226630   0.239   6.447   3.482 -0.2441  2.6145 -1.2232
 1739TIP3   OH226631   5.821   3.821  12.159  0.5849  0.0932  0.3940
 1739TIP3    H126632   5.829   3.917  12.158 -2.1633  0.3575  0.6939
 1739TIP3    H226633   5.767   3.802  12.235  1.4302 -1.7417  0.5602
 1740TIP3   OH226634   5.476   0.969  11.060  0.5787 -0.0375  0.0952
 1740TIP3    H126635   5.430   0.927  10.987  0.1203 -0.2679  0.5121
 1740TIP3    H226636   5.534   1.032  11.019 -0.4624  0.5986 -0.4143
 1741TIP3   OH226637   5.709   4.223   2.085 -0.6111 -0.1006  0.9253
 1741TIP3    H126638   5.778   4.176   2.038  0.1113  1.0009  0.8795
 1741TIP3    H226639   5.666   4.276   2.018 -0.0735  0.8888  1.3535
 1742TIP3   OH226640   1.276   0.651  16.749  0.0891  0.0822  0.3792
 1742TIP3    H126641   1.292   0.695  16.666 -1.0259  0.3840  0.3135
 1742TIP3    H226642   1.355   0.601  16.766  0.3973  0.1789 -0.7651
 1743TIP3   OH226643   4.046   4.317   5.843 -0.3705  0.2601 -0.5382
 1743TIP3    H126644   4.050   4.360   5.758 -1.2009 -0.6309 -1.0265
 1743TIP3    H226645   3.960   4.277   5.847 -0.6911  1.0452  1.0974
 1744TIP3   OH226646   5.653   1.889  13.825 -0.1119  0.0335  0.1184
 1744TIP3    H126647   5.694   1.803  13.811  0.8191  0.3510  0.7980
 1744TIP3    H226648   5.568   1.869  13.863 -0.3457 -0.6291 -0.7423
 1745TIP3   OH226649   4.908   6.029   2.652  0.2331 -0.7758 -0.2203
 1745TIP3    H126650   4.901   6.075   2.568  3.0999 -1.7253 -1.0449
 1745TIP3    H226651   4.820   5.996   2.669 -0.7922  0.9885 -1.9470
 1746TIP3   OH226652   2.544   1.605   4.108  0.0325 -0.1247 -0.0208
 1746TIP3    H126653   2.533   1.693   4.071 -1.9539 -0.4979 -0.4229
 1746TIP3    H226654   2.501   1.609   4.193  0.9245 -0.3954  0.4399
 1747TIP3   OH226655   3.418   1.760   5.006  0.4484  0.6427 -0.6465
 1747TIP3    H126656   3.355   1.819   5.047  1.0893  1.9863 -1.5660
 1747TIP3    H226657   3.384   1.746   4.917  0.1002 -0.6908 -0.3227
 1748TIP3   OH226658   6.033   5.493  12.372  0.1393 -0.2045  0.2549
 1748TIP3    H126659   6.017   5.583  12.343 -0.0042 -0.6515 -1.0883
 1748TIP3    H226660   5.994   5.489  12.459  0.0299  1.0029  0.2688
 1749TIP3   OH226661   4.876   4.818  11.505 -0.0555 -0.5224 -0.2105
 1749TIP3    H126662   4.888   4.738  11.454 -1.3271  0.3084 -1.8528
 1749TIP3    H226663   4.902   4.794  11.594 -0.1652 -2.6709 -0.7371
 1750TIP3   OH226664   1.725   2.096  16.795  0.5356  0.0341 -0.1886
 1750TIP3    H126665   1.803   2.144  16.767  2.7001 -2.3392  1.5189
 1750TIP3    H226666   1.655   2.129  16.739  3.1234  0.9828 -3.0139
 1751TIP3   OH226667   3.809   5.086  12.349 -0.0972  0.0886  0.0387
 1751TIP3    H126668   3.752   5.017  12.383 -0.2643  0.0598 -0.2888
 1751TIP3    H226669   3.877   5.040  12.300 -0.2325  0.1535 -0.2149
 1752TIP3   OH226670   3.132   6.564   2.115  0.4661 -0.0477  0.6758
 1752TIP3    H126671   3.062   6.607   2.065 -0.0953 -1.4729  0.1951
 1752TIP3    H226672   3.142   6.617   2.194 -0.3874  0.8071  0.2147
 1753TIP3   OH226673   6.665   6.243  16.420 -0.3286  0.0208  0.7413
 1753TIP3    H126674   6.736   6.185  16.390  0.9725  0.9000  2.0558
 1753TIP3    H226675   6.608   6.185  16.471 -0.0742 -0.4918  0.4567
 1754TIP3   OH226676   4.975   6.621  13.450 -0.2198  0.4110 -0.0788
 1754TIP3    H126677   4.934   6.708  13.454 -0.1284  0.5461 -1.5776
 1754TIP3    H226678   5.060   6.637  13.409  0.8830 -0.0325  1.9878
 1755TIP3   OH226679   3.126   2.970  15.745 -0.0292  0.0990 -0.3425
 1755TIP3    H126680   3.187   2.923  15.801 -1.9940 -0.6399  1.2253
 1755TIP3    H226681   3.079   2.901  15.698 -0.0386  0.6413 -1.1392
 1756TIP3   OH226682   5.646   6.166  14.782 -0.3461 -0.2959 -0.2785
 1756TIP3    H126683   5.611   6.139  14.867 -1.0298 -0.6226 -0.6566
 1756TIP3    H226684   5.690   6.249  14.799 -1.5331  0.2612  0.1657
 1757TIP3   OH226685   1.029   0.946   5.589  0.1530 -0.0632  0.1898
 1757TIP3    H126686   1.018   0.991   5.673  0.6668  1.6290 -0.6204
 1757TIP3    H226687   0.944   0.955   5.546  0.6225  1.2237 -0.4827
 1758TIP3   OH226688   3.356   1.347  14.097  0.2364  0.2337  0.2085
 1758TIP3    H126689   3.390   1.435  14.081  0.9425  0.2906  1.9359
 1758TIP3    H226690   3.281   1.361  14.156 -0.8724 -0.1623 -1.0866
 1759TIP3   OH226691   2.886   3.080  12.748  0.0283  0.6113 -0.1985
 1759TIP3    H126692   2.941   3.111  12.820 -0.2305  0.0285  0.2622
 1759TIP3    H226693   2.806   3.051  12.792 -0.9952  2.2446 -0.9401
 1760TIP3   OH226694   1.274   5.862  12.604 -0.5041 -0.1270 -0.0924
 1760TIP3    H126695   1.368   5.861  12.623 -0.2868 -0.6083 -1.1470
 1760TIP3    H226696   1.269   5.881  12.510 -1.5215  1.5215  0.2763
 1761TIP3   OH226697   1.067   4.405   4.203  0.4565  0.5464  0.3377
 1761TIP3    H126698   1.016   4.486   4.213 -0.1874  0.2219 -0.2954
 1761TIP3    H226699   1.155   4.436   4.183  0.1832  1.1004 -0.0488
 1762TIP3   OH226700   1.763   3.296   5.026 -0.1840  0.0986 -0.1211
 1762TIP3    H126701   1.763   3.207   5.061  1.3359  0.4955  0.9386
 1762TIP3    H226702   1.829   3.296   4.958  1.1628  0.8732  1.1529
 1763TIP3   OH226703   0.711   5.376   3.773  0.2889 -0.0432  0.1216
 1763TIP3    H126704   0.724   5.287   3.805  1.6908  0.1214  0.0224
 1763TIP3    H226705   0.665   5.420   3.844  0.5190 -0.5508  0.5888
 1764TIP3   OH226706   1.136   0.376  13.826  0.0305  0.0571 -0.3973
 1764TIP3    H126707   1.173   0.423  13.751 -0.9461  2.3653  0.5205
 1764TIP3    H226708   1.194   0.301  13.838  0.3996 -0.1533 -3.2297
 1765TIP3   OH226709   4.672   1.703  17.055  0.1028 -0.3001  0.0605
 1765TIP3    H126710   4.703   1.789  17.027  0.7509 -0.3499  0.6220
 1765TIP3    H226711   4.621   1.671  16.981  1.7182 -0.3838 -1.0224
 1766TIP3   OH226712   4.260   3.927  14.488 -0.2017 -0.0824  0.5743
 1766TIP3    H126713   4.181   3.875  14.476 -0.5390  0.6836 -0.5261
 1766TIP3    H226714   4.240   4.012  14.449  0.9315  0.3393  0.8786
 1767TIP3   OH226715   4.295   0.070  16.524 -0.5198  0.5025 -0.4556
 1767TIP3    H126716   4.313  -0.015  16.483  2.0246  0.6738  0.2523
 1767TIP3    H226717   4.200   0.070  16.537 -0.6541 -1.9207 -1.1365
 1768TIP3   OH226718   1.890   1.499  13.710  0.5660 -0.2547  0.8134
 1768TIP3    H126719   1.876   1.515  13.804  1.6762  0.0699  0.9343
 1768TIP3    H226720   1.974   1.453  13.707  2.0929  2.5203 -0.2621
 1769TIP3   OH226721   1.091   5.583  11.938  0.0707 -0.0856  0.5813
 1769TIP3    H126722   1.165   5.589  11.999 -0.2144  0.0817  0.9097
 1769TIP3    H226723   1.071   5.489  11.935  0.8424 -0.2406 -0.1678
 1770TIP3   OH226724   1.646   6.717   1.195  0.0911 -0.2549  0.4040
 1770TIP3    H126725   1.735   6.708   1.159  0.3057 -1.8469  1.2862
 1770TIP3    H226726   1.656   6.693   1.287 -0.7275  2.3278  1.2163
 1771TIP3   OH226727   2.720   5.976   4.249  0.3908  0.7891  0.1722
 1771TIP3    H126728   2.689   5.956   4.338  1.0653 -0.7102  0.1027
 1771TIP3    H226729   2.815   5.964   4.255  0.3055 -0.6086 -1.0569
 1772TIP3   OH226730   5.485   3.796  16.075 -0.2103  0.9475  0.5344
 1772TIP3    H126731   5.466   3.779  15.983  0.7331  2.1021  0.1129
 1772TIP3    H226732   5.428   3.736  16.123 -1.2817  0.8859 -0.7826
 1773TIP3   OH226733   2.958   2.668  14.944 -0.0474  0.0094 -0.3122
 1773TIP3    H126734   3.013   2.698  14.871  0.4147  0.2199  0.1226
 1773TIP3    H226735   2.893   2.611  14.903 -0.7737  1.3919 -1.1215
 1774TIP3   OH226736   5.386   1.998  14.574 -0.5280 -0.0163  0.3523
 1774TIP3    H126737   5.362   2.048  14.652  0.7095  1.5140 -0.2061
 1774TIP3    H226738   5.454   2.052  14.532  0.2877 -1.8170 -0.6747
 1775TIP3   OH226739   5.187   4.616  16.426 -0.3701 -0.6584  0.0112
 1775TIP3    H126740   5.095   4.593  16.414 -0.8468  1.1307  0.1836
 1775TIP3    H226741   5.190   4.659  16.511  0.5809 -0.4449 -0.1300
 1776TIP3   OH226742   2.397   0.591   6.310  0.3402  0.4968  1.2637
 1776TIP3    H126743   2.444   0.580   6.393  0.9229  0.6931  0.9583
 1776TIP3    H226744   2.457   0.639   6.254 -0.1255  0.5238  0.7806
 1777TIP3   OH226745   2.453   0.536   4.047  0.5200  0.0500  0.1609
 1777TIP3    H126746   2.445   0.463   4.108  0.1247 -0.6835 -0.7563
 1777TIP3    H226747   2.546   0.559   4.049  0.8091 -1.0655 -0.2129
 1778TIP3   OH226748   6.173   0.085   1.718  0.2822 -0.3682  0.4998
 1778TIP3    H126749   6.112   0.158   1.727 -0.4395 -0.9823  0.6519
 1778TIP3    H226750   6.236   0.097   1.790  0.2278  0.1459  0.4668
 1779TIP3   OH226751   0.309   2.231  12.867  0.2202  0.0583 -0.0029
 1779TIP3    H126752   0.274   2.318  12.884  1.9222  0.5403  1.1397
 1779TIP3    H226753   0.234   2.181  12.835 -0.8979  1.7813 -0.1414
 1780TIP3   OH226754   2.153   4.307   3.833  0.3261 -0.5414  0.2773
 1780TIP3    H126755   2.078   4.251   3.851 -0.1619  0.3550  1.1266
 1780TIP3    H226756   2.134   4.347   3.748  0.0892 -0.7108  0.2513
 1781TIP3   OH226757   1.840   2.908  15.105 -0.7825 -0.1861 -0.3001
 1781TIP3    H126758   1.919   2.884  15.153 -1.0446  0.0307  0.2426
 1781TIP3    H226759   1.842   2.853  15.026  0.2813  0.3529 -0.6543
 1782TIP3   OH226760   6.748   2.072   5.105 -0.1023  0.5331 -0.2502
 1782TIP3    H126761   6.758   2.090   5.011 -1.0283 -1.2554 -0.7121
 1782TIP3    H226762   6.834   2.089   5.142  1.5000 -2.8872 -2.1426
 1783TIP3   OH226763   6.444   6.067  14.793 -0.4231  0.2133  0.5583
 1783TIP3    H126764   6.391   6.112  14.859  0.9736  1.6436  0.7597
 1783TIP3    H226765   6.523   6.122  14.785  1.4263 -2.3170  0.9227
 1784TIP3   OH226766   0.086   2.176   6.162 -0.0787 -0.1162 -0.7866
 1784TIP3    H126767   0.179   2.151   6.160  0.3988  1.4632  0.9649
 1784TIP3    H226768   0.043   2.106   6.211  1.0761  1.7937  3.1317
 1785TIP3   OH226769   2.354   2.691  12.914 -0.1726 -0.6416  0.4403
 1785TIP3    H126770   2.329   2.663  13.002 -2.7248  2.5149  0.8160
 1785TIP3    H226771   2.271   2.692  12.865  0.6953  0.7827 -1.0457
 1786TIP3   OH226772   5.813   1.076   0.618 -0.1269  0.7383  0.3055
 1786TIP3    H126773   5.807   1.098   0.525  1.6040  0.4147  0.0984
 1786TIP3    H226774   5.884   1.132   0.651 -0.0925  0.1649  1.2206
 1787TIP3   OH226775   1.013   6.348  11.641  0.3319  1.2281 -0.0981
 1787TIP3    H126776   1.023   6.269  11.588 -0.2127  1.0648  0.0345
 1787TIP3    H226777   1.102   6.368  11.671  0.4404  0.5273  0.0677
 1788TIP3   OH226778   0.954   1.988  12.482 -0.9603  0.0942  0.2859
 1788TIP3    H126779   0.864   1.991  12.451 -0.9215 -2.0204 -0.0660
 1788TIP3    H226780   1.002   1.945  12.412 -0.0662 -0.7676  1.4087
 1789TIP3   OH226781   4.930   5.864  16.202 -0.2527 -0.2641 -0.6041
 1789TIP3    H126782   4.889   5.842  16.286  0.8565 -1.0592 -0.2764
 1789TIP3    H226783   5.016   5.824  16.205 -0.3650 -0.6857 -2.3214
 1790TIP3   OH226784   4.545   5.990  15.184 -0.2405 -0.2513 -0.1627
 1790TIP3    H126785   4.454   6.020  15.183 -0.8332 -1.9762  0.4488
 1790TIP3    H226786   4.576   6.007  15.095 -0.1302  3.2775  0.4676
 1791TIP3   OH226787   6.438   4.548  15.959 -0.5009 -0.1318 -0.1229
 1791TIP3    H126788   6.440   4.628  15.906  0.1667  0.7406  1.1959
 1791TIP3    H226789   6.345   4.531  15.974 -0.6636  0.0983 -0.8565
 1792TIP3   OH226790   3.973   1.169  16.397 -0.3652  0.0746  1.0204
 1792TIP3    H126791   3.940   1.123  16.319 -0.5008  0.5059  0.8163
 1792TIP3    H226792   3.954   1.110  16.470 -0.0745 -0.4162  0.7062
 1793TIP3   OH226793   2.046   3.517  14.207 -0.6287 -0.3353 -0.4197
 1793TIP3    H126794   2.077   3.589  14.263 -0.6241 -0.6645  0.0005
 1793TIP3    H226795   1.976   3.557  14.155 -0.5244  0.0165 -0.2953
 1794TIP3   OH226796   4.873   3.167  12.198  0.1866  0.2599  0.3442
 1794TIP3    H126797   4.914   3.083  12.176 -1.2959 -0.5956  0.7388
 1794TIP3    H226798   4.836   3.153  12.285 -0.8860  1.0103  0.0131
 1795TIP3   OH226799   6.034   3.547  14.224 -0.1996 -0.3748  0.1957
 1795TIP3    H126800   6.086   3.542  14.144 -1.0860  0.5670 -0.4425
 1795TIP3    H226801   6.012   3.456  14.244  0.5209 -0.6629 -0.2873
 1796TIP3   OH226802   6.337   4.616  13.788  0.2328 -0.5625 -0.5004
 1796TIP3    H126803   6.416   4.563  13.779  1.3569  0.8703  0.6822
 1796TIP3    H226804   6.354   4.693  13.734 -0.0533  0.0747  0.3047
 1797TIP3   OH226805   4.434   5.103   0.428 -0.1772 -0.3994 -0.3538
 1797TIP3    H126806   4.516   5.137   0.464 -0.5180  1.5094 -1.2832
 1797TIP3    H226807   4.366   5.155   0.470 -0.7648 -0.4609 -1.2076
 1798TIP3   OH226808   3.302   6.331  12.891 -0.1661  0.8109 -0.1099
 1798TIP3    H126809   3.357   6.409  12.905 -1.0593  1.2545  1.0274
 1798TIP3    H226810   3.285   6.298  12.979 -0.6729 -0.0690 -0.5325
 1799TIP3   OH226811   0.580   5.939  13.656  0.2828 -0.2948  0.4981
 1799TIP3    H126812   0.655   5.915  13.602 -0.7201 -1.3313 -0.4769
 1799TIP3    H226813   0.579   5.874  13.726 -0.6012 -1.2502 -0.3757
 1800TIP3   OH226814   6.389   1.778   0.196  0.0049  0.7221 -0.1028
 1800TIP3    H126815   6.462   1.717   0.207 -0.4672 -0.0819 -1.2809
 1800TIP3    H226816   6.339   1.742   0.122 -0.3584  2.4454 -0.7209
 1801TIP3   OH226817   6.543   6.316   4.505  0.7958  0.6559 -0.4079
 1801TIP3    H126818   6.493   6.249   4.458 -0.3202  1.0282  0.2220
 1801TIP3    H226819   6.612   6.342   4.444  0.5082 -0.2076 -1.1110
 1802TIP3   OH226820   2.468   1.882  14.663  0.0010 -0.3420 -0.5246
 1802TIP3    H126821   2.392   1.937  14.641  2.0440  2.2142 -1.5418
 1802TIP3    H226822   2.480   1.894  14.757 -0.6776 -0.4745 -0.4236
 1803TIP3   OH226823   3.075   3.230  12.294 -0.3759 -0.2068 -0.3852
 1803TIP3    H126824   3.073   3.136  12.312  1.2374 -0.0348  0.8231
 1803TIP3    H226825   3.100   3.270  12.378  3.5249  0.9243 -1.9601
 1804TIP3   OH226826   0.312   5.912  14.552 -0.1000 -0.1018  0.3623
 1804TIP3    H126827   0.264   5.953  14.480  0.9243 -1.0596 -0.8861
 1804TIP3    H226828   0.256   5.926  14.629 -2.5084 -1.3769 -1.0799
 1805TIP3   OH226829   4.329   5.964   4.613 -0.6287 -0.0370  0.0567
 1805TIP3    H126830   4.310   5.879   4.653 -0.3758 -0.1292 -0.0159
 1805TIP3    H226831   4.363   6.017   4.684  1.2709 -0.6800 -0.3436
 1806TIP3   OH226832   1.697   5.471  15.282  0.7017  0.1563 -0.5739
 1806TIP3    H126833   1.705   5.511  15.369  1.8334  0.6982 -0.9295
 1806TIP3    H226834   1.661   5.541  15.227 -1.6568 -0.6958 -0.1691
 1807TIP3   OH226835   0.077   1.263   2.740  0.4511  0.4221 -0.8446
 1807TIP3    H126836   0.067   1.170   2.761  0.2487  0.8717  1.0852
 1807TIP3    H226837   0.091   1.306   2.824  1.7834  2.0011 -1.8321
 1808TIP3   OH226838   0.149   3.339  11.336  0.2271  0.0644 -0.7372
 1808TIP3    H126839   0.078   3.300  11.285  1.3633  0.3589 -2.5890
 1808TIP3    H226840   0.195   3.396  11.274  0.6095  1.7585  1.0674
 1809TIP3   OH226841   2.544   4.445  11.419 -0.2245  0.4927  0.2251
 1809TIP3    H126842   2.539   4.443  11.515  0.6690 -1.6280  0.2593
 1809TIP3    H226843   2.603   4.518  11.400  2.4010 -1.2244  1.4707
 1810TIP3   OH226844   1.559   3.935  15.454  0.0812  0.8651 -0.8524
 1810TIP3    H126845   1.503   3.891  15.391 -0.3129  1.2855 -0.7987
 1810TIP3    H226846   1.570   4.024  15.419 -1.9100  1.7852  0.7491
 1811TIP3   OH226847   5.413   0.621   3.196 -0.9189  0.4705  0.5362
 1811TIP3    H126848   5.505   0.616   3.223 -0.9185  0.1388  0.4847
 1811TIP3    H226849   5.414   0.679   3.120 -0.8851  1.2018  1.0937
 1812TIP3   OH226850   5.008   0.239   3.999  0.6553 -0.1446 -0.2189
 1812TIP3    H126851   4.917   0.214   4.017  0.2409 -0.2998 -2.3049
 1812TIP3    H226852   5.005   0.334   3.987  0.2269 -0.4481 -2.9379
 1813TIP3   OH226853   4.383   6.310  14.686 -0.3645  0.2838 -0.7532
 1813TIP3    H126854   4.405   6.312  14.593 -0.8582  0.7980 -0.8592
 1813TIP3    H226855   4.372   6.217  14.706 -0.5885  0.1948 -1.2851
 1814TIP3   OH226856   3.296   1.517   3.046  0.5377  0.6604  0.4388
 1814TIP3    H126857   3.213   1.539   3.004  0.7975 -0.1687 -0.5259
 1814TIP3    H226858   3.293   1.422   3.057  0.5595  0.8302  2.1446
 1815TIP3   OH226859   5.287   5.246   2.918  0.0434 -0.4581  0.7535
 1815TIP3    H126860   5.329   5.251   2.833 -3.1445 -1.2990 -0.9503
 1815TIP3    H226861   5.338   5.181   2.967  0.6859 -1.5013 -1.2549
 1816TIP3   OH226862   5.974   0.381  17.148  0.0648 -0.5876 -0.2231
 1816TIP3    H126863   6.047   0.435  17.179 -1.7674  1.6402  0.2941
 1816TIP3    H226864   5.978   0.302  17.202  0.1923  0.8976  1.9767
 1817TIP3   OH226865   2.110   3.947   0.870  0.1037 -0.0853  0.2501
 1817TIP3    H126866   2.032   3.983   0.827 -0.6070 -0.4057  1.2674
 1817TIP3    H226867   2.129   4.009   0.941  0.6481 -0.1301  0.1502
 1818TIP3   OH226868   5.694   2.631   1.262 -0.2182  0.6207 -0.8764
 1818TIP3    H126869   5.729   2.543   1.247  2.3899  0.9772  2.5538
 1818TIP3    H226870   5.610   2.617   1.306 -0.6089 -0.1468 -1.8447
 1819TIP3   OH226871   3.264   1.804  11.834  0.4146 -0.1056 -0.4455
 1819TIP3    H126872   3.345   1.753  11.842 -0.6216 -2.3340 -3.2399
 1819TIP3    H226873   3.222   1.796  11.920  2.2018 -0.6469  0.3911
 1820TIP3   OH226874   4.757   4.951   2.504  0.1680  0.4198 -0.1244
 1820TIP3    H126875   4.690   4.922   2.566 -1.5309 -1.2788 -2.6738
 1820TIP3    H226876   4.831   4.891   2.520 -0.3336 -0.1445  0.1115
 1821TIP3   OH226877   0.199   2.284  14.348 -0.6847 -0.2276  0.3645
 1821TIP3    H126878   0.158   2.229  14.415 -0.1852 -1.3916 -0.2739
 1821TIP3    H226879   0.201   2.229  14.270 -0.9767  1.0166 -0.5255
 1822TIP3   OH226880   1.354   1.847   6.092 -0.3643 -0.1246 -0.5870
 1822TIP3    H126881   1.291   1.779   6.066  0.6707 -0.2002 -3.0419
 1822TIP3    H226882   1.345   1.853   6.187 -1.9469 -2.2449 -0.5668
 1823TIP3   OH226883   0.140   4.379   2.636 -0.2341 -0.2908  0.1280
 1823TIP3    H126884   0.114   4.405   2.724 -0.6770 -3.9786  1.1596
 1823TIP3    H226885   0.057   4.371   2.588 -0.2217 -1.1796  0.2449
 1824TIP3   OH226886   0.940   6.029  16.618 -0.4482  0.0088 -0.4339
 1824TIP3    H126887   1.030   6.042  16.648 -1.4546  1.8787  1.8482
 1824TIP3    H226888   0.904   6.117  16.607 -2.6200 -0.7169  0.5652
 1825TIP3   OH226889   1.264   2.109  10.305  0.2798  0.2554 -0.2364
 1825TIP3    H126890   1.171   2.126  10.319  0.7519  0.7939  2.4169
 1825TIP3    H226891   1.266   2.035  10.245 -1.8488 -0.8406  1.0030
 1826TIP3   OH226892   6.005   6.192   3.278 -0.9519  0.1869 -0.0651
 1826TIP3    H126893   6.024   6.282   3.254  0.8467  0.2413  1.4385
 1826TIP3    H226894   5.937   6.199   3.345 -2.3171  0.2944 -1.4419
 1827TIP3   OH226895   4.957   2.672   5.052 -0.5923  0.2673 -0.3351
 1827TIP3    H126896   4.889   2.736   5.029 -0.5517  0.2413 -0.5228
 1827TIP3    H226897   4.911   2.588   5.057 -0.7287  0.3803  0.3441
 1828TIP3   OH226898   4.361   3.710   2.639 -0.1839  0.0646  0.3588
 1828TIP3    H126899   4.353   3.768   2.714  0.3158  2.8902 -1.6970
 1828TIP3    H226900   4.282   3.728   2.587  1.2428  0.8744 -1.5887
 1829TIP3   OH226901   0.918   0.067   1.916  0.4867  0.7760  0.2725
 1829TIP3    H126902   0.942  -0.022   1.942  2.0359  0.6041 -1.5913
 1829TIP3    H226903   1.001   0.116   1.920 -0.1767  1.9008  0.3951
 1830TIP3   OH226904   5.287   1.189   5.432 -0.0416 -0.1360  0.4572
 1830TIP3    H126905   5.308   1.096   5.431 -0.5364 -0.2474  0.4395
 1830TIP3    H226906   5.191   1.193   5.433 -0.0360  0.3846 -0.4191
 1831TIP3   OH226907   4.440   2.409   3.767 -0.5430 -0.2046 -0.1429
 1831TIP3    H126908   4.508   2.409   3.834 -0.8607  0.2755  0.1877
 1831TIP3    H226909   4.365   2.366   3.808 -1.1769  1.2573  0.2880
 1832TIP3   OH226910   4.078   3.219   4.697  0.0904  0.0282  0.1569
 1832TIP3    H126911   4.015   3.157   4.662 -0.6660  0.7039  0.3088
 1832TIP3    H226912   4.094   3.281   4.625 -0.2448  0.4806  0.4661
 1833TIP3   OH226913   6.205   3.731  13.294 -0.0888  0.1937 -0.3097
 1833TIP3    H126914   6.232   3.641  13.278 -0.4357  0.0068  0.1490
 1833TIP3    H226915   6.125   3.723  13.345 -0.3088  0.7592 -0.5623
 1834TIP3   OH226916   3.787   6.722  10.967 -0.1812  0.4549 -0.2802
 1834TIP3    H126917   3.768   6.816  10.974  0.9019  0.5598  1.7105
 1834TIP3    H226918   3.872   6.719  10.923  0.0370  0.4408  0.1377
 1835TIP3   OH226919   0.508   6.389   3.033  0.4474 -0.5801  0.3692
 1835TIP3    H126920   0.552   6.468   3.000 -0.6621  0.5235  1.4671
 1835TIP3    H226921   0.576   6.341   3.080  0.7859  0.4840  0.9803
 1836TIP3   OH226922   4.459   1.967  15.139  1.0486  0.0043  0.0321
 1836TIP3    H126923   4.407   1.916  15.202  1.8114 -1.3880 -0.4250
 1836TIP3    H226924   4.526   2.009  15.193  1.0206 -0.2875  0.2995
 1837TIP3   OH226925   0.016   0.688   3.384  0.0085 -0.5190 -0.2384
 1837TIP3    H126926  -0.009   0.628   3.455 -0.7812 -0.2628 -0.2907
 1837TIP3    H226927   0.016   0.634   3.305 -1.6517 -0.2608 -0.4376
 1838TIP3   OH226928   3.774   2.737   1.236  0.1078  0.3696 -0.0786
 1838TIP3    H126929   3.708   2.751   1.168  0.6315  0.3061 -0.6023
 1838TIP3    H226930   3.819   2.821   1.242 -0.2670  0.5328  0.5520
 1839TIP3   OH226931   6.457   1.335  13.191  0.0387 -0.3832  0.5861
 1839TIP3    H126932   6.442   1.290  13.107 -2.5028 -0.4367  1.0237
 1839TIP3    H226933   6.548   1.316  13.212  1.3251  1.2129 -3.0845
 1840TIP3   OH226934   3.594   4.794   2.085 -0.0371  0.0243 -0.0667
 1840TIP3    H126935   3.669   4.839   2.124 -0.6931  0.5194  0.6512
 1840TIP3    H226936   3.623   4.769   1.998  0.8692  0.4573  0.1065
 1841TIP3   OH226937   2.749   2.935   3.671  0.8598  0.5653 -0.8889
 1841TIP3    H126938   2.736   2.841   3.684 -1.5401  0.5847 -2.6113
 1841TIP3    H226939   2.791   2.965   3.751 -0.5169 -1.5891  0.7093
 1842TIP3   OH226940   2.177   6.006  13.147 -0.3945 -0.4360  0.5581
 1842TIP3    H126941   2.228   5.971  13.220  1.5814 -2.9544 -1.8776
 1842TIP3    H226942   2.095   5.958  13.150 -0.0755 -0.9774  0.8080
 1843TIP3   OH226943   3.027   0.788  13.064 -0.5093 -0.0259 -0.1158
 1843TIP3    H126944   3.069   0.724  13.122 -1.0862  1.2040  1.7200
 1843TIP3    H226945   3.100   0.828  13.017  0.2233  0.5382  1.4403
 1844TIP3   OH226946   4.286   2.017  14.038  0.0548 -0.2392  0.6404
 1844TIP3    H126947   4.241   2.098  14.018 -0.8439 -0.7609  0.5543
 1844TIP3    H226948   4.285   1.967  13.956  0.8664 -0.2233  0.6090
 1845TIP3   OH226949   5.041   3.188  13.542  0.4738 -0.3704  0.0260
 1845TIP3    H126950   5.081   3.269  13.573  0.3690  0.5129 -2.0150
 1845TIP3    H226951   4.964   3.217  13.493 -1.9022 -1.9695  2.6917
 1846TIP3   OH226952   6.347   4.999  12.202  0.4522  0.4141  0.2998
 1846TIP3    H126953   6.342   5.065  12.271 -4.3839 -0.2947  0.7494
 1846TIP3    H226954   6.332   4.916  12.246  1.8865 -0.5517 -0.9639
 1847TIP3   OH226955   6.627   5.827  13.639 -0.4759  0.1325 -0.3567
 1847TIP3    H126956   6.553   5.876  13.603 -0.6623  0.1247  0.0112
 1847TIP3    H226957   6.587   5.749  13.678 -0.2962  0.2263  0.0201
 1848TIP3   OH226958   3.077   3.809  16.235  0.1778 -0.1989 -0.3099
 1848TIP3    H126959   2.988   3.773  16.235  0.2747 -0.5053 -1.9992
 1848TIP3    H226960   3.127   3.749  16.179  2.0869 -1.4805  2.6709
 1849TIP3   OH226961   4.685   2.376  12.319  0.1472 -0.1146 -0.4036
 1849TIP3    H126962   4.682   2.281  12.335  0.7930  0.1703  1.5844
 1849TIP3    H226963   4.739   2.410  12.390 -1.0202  1.8802 -0.4434
 1850TIP3   OH226964   5.534   2.315  15.375 -0.0482  0.2126 -0.0393
 1850TIP3    H126965   5.616   2.269  15.393 -0.3402  0.0743  0.9815
 1850TIP3    H226966   5.471   2.276  15.436 -0.9723  0.0359 -1.1044
 1851TIP3   OH226967   3.346   5.805  15.227  0.2079 -0.1584 -0.3749
 1851TIP3    H126968   3.388   5.727  15.262  0.5219 -0.8179 -2.1673
 1851TIP3    H226969   3.282   5.771  15.164  0.1065  1.0172 -0.9174
 1852TIP3   OH226970   5.903   1.698   0.209 -0.2578  0.0473  0.3352
 1852TIP3    H126971   5.914   1.772   0.268  0.6397 -0.3736  0.6966
 1852TIP3    H226972   5.968   1.712   0.140 -0.5883 -0.0182  0.0049
 1853TIP3   OH226973   6.632   2.082   3.403 -0.0693 -0.4605  0.0751
 1853TIP3    H126974   6.570   2.058   3.472  0.4127  0.5827  0.8798
 1853TIP3    H226975   6.689   2.005   3.396 -0.3110 -0.6997  0.6280
 1854TIP3   OH226976   5.855   4.175  16.714 -0.5048  0.0381  0.6486
 1854TIP3    H126977   5.821   4.165  16.625 -0.1751  0.2102  0.5044
 1854TIP3    H226978   5.777   4.194  16.767 -0.6394  0.4443  0.3144
 1855TIP3   OH226979   2.376   0.711  14.608 -0.5499  0.1580  0.4693
 1855TIP3    H126980   2.282   0.709  14.589 -0.3071  0.6103 -0.8261
 1855TIP3    H226981   2.418   0.677  14.528  0.3745 -0.3311  1.1476
 1856TIP3   OH226982   5.046   0.123  14.076 -0.3404 -0.0204  0.4451
 1856TIP3    H126983   5.033   0.030  14.057  0.5221  0.0552 -0.5585
 1856TIP3    H226984   5.092   0.123  14.161  0.6563 -0.5592 -0.0855
 1857TIP3   OH226985   6.482   1.736   1.379 -0.5576 -0.9678 -0.2453
 1857TIP3    H126986   6.536   1.788   1.320  0.0588 -1.5102 -0.1671
 1857TIP3    H226987   6.403   1.717   1.329 -0.8667  0.1872 -0.2075
 1858TIP3   OH226988   6.364   2.464   2.152  0.1426 -0.3330  0.2633
 1858TIP3    H126989   6.296   2.509   2.102 -1.1964 -2.4173  0.1447
 1858TIP3    H226990   6.358   2.502   2.240  2.1918  3.0023 -0.9489
 1859TIP3   OH226991   0.891   0.154   0.430 -0.4875  0.2747  0.2245
 1859TIP3    H126992   0.796   0.143   0.428 -0.6409  0.8191  2.6691
 1859TIP3    H226993   0.923   0.092   0.365 -2.5535  0.6379 -1.2014
 1860TIP3   OH226994   5.125   2.087  10.979  0.6033 -0.1515  0.4213
 1860TIP3    H126995   5.045   2.106  10.929  0.5020  1.9421  1.3709
 1860TIP3    H226996   5.096   2.030  11.050  0.3922 -1.4105 -0.6522
 1861TIP3   OH226997   6.078   1.816  12.890 -0.5324 -0.2157  0.2012
 1861TIP3    H126998   6.055   1.769  12.970  0.9938 -0.2908  0.6170
 1861TIP3    H226999   6.111   1.748  12.831 -0.9247 -0.0495 -0.2106
 1862TIP3   OH227000   0.169   0.265   4.566  0.4587  0.3332 -0.1269
 1862TIP3    H127001   0.156   0.360   4.568 -0.5826  0.1954 -0.0082
 1862TIP3    H227002   0.151   0.237   4.656  0.3644 -0.0248 -0.2600
 1863TIP3   OH227003   2.100   3.435  10.612  0.1770 -0.1880  0.5220
 1863TIP3    H127004   2.103   3.359  10.670  0.3086 -0.6336 -0.0679
 1863TIP3    H227005   2.044   3.408  10.539  0.6779  0.0798  0.0335
 1864TIP3   OH227006   2.902   4.120  15.404  0.5191 -0.0823  0.3642
 1864TIP3    H127007   2.895   4.143  15.312 -1.0437  1.6803  0.8957
 1864TIP3    H227008   2.938   4.031  15.404 -1.6344 -1.0024 -1.9856
 1865TIP3   OH227009   0.752   3.983  12.285 -0.0468  0.1131  0.1890
 1865TIP3    H127010   0.663   4.016  12.273 -0.5922 -1.4608 -0.1969
 1865TIP3    H227011   0.741   3.904  12.339  0.9809 -0.7622 -0.8478
 1866TIP3   OH227012   5.522   4.257  17.125 -0.0585  0.4615  0.0774
 1866TIP3    H127013   5.471   4.182  17.154  2.3819 -1.5652 -0.7686
 1866TIP3    H227014   5.608   4.246  17.166  0.7781  2.0086 -1.2077
 1867TIP3   OH227015   5.740   4.583  13.653  1.2326 -0.0045  0.4457
 1867TIP3    H127016   5.690   4.629  13.586  1.8666 -0.1727 -0.1436
 1867TIP3    H227017   5.690   4.503  13.670  2.5616 -1.3903 -1.9198
 1868TIP3   OH227018   4.027   4.852   5.269 -0.4029 -0.2876  0.0569
 1868TIP3    H127019   4.081   4.923   5.303 -0.0299 -1.0022  0.9858
 1868TIP3    H227020   3.984   4.889   5.192  0.9172  0.4771 -0.3172
 1869TIP3   OH227021   5.087   4.530  14.313 -0.4713  0.0345 -0.4973
 1869TIP3    H127022   5.025   4.467  14.276  0.9096 -0.0788 -2.7437
 1869TIP3    H227023   5.168   4.480  14.325  0.7566  1.4299 -2.6666
 1870TIP3   OH227024   0.486   1.922   1.969  0.5968 -0.2114  0.5248
 1870TIP3    H127025   0.543   1.953   2.039  1.6700 -0.9310 -0.0094
 1870TIP3    H227026   0.486   1.826   1.979 -0.8732 -0.1940  0.7864
 1871TIP3   OH227027   5.410   0.401  15.706  0.2613  0.7348 -0.0819
 1871TIP3    H127028   5.425   0.484  15.661  0.7202  1.1999  0.9023
 1871TIP3    H227029   5.434   0.419  15.797 -1.9702  0.2056  0.6370
 1872TIP3   OH227030   6.424   1.587   1.856 -0.0696  0.5252 -0.6273
 1872TIP3    H127031   6.417   1.567   1.763 -0.6735  1.6742 -0.8357
 1872TIP3    H227032   6.356   1.652   1.872  0.5083  0.8787  0.4593
 1873TIP3   OH227033   1.965   6.044   2.236 -0.2053  0.0472  0.1948
 1873TIP3    H127034   1.883   6.093   2.243  0.0759  0.4242  0.9092
 1873TIP3    H227035   1.981   6.012   2.325 -0.1941 -1.0347 -0.1819
 1874TIP3   OH227036   4.101   1.973  15.672  0.3710 -0.2498  0.1792
 1874TIP3    H127037   4.163   1.924  15.726 -0.4226 -2.0240 -0.4940
 1874TIP3    H227038   4.020   1.974  15.724  0.4676  0.6350  0.3261
 1875TIP3   OH227039   3.034   6.279   0.024 -0.2385 -0.2878 -0.4555
 1875TIP3    H127040   3.033   6.188  -0.005 -2.3978  0.3494 -2.5383
 1875TIP3    H227041   2.964   6.284   0.089 -1.1696  0.2135 -1.4831
 1876TIP3   OH227042   0.163   1.698   6.036  0.5387 -0.3275  0.3730
 1876TIP3    H127043   0.069   1.711   6.048  0.7918  1.9896  0.1955
 1876TIP3    H227044   0.171   1.610   6.000 -1.7381  0.1469 -1.4342
 1877TIP3   OH227045   4.343   4.254  15.520  0.0734 -0.1279  0.6541
 1877TIP3    H127046   4.319   4.162  15.508 -2.1029  0.3429  1.2004
 1877TIP3    H227047   4.369   4.260  15.612 -0.8637  0.0161  0.9171
 1878TIP3   OH227048   4.071   0.141  16.833  0.9910 -0.0283  0.3865
 1878TIP3    H127049   4.004   0.074  16.817  0.4077  0.8762 -1.0061
 1878TIP3    H227050   4.042   0.185  16.914  0.2771 -0.0939  0.1686
 1879TIP3   OH227051   0.546   2.370  16.253  0.4267  0.7568 -0.4550
 1879TIP3    H127052   0.575   2.313  16.182 -1.0082  0.6392 -0.9574
 1879TIP3    H227053   0.583   2.455  16.233  0.4827  0.5918 -1.0394
 1880TIP3   OH227054   4.205   3.779   0.567 -0.1181  0.1053  0.0935
 1880TIP3    H127055   4.285   3.745   0.526 -0.1509  1.1608 -0.8370
 1880TIP3    H227056   4.223   3.774   0.661 -0.3500 -3.0706  0.0212
 1881TIP3   OH227057   4.107   1.973   1.212  0.4282 -0.0814 -0.5787
 1881TIP3    H127058   4.179   1.916   1.238 -0.6197 -0.7544  0.9288
 1881TIP3    H227059   4.116   2.050   1.268 -0.8674 -0.8150  0.6858
 1882TIP3   OH227060   0.960   2.919  14.948 -0.4789  0.4125  0.1683
 1882TIP3    H127061   1.031   2.952  15.004  0.2284 -0.6570 -0.0795
 1882TIP3    H227062   0.935   2.836  14.989  1.7019 -1.6009 -2.4298
 1883TIP3   OH227063   6.462   2.709  15.440 -0.7450  0.1302  0.1174
 1883TIP3    H127064   6.373   2.723  15.408 -0.4132  3.3928  0.4588
 1883TIP3    H227065   6.451   2.688  15.533 -1.1622  0.9962  0.2716
 1884TIP3   OH227066   0.526   4.802   0.500  0.2922  0.5328  0.1910
 1884TIP3    H127067   0.543   4.736   0.567  0.1189 -0.8861 -1.1386
 1884TIP3    H227068   0.446   4.773   0.457  0.5165  1.3220 -0.7765
 1885TIP3   OH227069   5.002   3.234  14.991 -0.3545 -0.1647 -0.1415
 1885TIP3    H127070   5.086   3.189  15.005 -0.3520 -0.0334  0.2731
 1885TIP3    H227071   4.938   3.179  15.037 -0.3105  0.4029  0.6039
 1886TIP3   OH227072   3.326   3.509   4.658  0.5871 -0.3672  0.4008
 1886TIP3    H127073   3.249   3.537   4.707 -0.1884 -0.5291 -0.7090
 1886TIP3    H227074   3.382   3.586   4.653 -0.7530  0.5409 -1.1464
 1887TIP3   OH227075   5.672   1.991  10.549  0.0427 -0.1993 -0.0311
 1887TIP3    H127076   5.614   2.041  10.492 -0.7706 -0.7696  0.3012
 1887TIP3    H227077   5.708   1.922  10.492 -0.0293 -0.1892 -0.0884
 1888TIP3   OH227078   4.766   6.030   0.163 -0.2619 -0.0415 -0.3727
 1888TIP3    H127079   4.790   6.021   0.255 -1.1776 -0.8615 -0.2006
 1888TIP3    H227080   4.688   5.975   0.153  0.5019 -0.9124 -1.9042
 1889TIP3   OH227081   6.601   3.604  12.032  0.1650 -0.7279  0.4559
 1889TIP3    H127082   6.589   3.509  12.037 -1.4463 -0.5515  0.3523
 1889TIP3    H227083   6.616   3.622  11.940  0.2884 -0.8615  0.4505
 1890TIP3   OH227084   1.538   3.763   5.070  0.3004 -0.4056  0.0789
 1890TIP3    H127085   1.627   3.737   5.093  0.6848  1.2244  0.5363
 1890TIP3    H227086   1.543   3.858   5.063 -0.8662 -0.4950 -2.2909
 1891TIP3   OH227087   3.269   5.903   2.504  0.2850 -0.0878 -0.0309
 1891TIP3    H127088   3.364   5.906   2.512  0.2481  3.0966  0.1432
 1891TIP3    H227089   3.238   5.911   2.594 -0.1427 -1.0969 -0.0905
 1892TIP3   OH227090   5.442   4.202  11.934 -0.3036 -0.3307 -0.0380
 1892TIP3    H127091   5.358   4.242  11.914 -0.2084  1.3685  2.6737
 1892TIP3    H227092   5.488   4.268  11.987  2.6597 -1.2934 -1.2953
 1893TIP3   OH227093   5.409   6.070  11.285  0.0953  0.0487 -0.0632
 1893TIP3    H127094   5.317   6.067  11.257  0.1061 -0.2323 -0.0673
 1893TIP3    H227095   5.405   6.112  11.371 -0.0114  0.2590 -0.1672
 1894TIP3   OH227096   2.678   4.276   0.853  0.3000 -0.0819  0.3250
 1894TIP3    H127097   2.765   4.288   0.891  0.0667  3.1673 -0.0785
 1894TIP3    H227098   2.628   4.232   0.922  2.0415 -1.4081  0.7888
 1895TIP3   OH227099   2.146   6.222  11.981  0.4548 -0.2098  0.6130
 1895TIP3    H127100   2.154   6.141  11.932  0.6697 -0.3022  0.7972
 1895TIP3    H227101   2.195   6.286  11.931 -0.5250  0.0429 -0.0424
 1896TIP3   OH227102   5.114   3.082   1.071  0.2122 -0.0548 -1.1968
 1896TIP3    H127103   5.094   2.996   1.034  3.1704 -0.8888 -0.9139
 1896TIP3    H227104   5.141   3.135   0.996  2.4921 -0.6337 -0.8154
 1897TIP3   OH227105   0.805   4.072  11.075  0.3592 -0.6945 -0.1590
 1897TIP3    H127106   0.818   4.004  11.009  1.5337  0.4332 -1.1204
 1897TIP3    H227107   0.886   4.124  11.073 -0.2774  0.3863  0.9536
 1898TIP3   OH227108   3.230   6.557   4.037 -0.6737  0.0568 -0.4693
 1898TIP3    H127109   3.146   6.523   4.004 -0.3196 -1.9612  0.5930
 1898TIP3    H227110   3.205   6.623   4.102 -1.3958  1.3759 -2.0492
 1899TIP3   OH227111   5.512   1.062  13.797 -0.2691 -0.3247 -0.0898
 1899TIP3    H127112   5.430   1.048  13.845  0.2872  1.3986  1.4264
 1899TIP3    H227113   5.487   1.057  13.705 -1.7652 -1.5027  0.3652
 1900TIP3   OH227114   4.485   6.344  12.291 -0.4836  0.6477  0.1527
 1900TIP3    H127115   4.541   6.271  12.264 -0.2712  1.1207 -0.7071
 1900TIP3    H227116   4.479   6.400  12.213  1.6909  3.0334  1.6018
 1901TIP3   OH227117   1.929   4.657  13.657  0.2100 -0.6086 -0.3484
 1901TIP3    H127118   2.010   4.658  13.709 -0.7865  1.1399  1.2481
 1901TIP3    H227119   1.890   4.572  13.674 -0.1690  0.0013  1.9179
 1902TIP3   OH227120   5.860   6.710   3.719 -0.4347 -0.2892 -0.5816
 1902TIP3    H127121   5.769   6.738   3.709 -0.4508 -0.6010 -1.2780
 1902TIP3    H227122   5.855   6.620   3.752 -0.3785 -0.5083 -1.1692
 1903TIP3   OH227123   2.698   2.900   2.456  0.1766  0.1005  0.5186
 1903TIP3    H127124   2.606   2.875   2.448  0.2041  0.1910 -0.0881
 1903TIP3    H227125   2.734   2.891   2.368  1.0303 -0.9949  0.9625
 1904TIP3   OH227126   0.396   6.603  11.035 -0.5464  0.4524 -0.6715
 1904TIP3    H127127   0.369   6.575  11.122  0.1281  0.6899 -0.3828
 1904TIP3    H227128   0.322   6.581  10.979 -1.1775  0.7339  0.0437
 1905TIP3   OH227129   2.606   1.396  10.572 -0.5304 -0.0114 -0.2063
 1905TIP3    H127130   2.559   1.406  10.655 -1.1380 -1.9376 -0.3150
 1905TIP3    H227131   2.688   1.442  10.586  0.5671 -2.6563  2.4540
 1906TIP3   OH227132   6.040   6.251  14.232 -0.0353 -0.8285  0.1932
 1906TIP3    H127133   6.108   6.309  14.197  0.0108 -0.9404  0.0970
 1906TIP3    H227134   5.991   6.306  14.294 -1.4384 -0.0030 -1.6020
 1907TIP3   OH227135   5.506   1.729  16.123 -0.0059 -0.4173  0.5666
 1907TIP3    H127136   5.598   1.707  16.136 -0.2524 -1.0826  1.2008
 1907TIP3    H227137   5.474   1.664  16.060  0.3700  0.8383 -0.9656
 1908TIP3   OH227138   4.752   0.898  16.853  0.3000 -0.6580  0.6199
 1908TIP3    H127139   4.686   0.874  16.788  1.2625  0.1330 -0.6416
 1908TIP3    H227140   4.835   0.895  16.807  0.5980  4.1702  0.5995
 1909TIP3   OH227141   0.132   6.010   1.021 -0.2070  0.0367 -0.5390
 1909TIP3    H127142   0.122   6.022   1.116  0.7653 -0.0342 -0.4222
 1909TIP3    H227143   0.226   5.995   1.009 -0.1446  1.2590 -1.6492
 1910TIP3   OH227144   5.661   4.443   5.381 -0.0471  0.2122 -0.6591
 1910TIP3    H127145   5.727   4.374   5.384  0.1603  0.4402  0.0198
 1910TIP3    H227146   5.578   4.396   5.391  0.2600  0.3535  3.6554
 1911TIP3   OH227147   0.539   5.912  14.373 -0.1560  0.3131 -0.0980
 1911TIP3    H127148   0.457   5.896  14.419 -0.2754  1.7514  0.2373
 1911TIP3    H227149   0.555   6.006  14.387  1.2623  0.1502 -0.6069
 1912TIP3   OH227150   2.312   4.857   5.685  0.2333  0.0510  0.0554
 1912TIP3    H127151   2.351   4.788   5.739 -0.0269 -0.8105 -0.8566
 1912TIP3    H227152   2.346   4.938   5.723 -0.2529 -0.5188  1.7728
 1913TIP3   OH227153   0.695   4.133   4.398 -0.9544  0.1862 -0.3325
 1913TIP3    H127154   0.685   4.217   4.442  0.9825  0.7374 -0.8908
 1913TIP3    H227155   0.672   4.151   4.306 -2.1032 -0.2668 -0.1333
 1914TIP3   OH227156   0.892   1.136   3.504  0.0465  0.1700 -0.3073
 1914TIP3    H127157   0.940   1.192   3.443  1.1027 -1.1117 -0.6798
 1914TIP3    H227158   0.804   1.172   3.506  0.1376  0.5184 -2.2284
 1915TIP3   OH227159   2.678   4.279  13.017 -0.3906  0.4374 -0.8987
 1915TIP3    H127160   2.743   4.347  13.003  0.4792 -0.3808 -0.8641
 1915TIP3    H227161   2.655   4.249  12.929  0.8353 -0.7163 -0.8487
 1916TIP3   OH227162   2.213   1.953  15.717  0.4982  0.0884  0.1211
 1916TIP3    H127163   2.303   1.922  15.722  0.6051  0.3761 -0.0611
 1916TIP3    H227164   2.205   2.019  15.786 -0.1955 -1.5268  1.6315
 1917TIP3   OH227165   2.811   4.837   3.310  0.2268 -0.5508 -0.1988
 1917TIP3    H127166   2.849   4.752   3.289 -1.8338 -1.7270  0.6601
 1917TIP3    H227167   2.800   4.836   3.405 -0.9030  0.1807 -0.3107
 1918TIP3   OH227168   0.529   4.250   2.113  0.2758  0.0822  0.2289
 1918TIP3    H127169   0.587   4.264   2.038 -0.1061 -0.2917 -0.1446
 1918TIP3    H227170   0.455   4.202   2.076  0.6059 -1.0980  1.0675
 1919TIP3   OH227171   3.219   6.411  13.204 -0.4621  1.1660  0.5454
 1919TIP3    H127172   3.250   6.393  13.293  1.1135  0.5015 -0.1266
 1919TIP3    H227173   3.210   6.506  13.201 -1.0140  1.1482  1.5816
 1920TIP3   OH227174   4.765   3.464   4.028  0.3076 -0.1024  0.2325
 1920TIP3    H127175   4.726   3.543   3.989  1.8095  1.4024  1.7029
 1920TIP3    H227176   4.690   3.408   4.046 -0.5539 -0.4341 -3.7528
 1921TIP3   OH227177   3.352   1.745   2.128 -0.0168 -0.4487  0.0105
 1921TIP3    H127178   3.304   1.793   2.059  0.2131  0.7682  0.6793
 1921TIP3    H227179   3.444   1.763   2.110 -0.0142  1.7041  1.8910
 1922TIP3   OH227180   0.524   2.456  14.110 -0.3591  0.3053  0.3326
 1922TIP3    H127181   0.476   2.536  14.090 -0.6507 -0.5156 -2.4585
 1922TIP3    H227182   0.615   2.476  14.089 -0.2720  0.2303  0.6378
 1923TIP3   OH227183   1.963   2.169   1.694 -0.0079 -0.5246  0.4427
 1923TIP3    H127184   1.869   2.153   1.698 -0.1545  0.4041  0.8161
 1923TIP3    H227185   2.000   2.086   1.665 -0.9743 -0.7982 -0.0334
 1924TIP3   OH227186   6.494   2.197  12.888 -0.1005 -0.2977  0.3258
 1924TIP3    H127187   6.550   2.167  12.960 -0.1889 -0.5545  0.2852
 1924TIP3    H227188   6.417   2.141  12.892 -0.9029  0.8284  1.1336
 1925TIP3   OH227189   6.764   1.523  12.620 -0.8478 -0.0976 -0.0584
 1925TIP3    H127190   6.698   1.526  12.690 -0.0788  0.1251  0.6760
 1925TIP3    H227191   6.845   1.553  12.663 -0.5768  0.9496 -1.2959
 1926TIP3   OH227192   4.588   0.262  11.620  0.4065  0.0203 -0.2859
 1926TIP3    H127193   4.566   0.244  11.528  1.1453  0.4492 -0.5519
 1926TIP3    H227194   4.683   0.250  11.625  0.3304 -0.2892  0.4965
 1927TIP3   OH227195   4.075   2.258   3.227 -0.3020 -0.7688  0.4874
 1927TIP3    H127196   3.987   2.283   3.198  0.3115  1.4359  0.4448
 1927TIP3    H227197   4.116   2.341   3.253  2.2858 -1.5853 -0.8699
 1928TIP3   OH227198   1.140   0.674  12.962 -0.0929  0.3050 -0.3760
 1928TIP3    H127199   1.115   0.748  12.907 -1.0364  2.1147  2.3893
 1928TIP3    H227200   1.062   0.653  13.012  0.7821 -1.2065  0.3986
 1929TIP3   OH227201   5.531   4.090  13.689  0.3167 -0.1591 -0.0954
 1929TIP3    H127202   5.625   4.107  13.676  0.5791 -0.3575  1.4261
 1929TIP3    H227203   5.529   4.015  13.749 -0.8224 -0.5034 -0.5551
 1930TIP3   OH227204   6.595   4.242   0.667 -0.0114  0.0134 -0.1583
 1930TIP3    H127205   6.543   4.323   0.674 -0.2770 -0.1758  0.0390
 1930TIP3    H227206   6.532   4.172   0.684  0.6264 -0.1497  1.6241
 1931TIP3   OH227207   3.097   6.069  11.814 -0.1978 -1.1255  1.0431
 1931TIP3    H127208   3.115   6.037  11.903  0.3627 -2.4988  0.4498
 1931TIP3    H227209   3.176   6.118  11.791 -0.2399 -0.9791  1.2114
 1932TIP3   OH227210   0.206   2.410  11.904 -1.0391  0.7006 -0.9790
 1932TIP3    H127211   0.167   2.375  11.984  0.8692 -0.2046 -0.4269
 1932TIP3    H227212   0.150   2.376  11.834 -2.0610  0.5721 -0.1087
 1933TIP3   OH227213   5.168   3.749   0.859 -0.4036  0.0382 -0.1516
 1933TIP3    H127214   5.243   3.802   0.832  0.4209 -0.6371  0.7800
 1933TIP3    H227215   5.202   3.660   0.862 -1.3548 -0.3229 -0.1106
 1934TIP3   OH227216   3.618   5.179  15.049 -0.1501 -0.5020  0.0081
 1934TIP3    H127217   3.570   5.254  15.084  1.6585 -0.5417  2.7680
 1934TIP3    H227218   3.583   5.104  15.098 -0.2402 -1.1208 -0.9917
 1935TIP3   OH227219   1.921   1.296   3.384 -0.1778 -0.2989 -0.1748
 1935TIP3    H127220   2.003   1.275   3.339 -0.2962 -0.6162 -0.2427
 1935TIP3    H227221   1.908   1.390   3.368 -0.5372 -0.5414 -1.3143
 1936TIP3   OH227222   3.616   2.309  14.798  0.0615 -0.0122  0.4875
 1936TIP3    H127223   3.553   2.374  14.766 -0.1043 -0.3802  0.0677
 1936TIP3    H227224   3.638   2.339  14.887 -2.2143 -0.9583  1.4065
 1937TIP3   OH227225   0.910   3.441   5.764 -0.1710  0.1835 -0.0359
 1937TIP3    H127226   0.924   3.493   5.685 -1.1207  0.7611  0.1718
 1937TIP3    H227227   0.895   3.352   5.732  1.1143  0.0976 -0.4101
 1938TIP3   OH227228   1.292   3.278   3.123 -0.4829  0.2281 -0.1968
 1938TIP3    H127229   1.232   3.266   3.050 -1.5163 -0.4188  0.7563
 1938TIP3    H227230   1.348   3.351   3.096 -0.9213  0.0518 -1.5857
 1939TIP3   OH227231   0.662   6.106  16.494  0.5989 -0.6667 -0.1225
 1939TIP3    H127232   0.584   6.054  16.476  0.4417 -1.0993  1.7113
 1939TIP3    H227233   0.673   6.100  16.589  2.6160 -0.2512 -0.3188
 1940TIP3   OH227234   1.611   2.117   3.878  0.5792  0.5583 -0.1579
 1940TIP3    H127235   1.571   2.066   3.808  0.5333 -0.8121  0.8282
 1940TIP3    H227236   1.639   2.198   3.837  0.5557 -0.2292 -1.7502
 1941TIP3   OH227237   0.026   1.730  13.100  0.6299  0.1774  0.1286
 1941TIP3    H127238  -0.068   1.741  13.087  0.9709  1.8212 -1.1025
 1941TIP3    H227239   0.044   1.774  13.183  0.2989 -0.1664  0.3809
 1942TIP3   OH227240   4.086   0.936  17.169  0.2509  0.0445  0.0078
 1942TIP3    H127241   4.048   0.940  17.081  0.5821  0.0875 -0.1359
 1942TIP3    H227242   4.178   0.960  17.156  0.0340  1.1802  0.5363
 1943TIP3   OH227243   1.375   4.466   4.084  0.0585  0.2871 -0.4630
 1943TIP3    H127244   1.416   4.398   4.138 -0.5430  0.2014 -0.1144
 1943TIP3    H227245   1.388   4.547   4.133 -3.7933 -0.2970  1.7047
 1944TIP3   OH227246   2.500   2.804   5.230 -0.2027  0.4428 -0.2688
 1944TIP3    H127247   2.410   2.826   5.254 -0.0240  1.6073 -0.6200
 1944TIP3    H227248   2.538   2.766   5.309 -1.1511 -0.5180 -0.2692
 1945TIP3   OH227249   0.616   2.264  16.739  0.4849 -0.1855 -0.0174
 1945TIP3    H127250   0.593   2.314  16.660 -1.9469  0.8172  1.2774
 1945TIP3    H227251   0.565   2.183  16.731  0.0556  0.0222  0.6429
 1946TIP3   OH227252   3.186   2.023  12.791  0.3637  0.0179 -0.1937
 1946TIP3    H127253   3.231   2.020  12.876 -1.0648  0.4706  0.5867
 1946TIP3    H227254   3.107   1.971  12.804 -1.1965  2.2785 -0.4667
 1947TIP3   OH227255   1.563   6.655  11.294 -0.5819 -0.4019  0.1921
 1947TIP3    H127256   1.474   6.645  11.260 -1.0056 -0.5478  1.3049
 1947TIP3    H227257   1.619   6.648  11.217 -1.6128  1.0926 -0.7160
 1948TIP3   OH227258   1.533   4.228   4.206 -0.5206  0.2785  0.3709
 1948TIP3    H127259   1.534   4.203   4.299 -2.7248  1.0565  0.6354
 1948TIP3    H227260   1.598   4.297   4.199 -1.8891  1.7688  1.8260
 1949TIP3   OH227261   6.688   3.460  15.737 -0.2768  0.3421 -0.4619
 1949TIP3    H127262   6.700   3.422  15.824 -3.2395 -0.4970 -0.3574
 1949TIP3    H227263   6.665   3.552  15.755 -1.5685 -0.0037 -0.3099
 1950TIP3   OH227264   5.967   1.077   2.034 -0.1883 -0.6319 -0.2266
 1950TIP3    H127265   6.060   1.100   2.039 -0.6717  1.8160 -1.4505
 1950TIP3    H227266   5.950   1.029   2.115  1.2134  2.5883  2.0956
 1951TIP3   OH227267   0.320   5.173   0.896  0.1436 -0.4236  0.2176
 1951TIP3    H127268   0.348   5.130   0.814 -0.1157 -0.2946  0.0632
 1951TIP3    H227269   0.390   5.152   0.958  0.7702  0.1888 -0.2667
 1952TIP3   OH227270   4.416   4.877   3.281 -0.3463 -0.1538 -0.2102
 1952TIP3    H127271   4.376   4.820   3.215 -1.0702 -1.0738  0.9996
 1952TIP3    H227272   4.354   4.876   3.354  2.0985 -2.0048  1.9082
 1953TIP3   OH227273   1.365   6.192  12.539 -0.2057  0.1677  0.3438
 1953TIP3    H127274   1.420   6.170  12.614 -1.1299 -0.1976  0.9174
 1953TIP3    H227275   1.344   6.285  12.551  0.0595  0.2394  0.2641
 1954TIP3   OH227276   3.277   6.315  15.939  0.3352  0.2752  0.2340
 1954TIP3    H127277   3.292   6.338  16.030  0.6398  0.9788  0.0149
 1954TIP3    H227278   3.361   6.334  15.896 -0.1157  0.8935 -0.3749
 1955TIP3   OH227279   3.492   0.439   4.536  0.4046 -0.4668 -0.5854
 1955TIP3    H127280   3.522   0.504   4.600  0.9424 -0.4773 -0.8169
 1955TIP3    H227281   3.397   0.439   4.544  0.5373 -1.4157  1.1147
 1956TIP3   OH227282   0.762   6.046   0.166  0.1843 -0.8242  0.0585
 1956TIP3    H127283   0.826   6.004   0.109  1.5035  0.5588  0.4943
 1956TIP3    H227284   0.705   6.094   0.106  0.0296 -1.3997 -0.2663
 1957TIP3   OH227285   2.799   5.958   3.569  0.3549  0.1232 -0.4213
 1957TIP3    H127286   2.810   6.051   3.590  1.5975  0.3050 -1.7713
 1957TIP3    H227287   2.806   5.954   3.473  0.2078 -1.3427 -0.3872
 1958TIP3   OH227288   1.815   1.969   0.118  0.3505 -0.0856  0.7274
 1958TIP3    H127289   1.839   2.033   0.051 -0.8779  0.1623  0.5087
 1958TIP3    H227290   1.855   1.887   0.089 -0.6290 -0.1098 -0.6215
 1959TIP3   OH227291   1.189   2.324  11.540 -0.3993 -0.2584 -0.1317
 1959TIP3    H127292   1.126   2.395  11.524 -0.4996 -0.6035 -1.2936
 1959TIP3    H227293   1.219   2.298  11.453 -0.1460 -1.4617  0.3054
 1960TIP3   OH227294   2.149   2.814   5.930 -0.8219 -0.2769 -0.4310
 1960TIP3    H127295   2.095   2.802   5.851 -2.2762  0.8893  0.3666
 1960TIP3    H227296   2.104   2.763   5.997 -0.5445  0.1408  0.0763
 1961TIP3   OH227297   2.370   0.734  15.119 -0.0494  0.2829  0.2905
 1961TIP3    H127298   2.416   0.707  15.040  1.4651 -1.5922  1.7466
 1961TIP3    H227299   2.281   0.701  15.108 -0.6211  2.3429 -1.7471
 1962TIP3   OH227300   6.712   2.709   3.211 -0.0720  0.2605  0.1254
 1962TIP3    H127301   6.800   2.687   3.180  0.2920  1.3324  0.3991
 1962TIP3    H227302   6.723   2.731   3.303 -0.6085  0.5377  0.1296
 1963TIP3   OH227303   1.890   3.455   5.196  0.2009  0.1313 -0.4986
 1963TIP3    H127304   1.850   3.374   5.164  1.3792 -1.4790  1.9588
 1963TIP3    H227305   1.901   3.441   5.290  3.6170  1.7453 -0.5684
 1964TIP3   OH227306   5.569   1.822  16.947  0.0340  0.5571 -0.0562
 1964TIP3    H127307   5.630   1.894  16.929  2.0178 -1.0191  0.0626
 1964TIP3    H227308   5.611   1.774  17.019 -1.8288 -0.0554  0.6373
 1965TIP3   OH227309   2.361   6.263  13.279 -0.0237  0.4108  0.6336
 1965TIP3    H127310   2.267   6.268  13.260 -0.0373 -2.2267 -0.2486
 1965TIP3    H227311   2.390   6.183  13.235  2.5921  1.0264  1.1455
 1966TIP3   OH227312   3.546   1.440   3.457  0.1019 -0.7825  0.0050
 1966TIP3    H127313   3.520   1.493   3.381 -0.9954 -2.2183 -0.6507
 1966TIP3    H227314   3.615   1.491   3.499 -0.3376  0.7633 -1.0869
 1967TIP3   OH227315   0.774   4.956  11.768 -0.7080  0.1217 -0.2776
 1967TIP3    H127316   0.859   4.950  11.811 -0.9091 -3.0906 -0.1933
 1967TIP3    H227317   0.790   5.006  11.688  1.2880 -0.5729 -0.3263
 1968TIP3   OH227318   0.173   1.321  14.341 -0.2229  0.0852 -0.0743
 1968TIP3    H127319   0.136   1.340  14.255 -0.0964 -2.6100 -0.7957
 1968TIP3    H227320   0.097   1.317  14.400 -0.5905 -0.6723 -0.5942
 1969TIP3   OH227321   3.588   2.688   0.595 -0.2429 -0.4767 -0.5555
 1969TIP3    H127322   3.565   2.596   0.586  2.0148 -1.0539 -0.6769
 1969TIP3    H227323   3.652   2.690   0.666 -3.1471  1.5225  2.1467
 1970TIP3   OH227324   5.092   3.751   3.896  1.1506 -0.1687  0.2064
 1970TIP3    H127325   5.042   3.817   3.944  2.3652 -0.4575  1.8913
 1970TIP3    H227326   5.169   3.735   3.950  0.8107 -3.0764 -0.0803
 1971TIP3   OH227327   4.877   3.026   4.792 -0.1756  0.1292  0.1906
 1971TIP3    H127328   4.956   2.973   4.781 -1.1730 -1.9623  2.7506
 1971TIP3    H227329   4.905   3.102   4.842  0.4424 -0.0438  0.1089
 1972TIP3   OH227330   1.556   4.584  11.065  0.1557  0.6730 -0.0006
 1972TIP3    H127331   1.646   4.579  11.035  0.4217  1.2104  0.6935
 1972TIP3    H227332   1.543   4.505  11.118  1.3275  2.3226  2.8428
 1973TIP3   OH227333   6.051   0.885  12.455 -0.0797 -0.3919 -0.5325
 1973TIP3    H127334   6.079   0.865  12.544  0.6561 -0.7992 -0.8492
 1973TIP3    H227335   5.972   0.938  12.466  0.0464 -0.3793  0.3602
 1974TIP3   OH227336   1.842   3.014  14.496  0.4801 -0.1838  0.2790
 1974TIP3    H127337   1.935   2.991  14.508  1.2890  2.7561 -0.0028
 1974TIP3    H227338   1.819   3.061  14.576 -0.2597  0.6414 -0.4185
 1975TIP3   OH227339   1.539   5.384   5.671 -0.2565  0.1822 -0.6982
 1975TIP3    H127340   1.483   5.320   5.715 -1.3239  0.7156 -1.2612
 1975TIP3    H227341   1.601   5.412   5.738 -0.8208 -0.2364 -0.0015
 1976TIP3   OH227342   3.673   4.462   4.669 -0.5907  0.1698  0.0780
 1976TIP3    H127343   3.626   4.535   4.629 -2.5210 -0.8287  0.4375
 1976TIP3    H227344   3.607   4.417   4.722  1.5696  0.7707  3.5176
 1977TIP3   OH227345   2.096   5.162  17.210  0.3062  0.0195 -0.0197
 1977TIP3    H127346   2.058   5.112  17.282  0.5572  0.8124  0.6850
 1977TIP3    H227347   2.190   5.143  17.214  0.2108 -0.5920 -0.6708
 1978TIP3   OH227348   5.022   2.212   0.175  0.1527 -0.5089 -0.1053
 1978TIP3    H127349   4.980   2.126   0.187 -1.9174  0.4782 -0.0597
 1978TIP3    H227350   5.050   2.237   0.263 -2.2814  0.3360  0.4863
 1979TIP3   OH227351   4.565   6.238   1.500  0.4400 -0.3091  0.2866
 1979TIP3    H127352   4.578   6.324   1.541 -0.5396  0.2851 -0.6002
 1979TIP3    H227353   4.601   6.175   1.563 -1.0098  0.5735  2.0788
 1980TIP3   OH227354   5.368   4.895   3.956  0.2992 -0.1015 -0.2327
 1980TIP3    H127355   5.296   4.882   3.895 -0.4757  1.6244  0.2808
 1980TIP3    H227356   5.445   4.861   3.910 -0.6491 -0.9827 -1.2039
 1981TIP3   OH227357   2.082   3.819  12.257 -0.1884 -0.1527  0.0433
 1981TIP3    H127358   2.024   3.885  12.219 -0.2598 -0.6896 -0.7999
 1981TIP3    H227359   2.066   3.741  12.205 -1.5530 -1.4221  2.3047
 1982TIP3   OH227360   2.777   1.091  11.145  0.0088  0.3498  0.2250
 1982TIP3    H127361   2.830   1.093  11.066  2.6038  0.0227  1.8950
 1982TIP3    H227362   2.813   1.160  11.200 -0.2028 -0.9630  2.0694
 1983TIP3   OH227363   5.130   1.647   3.502 -0.8308  0.1507 -0.4331
 1983TIP3    H127364   5.059   1.601   3.546 -0.6413 -1.1430 -1.4371
 1983TIP3    H227365   5.088   1.695   3.430 -1.0921  1.9652  0.9030
 1984TIP3   OH227366   0.052   0.275   3.308  0.2019  0.0452  0.5891
 1984TIP3    H127367  -0.005   0.272   3.385 -0.2979  1.3873  0.2876
 1984TIP3    H227368   0.000   0.233   3.239  0.1120  0.0533  0.6512
 1985TIP3   OH227369   0.475   2.073   0.765  0.1005  0.1989 -1.2406
 1985TIP3    H127370   0.482   2.168   0.764 -1.9004  0.4053  0.1189
 1985TIP3    H227371   0.385   2.056   0.792  1.2001 -2.0957  1.2628
 1986TIP3   OH227372   6.548   3.045   4.221  0.2510 -0.1262  0.2587
 1986TIP3    H127373   6.633   3.030   4.180 -0.0904  0.4074 -0.6366
 1986TIP3    H227374   6.567   3.107   4.292  0.9348 -1.4948  1.3154
 1987TIP3   OH227375   3.282   1.264   0.223  0.0086  0.0191  0.1278
 1987TIP3    H127376   3.228   1.192   0.255  2.2274 -0.6717  2.4979
 1987TIP3    H227377   3.372   1.237   0.243  0.9584  2.8678 -0.0857
 1988TIP3   OH227378   3.911   4.005  14.812  0.2398  0.3286  0.1530
 1988TIP3    H127379   3.986   3.953  14.842  0.0864  0.1959  0.3021
 1988TIP3    H227380   3.854   3.942  14.767 -0.7206  0.0581  1.7181
 1989TIP3   OH227381   6.444   6.543   3.141 -0.3331 -0.0907  0.2204
 1989TIP3    H127382   6.438   6.458   3.185  0.8823 -0.2097  0.1836
 1989TIP3    H227383   6.383   6.538   3.068 -0.3150 -0.9025  0.2627
 1990TIP3   OH227384   6.537   2.239   1.865  0.2816  0.6139 -0.1368
 1990TIP3    H127385   6.604   2.211   1.803 -1.4919 -1.4739 -1.1499
 1990TIP3    H227386   6.582   2.239   1.950  1.8915  0.5365 -0.9710
 1991TIP3   OH227387   2.327   3.691   1.851  0.4104 -0.6824 -0.3791
 1991TIP3    H127388   2.352   3.687   1.758 -0.7814  0.4064 -0.7538
 1991TIP3    H227389   2.344   3.602   1.883  1.5839 -0.8676 -1.4369
 1992TIP3   OH227390   0.077   1.763   4.983  0.0816  0.1953 -0.2933
 1992TIP3    H127391   0.116   1.849   4.971  0.1514  0.3394  0.8716
 1992TIP3    H227392   0.058   1.758   5.077 -2.2440 -0.0743 -0.7394
 1993TIP3   OH227393   0.968   3.858  16.655 -0.3736 -0.1568 -0.5654
 1993TIP3    H127394   0.919   3.783  16.687  1.6131 -1.5845 -0.7560
 1993TIP3    H227395   0.954   3.926  16.720  0.3860 -1.7317  1.3005
 1994TIP3   OH227396   0.422   1.019   1.704 -0.1061  0.3181 -0.2189
 1994TIP3    H127397   0.328   1.003   1.698 -0.3185  1.4148 -0.0157
 1994TIP3    H227398   0.430   1.115   1.701  0.8977  0.2867  1.0508
 1995TIP3   OH227399   5.877   3.592  15.972  0.3899 -0.8556 -0.7801
 1995TIP3    H127400   5.807   3.579  16.037 -0.3281  1.1960 -1.1262
 1995TIP3    H227401   5.905   3.683  15.985  1.9722 -1.2019 -1.6732
 1996TIP3   OH227402   1.354   3.520  12.772  0.0806 -0.1006  0.6319
 1996TIP3    H127403   1.380   3.603  12.812  1.8501  0.7072 -2.0674
 1996TIP3    H227404   1.400   3.453  12.824  1.5467  0.8569  0.6050
 1997TIP3   OH227405   2.870   3.533  15.097 -0.1940  0.3386  0.1632
 1997TIP3    H127406   2.828   3.558  15.015  0.1664 -0.3391 -0.2320
 1997TIP3    H227407   2.935   3.467  15.072  0.8401  1.0971  0.8247
 1998TIP3   OH227408   4.577   3.765   2.238 -0.0712  0.2947  0.0048
 1998TIP3    H127409   4.622   3.772   2.154  0.8881 -0.7168  0.4230
 1998TIP3    H227410   4.629   3.820   2.297 -0.2808  0.3689  0.1183
 1999TIP3   OH227411   0.603   4.461  15.480 -0.3882 -0.1036  0.2186
 1999TIP3    H127412   0.655   4.413  15.417 -1.1312 -1.0387  0.3158
 1999TIP3    H227413   0.616   4.553  15.456  2.1123 -0.2388  0.8596
 2000TIP3   OH227414   3.001   5.931   6.185 -0.6967 -0.5784 -0.0475
 2000TIP3    H127415   2.984   6.017   6.148  0.6661 -1.1789 -2.1830
 2000TIP3    H227416   2.921   5.909   6.233 -0.7685  2.1713  1.1818
 2001TIP3   OH227417   2.448   2.679   3.031  0.0580 -0.0791  0.1890
 2001TIP3    H127418   2.398   2.713   3.106  0.1874  1.2893 -0.3223
 2001TIP3    H227419   2.537   2.709   3.047 -0.0280  0.7127 -0.8007
 2002TIP3   OH227420   4.914   5.239  14.473  0.3778 -0.3890 -0.2362
 2002TIP3    H127421   4.943   5.244  14.382  0.5221  0.8950 -0.1228
 2002TIP3    H227422   4.987   5.274  14.524 -1.5759  3.6583 -0.0133
 2003TIP3   OH227423   4.866   3.377   1.962 -0.0868  0.2627 -0.5928
 2003TIP3    H127424   4.942   3.434   1.975 -0.7476  1.7275 -2.8595
 2003TIP3    H227425   4.901   3.300   1.917  0.2843  0.3395 -0.4396
 2004TIP3   OH227426   5.514   4.154   2.865  0.0521  0.8662  0.5191
 2004TIP3    H127427   5.436   4.099   2.859  0.3248  0.4883  0.3711
 2004TIP3    H227428   5.584   4.093   2.891  0.6107  0.9111 -0.8281
 2005TIP3   OH227429   4.595   3.767  16.208 -0.0673 -0.2790 -0.3998
 2005TIP3    H127430   4.679   3.812  16.220 -0.6305  0.4596  0.8481
 2005TIP3    H227431   4.616   3.693  16.151  1.0806  0.9215 -1.5865
 2006TIP3   OH227432   2.050   3.259   3.851 -0.3573  0.0598  0.4984
 2006TIP3    H127433   2.016   3.232   3.937  0.4674 -0.8202  0.5519
 2006TIP3    H227434   2.144   3.270   3.865 -0.6701  3.2814  0.5562
 2007TIP3   OH227435   4.579   0.870  17.143 -0.3530  0.2331  0.4787
 2007TIP3    H127436   4.580   0.956  17.184  0.3708  1.1071 -1.3387
 2007TIP3    H227437   4.513   0.876  17.074  1.2953  0.0860 -1.1753
 2008TIP3   OH227438   0.223   4.202  15.066  0.6553  0.4107  0.0491
 2008TIP3    H127439   0.153   4.233  15.124  1.9492  1.4840  1.0778
 2008TIP3    H227440   0.215   4.257  14.988 -0.2634 -0.1415 -0.2512
 2009TIP3   OH227441   3.188   3.943  16.764  0.7905 -0.0723  0.1614
 2009TIP3    H127442   3.125   3.871  16.773 -1.1015  1.5516  0.2740
 2009TIP3    H227443   3.190   3.962  16.670  1.7017 -0.6114  0.0672
 2010TIP3   OH227444   0.396   1.714  15.526 -0.1819 -0.3815 -0.5646
 2010TIP3    H127445   0.340   1.770  15.580  1.6629 -0.7177  1.7590
 2010TIP3    H227446   0.336   1.675  15.462 -2.3542  0.2912  1.0171
 2011TIP3   OH227447   5.408   6.315  11.826  0.4506 -0.1663 -0.2516
 2011TIP3    H127448   5.341   6.247  11.832  0.2649 -0.1530 -1.9948
 2011TIP3    H227449   5.366   6.386  11.779  1.6215 -0.0920 -1.2202
 2012TIP3   OH227450   0.608   2.648  16.320  0.0417 -1.0712  0.5492
 2012TIP3    H127451   0.679   2.596  16.357 -0.7477 -2.6478 -0.0594
 2012TIP3    H227452   0.650   2.724  16.282  1.2873 -1.4557  1.1418
 2013TIP3   OH227453   2.679   0.142  11.886  0.3553 -0.4668  0.7425
 2013TIP3    H127454   2.587   0.118  11.885 -0.1416  1.3268 -1.4229
 2013TIP3    H227455   2.726   0.061  11.865 -0.7572 -1.2657  1.3422
 2014TIP3   OH227456   1.903   2.505   0.019 -0.0147  0.4552 -0.3555
 2014TIP3    H127457   1.930   2.426   0.066 -0.7029  0.6701  0.4083
 2014TIP3    H227458   1.976   2.566   0.030 -0.6781  0.9306  1.4627
 2015TIP3   OH227459   6.238   3.104   4.530 -0.4048 -0.7327  0.3213
 2015TIP3    H127460   6.165   3.114   4.469  0.2224 -0.7235 -0.4254
 2015TIP3    H227461   6.306   3.060   4.480  0.0918 -0.7879  1.0341
 2016TIP3   OH227462   4.312   4.665   1.220 -0.0686 -0.1109  0.0979
 2016TIP3    H127463   4.223   4.664   1.184 -0.4503 -0.0951  1.0149
 2016TIP3    H227464   4.300   4.637   1.311  1.0396 -1.4349 -0.1560
 2017TIP3   OH227465   0.487   5.681   3.061  0.5612  0.0489  0.0078
 2017TIP3    H127466   0.503   5.645   3.148 -0.2780 -1.2792 -0.3670
 2017TIP3    H227467   0.414   5.742   3.073 -0.9756 -1.7128 -0.1068
 2018TIP3   OH227468   2.464   5.011   3.993 -0.0537 -0.0796  0.1957
 2018TIP3    H127469   2.453   5.105   4.005 -1.2159 -0.4470  2.3283
 2018TIP3    H227470   2.385   4.983   3.947  1.0195  0.2053 -1.8630
 2019TIP3   OH227471   4.976   6.540  11.725 -0.4108  0.4708 -0.1530
 2019TIP3    H127472   4.940   6.451  11.727 -1.1725  0.8054  1.5352
 2019TIP3    H227473   4.953   6.577  11.810  2.6128  1.2482  0.3556
 2020TIP3   OH227474   3.937   4.193  15.937  0.2739 -0.4243 -0.0234
 2020TIP3    H127475   3.937   4.261  15.870 -0.3380  0.7130  1.1273
 2020TIP3    H227476   3.847   4.161  15.940  0.3720 -0.6994  0.0197
 2021TIP3   OH227477   2.258   1.223   5.710 -0.2684  0.0120 -0.6425
 2021TIP3    H127478   2.235   1.130   5.712 -0.2227  0.0331  2.9254
 2021TIP3    H227479   2.340   1.225   5.660 -0.5236 -1.7812 -1.1994
 2022TIP3   OH227480   2.280   3.398   4.839  0.6653 -0.3419 -0.3609
 2022TIP3    H127481   2.192   3.405   4.875 -0.0324 -0.4600 -1.9849
 2022TIP3    H227482   2.303   3.487   4.814  1.7835 -0.0033  1.7930
 2023TIP3   OH227483   2.016   2.638  16.255 -0.1271 -0.1876 -0.2523
 2023TIP3    H127484   2.040   2.731  16.248  0.8914 -0.4809 -0.6650
 2023TIP3    H227485   2.097   2.591  16.237 -0.7784 -1.1722 -0.6188
 2024TIP3   OH227486   6.571   3.925  12.496  0.3679 -0.0566 -0.0539
 2024TIP3    H127487   6.506   3.895  12.560 -0.7772  3.0317  0.3336
 2024TIP3    H227488   6.566   3.862  12.425 -1.4268 -1.1455  1.0020
 2025TIP3   OH227489   1.296   3.322   1.618 -0.0488  0.9970  0.2548
 2025TIP3    H127490   1.333   3.401   1.578  2.1855 -0.8287 -1.4486
 2025TIP3    H227491   1.231   3.291   1.555 -1.0942  1.5746  1.0311
 2026TIP3   OH227492   5.641   4.106   0.280 -0.0413 -0.2906  0.3567
 2026TIP3    H127493   5.586   4.080   0.354 -0.1626 -1.5364 -0.1578
 2026TIP3    H227494   5.723   4.134   0.320 -0.4135 -0.1344  1.0220
 2027TIP3   OH227495   4.669   0.723  10.588  0.0765  0.1670 -0.9308
 2027TIP3    H127496   4.720   0.643  10.601 -0.5699 -0.0798  0.2130
 2027TIP3    H227497   4.718   0.791  10.635  0.3036  0.3223 -1.3860
 2028TIP3   OH227498   2.495   2.060  11.550 -0.7551  0.3851  0.2964
 2028TIP3    H127499   2.430   2.123  11.581 -1.7409  0.1278 -1.1531
 2028TIP3    H227500   2.444   1.979  11.537 -0.3003  0.3547 -1.4758
 2029TIP3   OH227501   5.366   3.144  11.837 -0.0905  0.0822  0.4518
 2029TIP3    H127502   5.336   3.058  11.809 -0.8302  0.7147 -0.7265
 2029TIP3    H227503   5.461   3.135  11.844 -0.1450 -0.7651  0.1526
 2030TIP3   OH227504   3.613   1.594  10.630  0.1822 -0.1707 -0.1234
 2030TIP3    H127505   3.520   1.595  10.652  0.0272 -0.8362 -0.7354
 2030TIP3    H227506   3.641   1.504  10.647  1.1604  0.4660  1.8590
 2031TIP3   OH227507   2.874   2.076  11.676  0.2369  0.2337  0.2225
 2031TIP3    H127508   2.965   2.067  11.706  1.0369 -0.1132 -2.1455
 2031TIP3    H227509   2.871   2.163  11.637  0.0236 -0.3733 -1.1517
 2032TIP3   OH227510   3.479   0.268   6.411 -0.1861 -0.0780  0.4057
 2032TIP3    H127511   3.389   0.256   6.384  0.5172 -1.7532 -1.2930
 2032TIP3    H227512   3.486   0.220   6.494 -0.8587  0.0707  0.5461
 2033TIP3   OH227513   6.041   5.092  12.764 -0.2351  0.3788 -0.0584
 2033TIP3    H127514   6.010   5.059  12.848 -0.3425 -1.5800 -0.8343
 2033TIP3    H227515   6.099   5.165  12.786 -0.3473 -0.0539  1.7000
 2034TIP3   OH227516   1.592   0.993   4.275  0.1522 -0.5180 -0.2575
 2034TIP3    H127517   1.666   0.933   4.271 -0.0016 -0.7790  0.6138
 2034TIP3    H227518   1.622   1.063   4.333 -0.1641 -0.4605 -0.1644
 2035TIP3   OH227519   0.872   1.762   6.428  0.0721  0.1223 -0.5828
 2035TIP3    H127520   0.799   1.767   6.490 -2.0305 -1.2161 -2.8592
 2035TIP3    H227521   0.847   1.691   6.369  1.9575  1.4839 -3.0528
 2036TIP3   OH227522   5.471   1.206  15.259  0.3318  0.1062 -0.1769
 2036TIP3    H127523   5.470   1.135  15.196 -2.5387 -0.6198  0.6141
 2036TIP3    H227524   5.510   1.167  15.338  4.4863  1.1794 -1.5529
 2037TIP3   OH227525   3.719   2.688   0.279  0.7914  0.0441  0.5931
 2037TIP3    H127526   3.627   2.671   0.300  0.3952 -0.4399 -1.3628
 2037TIP3    H227527   3.721   2.781   0.254  0.6464 -0.1527 -0.1837
 2038TIP3   OH227528   4.503   6.025   5.879  0.2116  0.3441 -0.2890
 2038TIP3    H127529   4.573   6.039   5.943 -0.4960  0.4368  0.4694
 2038TIP3    H227530   4.498   5.930   5.870 -1.6842  0.1660  2.0553
 2039TIP3   OH227531   4.974   4.436   0.815  0.0029  0.1281  0.0847
 2039TIP3    H127532   5.067   4.416   0.801  0.0344 -0.5472  1.1564
 2039TIP3    H227533   4.946   4.372   0.881 -1.2074  0.3788 -0.1761
 2040TIP3   OH227534   1.088   2.483  13.705  0.8317  0.0619 -0.4094
 2040TIP3    H127535   1.161   2.433  13.670  2.2517  0.8100  1.4090
 2040TIP3    H227536   1.107   2.574  13.680 -0.6613  0.0118 -1.8795
 2041TIP3   OH227537   0.571   1.025  16.127  0.1904  0.7367  0.1364
 2041TIP3    H127538   0.579   0.937  16.165  3.6311  1.6590  1.7312
 2041TIP3    H227539   0.532   1.010  16.041 -1.2604 -2.1216  1.2108
 2042TIP3   OH227540   4.501   6.022   0.831 -0.0710  0.2365 -0.1027
 2042TIP3    H127541   4.450   6.000   0.753 -1.0061 -0.0744  0.5877
 2042TIP3    H227542   4.538   5.939   0.860 -1.8300 -0.0928  1.2560
 2043TIP3   OH227543   5.236   0.032  11.531 -0.3752 -0.0369 -0.3893
 2043TIP3    H127544   5.199   0.110  11.573  0.7267  0.8413 -1.0210
 2043TIP3    H227545   5.190   0.025  11.448  0.7366  0.9695 -1.1097
 2044TIP3   OH227546   3.462   2.327  15.610  0.2863  0.0691 -0.4213
 2044TIP3    H127547   3.398   2.264  15.642  0.7235 -1.2358 -2.0664
 2044TIP3    H227548   3.547   2.284  15.622  0.7762  1.2682  0.5443
 2045TIP3   OH227549   1.810   5.964  13.047  0.8373  0.6192  0.1366
 2045TIP3    H127550   1.873   5.909  13.093  1.6515 -0.5217 -2.2363
 2045TIP3    H227551   1.763   5.903  12.989  0.2206  2.0782 -0.9310
 2046TIP3   OH227552   1.087   2.551   6.711 -0.1054 -0.3021  0.2999
 2046TIP3    H127553   1.017   2.564   6.648  2.5748 -2.9420 -3.4083
 2046TIP3    H227554   1.092   2.456   6.722  2.7653 -0.1645  0.5590
 2047TIP3   OH227555   5.805   2.195  12.243 -0.3586  0.0794  0.6016
 2047TIP3    H127556   5.873   2.144  12.201 -0.3015  1.1446 -0.6355
 2047TIP3    H227557   5.832   2.201  12.335 -0.1867 -1.7603  0.6901
 2048TIP3   OH227558   3.135   1.793  13.118 -0.3532  0.7492  0.3743
 2048TIP3    H127559   3.115   1.803  13.211 -1.0166  1.0046  0.2091
 2048TIP3    H227560   3.049   1.786  13.076 -0.0433 -1.1553 -0.0228
 2049TIP3   OH227561   4.349   1.304   2.739  0.2386  0.4995  0.1689
 2049TIP3    H127562   4.297   1.242   2.791  0.4420  0.4477  0.3114
 2049TIP3    H227563   4.310   1.389   2.757 -0.5456  0.3244 -0.6408
 2050TIP3   OH227564   4.042   4.399   5.578  0.3472 -0.0134  0.3186
 2050TIP3    H127565   4.020   4.356   5.495 -2.0303  1.3304  0.2079
 2050TIP3    H227566   4.088   4.479   5.552 -2.0461  1.3672  0.1478
 2051TIP3   OH227567   2.924   6.454   0.719  0.3330  0.7916  0.3443
 2051TIP3    H127568   2.941   6.506   0.640 -2.0457  0.5064 -0.3725
 2051TIP3    H227569   2.929   6.363   0.690 -1.8855  0.6882  0.1938
 2052TIP3   OH227570   0.289   6.705  14.552 -0.1531 -0.4215  0.1004
 2052TIP3    H127571   0.362   6.759  14.524 -0.1194 -1.5205 -2.0091
 2052TIP3    H227572   0.215   6.766  14.559  0.1616  0.0991 -1.0802
 2053TIP3   OH227573   6.299   5.664  15.768 -0.5526 -0.4345  0.1387
 2053TIP3    H127574   6.343   5.594  15.816 -0.8302  0.2976  1.4568
 2053TIP3    H227575   6.341   5.745  15.798 -3.2777  0.3552  2.0080
 2054TIP3   OH227576   3.651   4.862  16.808  0.4043 -0.2074 -1.1063
 2054TIP3    H127577   3.577   4.848  16.867  0.3907  2.7115 -0.3947
 2054TIP3    H227578   3.623   4.824  16.724 -0.3823 -2.5035  0.1588
 2055TIP3   OH227579   3.547   4.306   0.074  0.7371 -0.2724  0.0807
 2055TIP3    H127580   3.595   4.227   0.101  0.2055 -1.3712 -2.0888
 2055TIP3    H227581   3.519   4.346   0.156  1.4674 -2.0637  1.2380
 2056TIP3   OH227582   4.232   0.020  11.770 -0.6494  0.7201  0.5925
 2056TIP3    H127583   4.223  -0.060  11.821  0.9991 -1.2914 -2.1454
 2056TIP3    H227584   4.322   0.048  11.784 -0.1539  0.1089 -1.2071
 2057TIP3   OH227585   0.227   1.689   4.762 -0.1315  0.4087  0.1215
 2057TIP3    H127586   0.213   1.750   4.690 -1.0506 -0.4294 -0.4430
 2057TIP3    H227587   0.164   1.716   4.829 -1.5604 -0.7793 -0.7117
 2058TIP3   OH227588   5.431   2.801   4.761  0.3603  0.0592  0.2262
 2058TIP3    H127589   5.382   2.872   4.720  1.0821 -0.0925 -0.9204
 2058TIP3    H227590   5.423   2.818   4.855  1.0756  2.0571 -0.0359
 2059TIP3   OH227591   2.669   1.332  11.390 -0.9362  0.2489 -0.7778
 2059TIP3    H127592   2.753   1.288  11.391 -0.0409  1.9104  1.0584
 2059TIP3    H227593   2.610   1.273  11.438 -0.3777 -0.1187 -0.5458
 2060TIP3   OH227594   6.402   1.986  15.205  0.0149 -0.1307 -0.0091
 2060TIP3    H127595   6.336   1.931  15.247 -1.4388  1.5080 -0.0819
 2060TIP3    H227596   6.358   2.070  15.191  1.9646  0.8428 -0.5176
 2061TIP3   OH227597   4.804   3.292   3.766  0.2622 -0.5990  0.2566
 2061TIP3    H127598   4.777   3.249   3.684  1.8009 -0.1310 -0.5137
 2061TIP3    H227599   4.726   3.339   3.795  0.5346  1.8310 -2.6441
 2062TIP3   OH227600   6.600   3.821  12.223 -0.0510 -0.4737  0.2772
 2062TIP3    H127601   6.673   3.877  12.198 -0.1786 -0.6861 -0.5910
 2062TIP3    H227602   6.570   3.782  12.141 -0.5106 -1.1491  0.7526
 2063TIP3   OH227603   1.553   1.771   3.981  0.0321 -0.2713 -0.2527
 2063TIP3    H127604   1.552   1.808   3.892  0.6382  0.5207  0.0521
 2063TIP3    H227605   1.646   1.769   4.004 -0.2187  1.2907  1.0635
 2064TIP3   OH227606   1.243   0.030  13.153 -0.1364  0.1186 -0.0215
 2064TIP3    H127607   1.267  -0.057  13.122  0.2372 -0.2434  1.2870
 2064TIP3    H227608   1.218   0.077  13.073  2.3035 -0.3227 -1.1028
 2065TIP3   OH227609   3.541   0.511   2.888  0.1001  0.8633  0.0959
 2065TIP3    H127610   3.494   0.584   2.849  3.0807  2.4860 -0.6526
 2065TIP3    H227611   3.629   0.516   2.849  0.9839 -1.8541  1.6056
 2066TIP3   OH227612   6.325   5.564   1.207 -0.3289  0.4192  0.3274
 2066TIP3    H127613   6.291   5.622   1.275 -1.2547 -0.0808  0.3015
 2066TIP3    H227614   6.246   5.528   1.165  0.2387 -1.7135  1.0642
 2067TIP3   OH227615   0.267   1.677  14.376 -1.1620  0.1022  0.3343
 2067TIP3    H127616   0.299   1.763  14.402  2.5840 -0.7676 -1.0513
 2067TIP3    H227617   0.266   1.680  14.281  0.8496 -1.9379  0.2010
 2068TIP3   OH227618   3.376   3.544   5.962 -0.5547  0.3394  0.4184
 2068TIP3    H127619   3.390   3.637   5.976  3.1083  0.2925 -2.0160
 2068TIP3    H227620   3.417   3.502   6.037  1.3516  0.6415 -0.4096
 2069TIP3   OH227621   2.460   3.782  16.778  0.1558  0.3480 -0.1093
 2069TIP3    H127622   2.433   3.728  16.704  0.5037 -1.1952  0.8880
 2069TIP3    H227623   2.545   3.818  16.752 -1.0153  2.1546 -1.6493
 2070TIP3   OH227624   1.117   5.885  11.783  0.2880 -0.3149  0.0157
 2070TIP3    H127625   1.024   5.891  11.763 -0.1898 -1.0399  1.9632
 2070TIP3    H227626   1.124   5.813  11.845  1.9345  0.7581  1.1279
 2071TIP3   OH227627   3.515   2.773  11.347 -0.0288  0.4118 -0.4152
 2071TIP3    H127628   3.569   2.750  11.271  1.1255  1.3303  0.0991
 2071TIP3    H227629   3.428   2.741  11.326  0.6926 -0.9961 -1.3321
 2072TIP3   OH227630   1.487   2.393   0.692  0.4817 -0.0595 -0.5309
 2072TIP3    H127631   1.478   2.394   0.787  1.1800 -2.1735 -0.4020
 2072TIP3    H227632   1.582   2.394   0.677  0.3631  1.1557 -1.2311
 2073TIP3   OH227633   2.666   6.786   3.915  0.8863  0.0720 -0.2251
 2073TIP3    H127634   2.756   6.756   3.902  0.4704 -1.3851  0.1327
 2073TIP3    H227635   2.663   6.872   3.873  2.4595  0.1706 -0.1712
 2074TIP3   OH227636   2.458   4.550   0.882 -0.3261  0.1191 -0.0843
 2074TIP3    H127637   2.552   4.535   0.898 -0.4981  0.7172  1.5829
 2074TIP3    H227638   2.454   4.582   0.792  0.8523 -1.9689 -0.9176
 2075TIP3   OH227639   0.155   4.118  16.450  0.0546  0.2771  0.1989
 2075TIP3    H127640   0.236   4.085  16.490 -0.2517 -0.9583 -0.1918
 2075TIP3    H227641   0.139   4.202  16.495  2.7149  1.6183 -1.2453
 2076TIP3   OH227642   3.299   0.028   4.365 -0.6975 -0.4087 -0.2383
 2076TIP3    H127643   3.258  -0.052   4.397 -1.3942 -0.4995 -1.3572
 2076TIP3    H227644   3.347   0.002   4.286  0.9439 -0.1646  0.6418
 2077TIP3   OH227645   6.223   2.440  14.229 -0.5604 -0.0401 -1.0119
 2077TIP3    H127646   6.273   2.374  14.278  1.7253  2.2768 -0.1278
 2077TIP3    H227647   6.135   2.404  14.225 -0.1775 -1.5971  2.4690
 2078TIP3   OH227648   4.156   2.553  13.541  0.2409 -0.2137 -0.3949
 2078TIP3    H127649   4.143   2.598  13.624  1.3805  0.0892 -0.3762
 2078TIP3    H227650   4.143   2.620  13.474 -1.1583 -0.5622 -0.5004
 2079TIP3   OH227651   1.638   4.944  16.300  0.1695  0.2184  0.7694
 2079TIP3    H127652   1.592   4.964  16.219 -0.5564  1.4801  1.4824
 2079TIP3    H227653   1.634   4.848  16.308 -0.0578  0.1215 -0.4878
 2080TIP3   OH227654   3.049   4.456  11.882  0.1405  0.0910 -0.0825
 2080TIP3    H127655   3.021   4.545  11.859  0.7708  0.4797  0.6452
 2080TIP3    H227656   2.977   4.400  11.852 -1.1407  1.0242  1.1725
 2081TIP3   OH227657   3.200   1.379   3.807 -0.3630 -0.0239  0.1025
 2081TIP3    H127658   3.166   1.339   3.728 -0.2033  0.3058 -0.1345
 2081TIP3    H227659   3.294   1.390   3.791 -0.3318  0.0609  0.3275
 2082TIP3   OH227660   6.440   6.391   2.573  0.0882 -0.0146 -0.3798
 2082TIP3    H127661   6.491   6.391   2.492  0.1689  1.4583 -0.3419
 2082TIP3    H227662   6.350   6.404   2.545  0.1457  0.7276 -0.2131
 2083TIP3   OH227663   5.025   3.787  11.713 -0.3834  0.2033  0.7105
 2083TIP3    H127664   5.001   3.871  11.676  0.2102 -0.8845 -2.2867
 2083TIP3    H227665   4.988   3.722  11.653  2.6695 -1.6155  0.6569
 2084TIP3   OH227666   1.400   6.394  17.083 -0.2537 -0.1751 -0.3177
 2084TIP3    H127667   1.383   6.420  17.174 -0.7328  0.0009 -0.4555
 2084TIP3    H227668   1.495   6.381  17.079  0.0137  1.6653 -0.2681
 2085TIP3   OH227669   3.915   3.512   3.286  0.2716 -0.4777  0.5589
 2085TIP3    H127670   3.830   3.468   3.284 -0.0589  0.2106 -0.3381
 2085TIP3    H227671   3.976   3.443   3.315 -0.1521 -1.6731 -1.3180
 2086TIP3   OH227672   5.907   0.573  12.832 -0.3265  0.1873  0.1251
 2086TIP3    H127673   5.867   0.660  12.830  0.0544  0.3962  1.1282
 2086TIP3    H227674   5.941   0.565  12.921 -0.8030 -1.1890  0.1940
 2087TIP3   OH227675   1.106   1.633   3.401  0.0228  0.9451 -0.5915
 2087TIP3    H127676   1.196   1.602   3.407  0.7951  3.0062 -1.3290
 2087TIP3    H227677   1.091   1.680   3.483 -0.7954 -0.3982  0.0510
 2088TIP3   OH227678   2.227   0.887   0.405 -0.0559  0.6286  0.3044
 2088TIP3    H127679   2.303   0.857   0.355  0.6712 -1.7480  2.7530
 2088TIP3    H227680   2.160   0.820   0.391 -1.8075  2.7054 -1.8467
 2089TIP3   OH227681   4.691   6.081   3.235  0.2419 -0.3348  0.2483
 2089TIP3    H127682   4.745   6.018   3.283  0.1588 -0.2576  0.4391
 2089TIP3    H227683   4.619   6.102   3.294  0.8209  0.7236  0.5895
 2090TIP3   OH227684   2.692   5.635  15.475  0.2428  0.1964  0.4323
 2090TIP3    H127685   2.622   5.608  15.415  3.2232 -0.5566 -2.8772
 2090TIP3    H227686   2.711   5.556  15.526 -0.2983 -0.0023  0.3387
 2091TIP3   OH227687   5.175   1.597   5.188 -0.1472 -0.2934 -0.5431
 2091TIP3    H127688   5.195   1.690   5.180 -0.5262 -0.1477  0.1948
 2091TIP3    H227689   5.201   1.560   5.103  0.2509  0.4327 -0.7446
 2092TIP3   OH227690   1.560   1.601   2.775 -0.1158  0.1074  0.3419
 2092TIP3    H127691   1.504   1.524   2.781 -0.1349  0.0515 -0.4318
 2092TIP3    H227692   1.586   1.619   2.865  0.4772 -1.2452  0.4644
 2093TIP3   OH227693   2.308   4.443   5.691 -0.1008 -0.6400 -0.2026
 2093TIP3    H127694   2.332   4.479   5.606  2.7632  0.9951  1.2110
 2093TIP3    H227695   2.337   4.352   5.687 -0.8617 -0.8459 -1.2907
 2094TIP3   OH227696   2.642   4.275   5.904  0.3191  0.3112 -0.3398
 2094TIP3    H127697   2.697   4.216   5.854  1.0479  1.1716 -0.5613
 2094TIP3    H227698   2.698   4.308   5.973  0.3978  2.0004 -1.1915
 2095TIP3   OH227699   6.596   3.727  12.805  0.0219  0.6212 -0.2860
 2095TIP3    H127700   6.526   3.732  12.739  1.1070 -0.5846 -1.5768
 2095TIP3    H227701   6.555   3.755  12.886 -1.5907  1.2850 -1.3093
 2096TIP3   OH227702   3.213   3.742  17.052 -0.3496  0.1318  0.2736
 2096TIP3    H127703   3.157   3.667  17.034 -0.2568 -0.0475  0.7215
 2096TIP3    H227704   3.153   3.813  17.072 -0.4217  0.0241  0.4343
 2097TIP3   OH227705   0.653   4.347  15.051 -0.5657 -0.5720  0.0334
 2097TIP3    H127706   0.623   4.434  15.079  3.2444  0.9843 -0.5145
 2097TIP3    H227707   0.721   4.323  15.115 -0.9116 -2.7720 -0.3778
 2098TIP3   OH227708   1.125   6.433  14.485 -0.3381  0.1050 -0.1044
 2098TIP3    H127709   1.131   6.378  14.407  1.5628  2.4001 -1.6391
 2098TIP3    H227710   1.147   6.521  14.455 -2.0686  1.5361  2.5268
 2099TIP3   OH227711   2.172   5.901  15.022  0.1356 -0.2805  0.5609
 2099TIP3    H127712   2.228   5.830  15.055  0.8329 -0.5759 -1.2065
 2099TIP3    H227713   2.101   5.857  14.977  0.8926  0.1419 -1.0671
 2100TIP3   OH227714   2.465   6.004  10.592  0.4397 -0.4021  0.0791
 2100TIP3    H127715   2.544   5.954  10.613  0.9741 -0.1474 -1.2332
 2100TIP3    H227716   2.472   6.084  10.643  1.2742 -0.1772 -0.3818
 2101TIP3   OH227717   4.903   0.120  12.195 -1.0797 -0.1424  0.3129
 2101TIP3    H127718   4.866   0.033  12.186 -0.7446 -0.1586 -1.1244
 2101TIP3    H227719   4.851   0.175  12.136  0.8082 -0.0840 -1.3947
 2102TIP3   OH227720   2.520   3.558   6.357  0.4226  0.1129  0.5545
 2102TIP3    H127721   2.471   3.593   6.431  0.8653  0.2214  0.7983
 2102TIP3    H227722   2.453   3.532   6.294  0.0272 -0.4706  1.2125
 2103TIP3   OH227723   0.155   0.745  13.637 -0.1684  0.1042 -0.0374
 2103TIP3    H127724   0.094   0.710  13.702 -0.5628  0.8966  0.0382
 2103TIP3    H227725   0.114   0.827  13.609  0.8907  0.6670  0.0520
 2104TIP3   OH227726   3.569   3.183   3.360  0.5109  0.2518  0.3544
 2104TIP3    H127727   3.479   3.195   3.329  0.9813 -0.9034 -1.5979
 2104TIP3    H227728   3.562   3.118   3.429  0.1228 -2.0134 -1.7332
 2105TIP3   OH227729   6.260   6.566   3.870  0.2825  0.5427 -0.1942
 2105TIP3    H127730   6.218   6.623   3.934  0.0965 -0.3984  0.5455
 2105TIP3    H227731   6.352   6.566   3.895  0.1199 -0.2720  0.4390
 2106TIP3   OH227732   6.176   0.627   5.888  0.2829 -0.3223 -0.1988
 2106TIP3    H127733   6.257   0.666   5.920  1.3464 -0.5636 -2.5248
 2106TIP3    H227734   6.116   0.701   5.878  0.8945  0.1414 -0.4703
 2107TIP3   OH227735   0.527   2.699   2.850  0.2586 -0.2019  0.2223
 2107TIP3    H127736   0.464   2.763   2.883 -0.8539 -1.7238  1.1754
 2107TIP3    H227737   0.613   2.734   2.874 -0.3831  0.4584  1.5835
 2108TIP3   OH227738   0.071   2.639  16.788  0.3193 -1.6512  0.3800
 2108TIP3    H127739   0.062   2.561  16.733 -0.8154 -1.1231 -0.1856
 2108TIP3    H227740   0.166   2.653  16.793  0.5918 -3.6107  1.2719
 2109TIP3   OH227741   6.337   5.113  16.010 -0.2315 -0.0316  0.1356
 2109TIP3    H127742   6.403   5.183  16.012 -0.0401 -0.2065  0.0370
 2109TIP3    H227743   6.339   5.081  15.920 -1.4381  0.8879 -0.2277
 2110TIP3   OH227744   6.110   0.782   2.498 -0.4358  0.4782  0.3747
 2110TIP3    H127745   6.075   0.771   2.410 -1.6423 -0.8893  0.9968
 2110TIP3    H227746   6.093   0.698   2.541  0.7577  0.8991  1.6904
 2111TIP3   OH227747   6.326   5.893   5.367 -0.5934  0.2393 -0.1264
 2111TIP3    H127748   6.406   5.876   5.316 -2.0183  1.6802 -2.9619
 2111TIP3    H227749   6.319   5.819   5.427  2.8896  0.1042  0.2336
 2112TIP3   OH227750   2.757   6.193  14.935  0.2444 -0.0931 -0.2057
 2112TIP3    H127751   2.835   6.239  14.966  0.8803 -1.2994  0.0354
 2112TIP3    H227752   2.718   6.251  14.870  0.8033  0.9506  0.3942
 2113TIP3   OH227753   0.504   0.079   3.855  0.6129  0.1824  0.7411
 2113TIP3    H127754   0.550   0.109   3.933  0.7529 -0.3790  0.8779
 2113TIP3    H227755   0.479   0.159   3.809  0.0245  0.5293  1.6578
 2114TIP3   OH227756   2.349   2.620  10.242  0.0291  0.0138 -0.6028
 2114TIP3    H127757   2.427   2.651  10.197  0.6442  2.2677  1.8980
 2114TIP3    H227758   2.378   2.601  10.331 -1.9282 -0.6165 -0.0694
 2115TIP3   OH227759   5.800   2.653  14.502 -0.0399  0.0206  0.1525
 2115TIP3    H127760   5.737   2.711  14.458  0.2266  1.7607  2.0080
 2115TIP3    H227761   5.821   2.698  14.584  1.7293 -1.7506  0.7026
 2116TIP3   OH227762   6.656   3.587  13.223 -0.3883 -0.7123  0.4856
 2116TIP3    H127763   6.695   3.635  13.296 -2.3374  0.1323  0.9959
 2116TIP3    H227764   6.592   3.529  13.264  1.8425 -3.7404 -0.1262
 2117TIP3   OH227765   2.529   4.930   3.273 -0.2109  0.0962  0.0338
 2117TIP3    H127766   2.623   4.937   3.292  0.2541 -3.1715 -0.7220
 2117TIP3    H227767   2.503   4.847   3.312 -2.8335  1.0033  0.2992
 2118TIP3   OH227768   3.685   3.795   5.901  0.0160  0.4990  0.7204
 2118TIP3    H127769   3.647   3.811   5.988  0.9722 -1.2739  1.4839
 2118TIP3    H227770   3.670   3.702   5.885  2.0818  0.2502  0.0970
 2119TIP3   OH227771   2.239   4.444   1.520  0.1173  0.6453  0.0170
 2119TIP3    H127772   2.295   4.443   1.597 -0.8109 -0.2072  0.6894
 2119TIP3    H227773   2.153   4.469   1.553 -0.2469  0.4759 -0.7721
 2120TIP3   OH227774   0.792   2.739   2.740 -0.3305  0.1272  0.3004
 2120TIP3    H127775   0.798   2.712   2.648 -2.0976  0.8941 -0.0558
 2120TIP3    H227776   0.863   2.802   2.752 -0.3754  0.3593 -0.6625
 2121TIP3   OH227777   4.427   3.504  14.734 -0.1462  0.2015  0.3918
 2121TIP3    H127778   4.394   3.448  14.805 -1.0563 -0.2268 -0.3615
 2121TIP3    H227779   4.363   3.493  14.664  0.7255  0.6720 -0.4773
 2122TIP3   OH227780   0.849   2.528   4.294 -0.3045 -0.2936  0.2363
 2122TIP3    H127781   0.917   2.526   4.227 -0.4455  0.6716  0.0538
 2122TIP3    H227782   0.860   2.614   4.335 -0.4615 -0.7280  1.1965
 2123TIP3   OH227783   0.612   2.120  16.992  0.1938 -0.1913  0.3851
 2123TIP3    H127784   0.567   2.050  16.944 -0.8504  0.7773 -0.0654
 2123TIP3    H227785   0.633   2.185  16.926  1.9130 -0.4414  0.6742
 2124TIP3   OH227786   0.098   0.043   2.505 -0.0997 -0.0606  0.1777
 2124TIP3    H127787   0.181  -0.002   2.490  0.5499  1.0676  0.2974
 2124TIP3    H227788   0.062   0.002   2.584  1.4907  1.0347  1.5049
 2125TIP3   OH227789   2.750   1.279  16.054 -0.9072 -0.0237 -0.1618
 2125TIP3    H127790   2.667   1.241  16.084 -0.5479 -0.8569 -0.2111
 2125TIP3    H227791   2.807   1.204  16.039 -0.6234  0.4444 -1.5705
 2126TIP3   OH227792   0.340   6.545  17.189 -0.1844 -0.3053 -0.1556
 2126TIP3    H127793   0.264   6.522  17.136 -0.5696  0.2346  0.1533
 2126TIP3    H227794   0.413   6.497  17.149 -0.4890  0.0034 -1.0951
 2127TIP3   OH227795   4.571   3.462   5.267 -0.5750 -0.5533  0.0123
 2127TIP3    H127796   4.486   3.441   5.306 -0.2076 -0.0096  1.1437
 2127TIP3    H227797   4.611   3.523   5.329  1.3403 -2.1089  0.3648
 2128TIP3   OH227798   2.327   3.992   0.327 -0.3025 -0.9243 -0.5914
 2128TIP3    H127799   2.374   4.044   0.263  1.3894 -1.3009  0.3236
 2128TIP3    H227800   2.290   4.056   0.388  0.3312 -0.6922 -0.4449
 2129TIP3   OH227801   4.975   5.114   3.930  0.6914 -0.6245  0.3252
 2129TIP3    H127802   5.027   5.090   3.853  0.7292  1.5804 -0.3469
 2129TIP3    H227803   4.919   5.186   3.901 -0.9074 -1.2430  1.7563
 2130TIP3   OH227804   3.421   1.674  11.066  0.0080  0.1247 -0.1252
 2130TIP3    H127805   3.481   1.730  11.018  0.7220  2.3921  3.2944
 2130TIP3    H227806   3.468   1.651  11.146 -1.9385 -1.8409  0.5095
 2131TIP3   OH227807   0.867   4.482  12.716 -0.1182  0.1368  0.1199
 2131TIP3    H127808   0.860   4.561  12.663  0.2664  1.6490  2.2366
 2131TIP3    H227809   0.958   4.454  12.705 -0.0639  0.3944 -0.0983
 2132TIP3   OH227810   1.752   3.980   4.854  0.4995  0.5698 -0.0157
 2132TIP3    H127811   1.799   4.048   4.805 -1.8042  1.7422 -0.6875
 2132TIP3    H227812   1.814   3.908   4.860  1.3838  0.9343 -3.4547
 2133TIP3   OH227813   4.140   1.042   4.819 -0.5753 -0.4084  0.0299
 2133TIP3    H127814   4.106   0.954   4.834 -0.7302 -0.2584  0.5912
 2133TIP3    H227815   4.228   1.040   4.857 -0.6433 -0.2720  0.1951
 2134TIP3   OH227816   0.294   4.986  12.284 -0.2877  0.7576 -0.4039
 2134TIP3    H127817   0.304   4.987  12.189  0.1739  1.2448 -0.3479
 2134TIP3    H227818   0.323   4.898  12.310 -0.3118  0.6614 -0.6957
 2135TIP3   OH227819   3.500   1.741  13.497  0.2523  0.0248  0.0383
 2135TIP3    H127820   3.453   1.796  13.435  0.3130 -0.4714 -0.4447
 2135TIP3    H227821   3.554   1.684  13.443 -1.0116 -1.6170  0.4770
 2136TIP3   OH227822   4.461   1.185   3.770 -0.2954  0.6214 -0.0605
 2136TIP3    H127823   4.527   1.214   3.707 -0.6577  0.2927 -0.5879
 2136TIP3    H227824   4.458   1.256   3.834  1.0654  0.3396  0.3460
 2137TIP3   OH227825   0.727   3.236  17.104 -0.2629 -0.5536 -0.0513
 2137TIP3    H127826   0.636   3.217  17.079 -0.6783  0.8763  0.3448
 2137TIP3    H227827   0.767   3.149  17.113 -1.7198 -1.2253  0.2458
 2138TIP3   OH227828   2.412   0.842   4.058 -0.2296 -0.0055 -0.1396
 2138TIP3    H127829   2.457   0.832   4.141 -1.2586  0.5750  0.5002
 2138TIP3    H227830   2.391   0.752   4.031  0.3794 -0.2110  0.0733
 2139TIP3   OH227831   0.953   1.612   5.582 -0.4458  0.0785  0.5628
 2139TIP3    H127832   0.913   1.638   5.666 -0.1223  1.8538  0.1909
 2139TIP3    H227833   0.879   1.603   5.522 -0.6311 -0.6336  0.9007
 2140TIP3   OH227834   5.186   5.578  11.642 -0.0253  0.3945  0.2279
 2140TIP3    H127835   5.275   5.612  11.639 -0.7160  2.5511  2.6181
 2140TIP3    H227836   5.141   5.619  11.568  1.0490 -1.0542 -1.2543
 2141TIP3   OH227837   5.378   1.537  16.611  0.0079 -0.4768 -0.2596
 2141TIP3    H127838   5.354   1.593  16.685  1.7260 -0.9878  0.7061
 2141TIP3    H227839   5.416   1.459  16.651 -0.1632 -1.2994 -1.6628
 2142TIP3   OH227840   2.730   2.590   2.275 -0.5870  0.2171  0.4417
 2142TIP3    H127841   2.730   2.655   2.204  1.4514 -1.3761 -1.0731
 2142TIP3    H227842   2.637   2.569   2.288 -0.9771  0.3243 -1.9500
 2143TIP3   OH227843   4.411   3.502   0.796  1.0097 -0.4531  0.0531
 2143TIP3    H127844   4.319   3.499   0.768  1.0174 -1.9562  0.1663
 2143TIP3    H227845   4.410   3.556   0.875 -0.1084 -2.2109  1.2670
 2144TIP3   OH227846   0.840   5.376   1.686  0.4201 -0.6066  0.0612
 2144TIP3    H127847   0.926   5.368   1.726  1.1815  1.3253 -1.1561
 2144TIP3    H227848   0.791   5.432   1.745 -0.3207 -2.3792  1.1917
 2145TIP3   OH227849   2.832   2.629   6.603  0.3596 -0.0282 -0.2038
 2145TIP3    H127850   2.865   2.610   6.515  2.2037  0.7365  0.3058
 2145TIP3    H227851   2.901   2.681   6.644 -1.4429  1.5122  0.9447
 2146TIP3   OH227852   4.204   0.677  15.265  0.3557 -0.1467  0.0864
 2146TIP3    H127853   4.297   0.657  15.280  0.4679  0.2131 -0.1083
 2146TIP3    H227854   4.160   0.593  15.271  0.5266 -0.1393  1.4630
 2147TIP3   OH227855   5.020   3.599   5.384 -0.4482 -0.1610  0.3115
 2147TIP3    H127856   4.946   3.539   5.389 -1.0648  0.4915 -0.8979
 2147TIP3    H227857   5.084   3.562   5.446 -2.2070 -0.1024  2.2295
 2148TIP3   OH227858   2.288   5.028  14.683  0.3408 -0.1041 -0.0354
 2148TIP3    H127859   2.287   4.954  14.622 -0.1794  0.1320 -0.3142
 2148TIP3    H227860   2.353   5.089  14.646  0.1260 -0.0230 -0.2795
 2149TIP3   OH227861   5.746   2.906  14.192 -0.2582  0.0818 -0.0324
 2149TIP3    H127862   5.730   2.911  14.098  1.7712  1.0997 -0.3515
 2149TIP3    H227863   5.679   2.847  14.225 -0.2464 -1.2364 -2.2992
 2150TIP3   OH227864   6.097   3.442   1.518  0.2433  0.3760  0.4375
 2150TIP3    H127865   6.086   3.536   1.526 -1.6073  0.3889 -1.6151
 2150TIP3    H227866   6.008   3.409   1.504  0.9586 -1.5767  0.3201
 2151TIP3   OH227867   6.768   5.138   4.203  0.4019  0.3184  0.7640
 2151TIP3    H127868   6.723   5.205   4.151  0.0392 -1.3763 -1.1609
 2151TIP3    H227869   6.728   5.145   4.290 -2.1047  0.2876 -0.3304
 2152TIP3   OH227870   6.597   6.294   1.035 -0.2779 -0.6844 -0.8782
 2152TIP3    H127871   6.612   6.225   1.099 -1.8160  0.4731  0.7786
 2152TIP3    H227872   6.669   6.286   0.973  2.3912 -0.5614  2.1152
 2153TIP3   OH227873   5.115   1.565  15.429  0.1576  0.1435  0.0015
 2153TIP3    H127874   5.107   1.527  15.517  0.2547 -1.2255 -0.5625
 2153TIP3    H227875   5.169   1.502  15.381 -1.1055  0.1460 -1.4702
 2154TIP3   OH227876   2.222   1.966  14.565  0.4338 -0.6798  0.5846
 2154TIP3    H127877   2.136   1.997  14.535  0.3373 -1.2667  0.2535
 2154TIP3    H227878   2.203   1.921  14.647  0.4564 -0.6301  0.6182
 2155TIP3   OH227879   1.462   0.498  13.987 -0.1915  0.1337  0.2686
 2155TIP3    H127880   1.453   0.537  13.900 -1.8975 -1.6005 -0.3672
 2155TIP3    H227881   1.384   0.527  14.034  0.7693  1.1376  1.2635
 2156TIP3   OH227882   4.323   5.338  11.791  0.5338  0.2836  0.2248
 2156TIP3    H127883   4.247   5.280  11.790  0.1818  0.7271  0.7086
 2156TIP3    H227884   4.318   5.381  11.877  1.2423  0.4256  0.1929
 2157TIP3   OH227885   6.320   1.958  13.425  0.1683  0.2133 -0.1105
 2157TIP3    H127886   6.302   2.044  13.463  1.3965  0.2551  0.4270
 2157TIP3    H227887   6.414   1.960  13.407  0.3246 -1.2339  0.4844
 2158TIP3   OH227888   2.492   1.642  16.198  0.1571 -0.3658  0.0744
 2158TIP3    H127889   2.518   1.589  16.123 -1.0943 -1.7983  0.6167
 2158TIP3    H227890   2.521   1.592  16.274  3.1053  1.9736  0.5788
 2159TIP3   OH227891   6.051   1.849  16.143  0.5679  0.5112  0.1991
 2159TIP3    H127892   6.130   1.844  16.198  2.2583 -1.5123 -2.2673
 2159TIP3    H227893   6.046   1.941  16.117  3.0364  0.4030 -0.8284
 2160TIP3   OH227894   6.634   3.207   5.752 -0.0006 -0.2825  0.3941
 2160TIP3    H127895   6.669   3.126   5.789 -0.9497 -1.2427 -0.7708
 2160TIP3    H227896   6.586   3.179   5.674  1.7624  1.6675 -1.4552
 2161TIP3   OH227897   0.741   4.134  13.830  0.0463  0.2155 -0.1316
 2161TIP3    H127898   0.662   4.143  13.777  0.0803  0.3050 -0.1668
 2161TIP3    H227899   0.752   4.219  13.871  0.1885  0.2357 -0.2137
 2162TIP3   OH227900   0.301   5.712   0.959 -0.0032  0.1560  0.1063
 2162TIP3    H127901   0.279   5.752   1.043  1.2768  1.7880 -0.3331
 2162TIP3    H227902   0.380   5.661   0.976  0.7396  1.1671 -0.2984
 2163TIP3   OH227903   2.375   2.656  12.087  0.2020  0.5670  0.0492
 2163TIP3    H127904   2.338   2.569  12.098 -0.1660  1.0281  2.6187
 2163TIP3    H227905   2.467   2.640  12.065  0.2347 -0.4601  0.8976
 2164TIP3   OH227906   4.777   3.432  14.647 -0.1126 -0.0092  0.7643
 2164TIP3    H127907   4.867   3.439  14.679  0.1544 -0.2719  0.0614
 2164TIP3    H227908   4.755   3.522  14.620 -0.8921  0.5519  3.1584
 2165TIP3   OH227909   5.825   5.487  13.539  0.4870  0.6562  0.2381
 2165TIP3    H127910   5.809   5.538  13.459  1.7932  1.2905  0.3767
 2165TIP3    H227911   5.917   5.504  13.561  0.4581 -0.4224  1.2379
 2166TIP3   OH227912   5.744   1.369  11.829  0.0086 -0.2602  0.1380
 2166TIP3    H127913   5.670   1.387  11.771  1.1406 -0.5521 -1.4302
 2166TIP3    H227914   5.774   1.455  11.857 -0.2668 -0.1010 -0.0521
 2167TIP3   OH227915   5.279   5.736   6.163  0.3929  0.0050  0.2847
 2167TIP3    H127916   5.253   5.675   6.095  2.8132 -2.4032  1.4365
 2167TIP3    H227917   5.278   5.822   6.120 -0.4741 -1.1459 -2.0738
 2168TIP3   OH227918   1.003   6.747  12.758 -0.7955  0.0683 -0.4957
 2168TIP3    H127919   1.037   6.806  12.691 -1.0294  0.6107 -0.1388
 2168TIP3    H227920   1.000   6.662  12.715  0.8067  0.0477 -0.5900
 2169TIP3   OH227921   5.112   2.808  16.028  0.2274  0.2775  0.2382
 2169TIP3    H127922   5.160   2.855  16.097  2.5288 -0.2826 -0.9273
 2169TIP3    H227923   5.143   2.847  15.947 -0.7574 -0.6389 -0.5918
 2170TIP3   OH227924   3.415   0.800   3.959 -0.1928 -0.1379 -0.3266
 2170TIP3    H127925   3.364   0.876   3.931 -2.5560 -1.4304  0.3344
 2170TIP3    H227926   3.420   0.745   3.880 -0.4457 -0.3347 -0.2069
 2171TIP3   OH227927   1.898   3.899  12.551  0.2013 -0.2257  0.1183
 2171TIP3    H127928   1.877   3.883  12.459  2.3939  0.4931 -0.5434
 2171TIP3    H227929   1.981   3.853  12.564  0.8038  1.1734  1.2592
 2172TIP3   OH227930   4.893   4.143  14.159  0.2008  0.3782  0.9736
 2172TIP3    H127931   4.976   4.171  14.119  0.2025  0.3572  0.9609
 2172TIP3    H227932   4.826   4.171  14.098  0.2786 -0.6328  0.4203
 2173TIP3   OH227933   5.338   2.247  13.129 -0.0408 -0.1151 -0.3576
 2173TIP3    H127934   5.251   2.208  13.134 -0.3550  0.4842 -0.9971
 2173TIP3    H227935   5.395   2.185  13.175 -0.7812 -0.5633 -0.0278
 2174TIP3   OH227936   0.364   5.084  11.616  0.2261 -0.2428  0.4576
 2174TIP3    H127937   0.303   5.123  11.553 -1.2871 -1.6828  0.9873
 2174TIP3    H227938   0.423   5.031  11.563  1.1278  1.2564 -0.0739
 2175TIP3   OH227939   0.250   5.180  15.955 -0.2234  0.7601 -0.4274
 2175TIP3    H127940   0.268   5.092  15.921 -1.8783  0.0325  0.5279
 2175TIP3    H227941   0.289   5.180  16.042 -2.7909 -0.0877  0.7832
 2176TIP3   OH227942   1.862   4.379  16.789 -0.3177  0.1094  0.2876
 2176TIP3    H127943   1.877   4.285  16.777  0.7420  0.0981  1.6140
 2176TIP3    H227944   1.936   4.421  16.746  0.8870  0.2193  2.4097
 2177TIP3   OH227945   5.393   5.919   2.015 -0.0609 -0.4452 -0.0818
 2177TIP3    H127946   5.415   5.830   2.043  1.2358  0.7460  3.0037
 2177TIP3    H227947   5.312   5.939   2.063  0.1501  0.3383 -0.0481
 2178TIP3   OH227948   0.701   1.590  12.939  0.1033  0.4890  0.1627
 2178TIP3    H127949   0.787   1.627  12.959  0.2338 -0.8511  2.2521
 2178TIP3    H227950   0.720   1.502  12.907 -0.5576 -0.9090  3.3936
 2179TIP3   OH227951   6.711   1.922  16.477 -0.3742  0.1255  0.1851
 2179TIP3    H127952   6.767   1.991  16.441 -1.9360  0.8290 -0.9449
 2179TIP3    H227953   6.712   1.937  16.571 -0.1560  1.2807  0.0135
 2180TIP3   OH227954   2.037   0.128   3.780  0.6990  0.1077  0.2815
 2180TIP3    H127955   1.966   0.066   3.764  1.6488 -1.1844  0.9151
 2180TIP3    H227956   1.994   0.211   3.797 -0.6113 -0.4108 -0.4344
 2181TIP3   OH227957   0.659   5.692  12.897 -0.1894  0.2730 -0.4405
 2181TIP3    H127958   0.709   5.713  12.818 -1.4283  1.6495 -0.8848
 2181TIP3    H227959   0.680   5.763  12.958  0.4636 -0.5766  0.3439
 2182TIP3   OH227960   0.712   4.342   3.385  0.3284  0.8758  0.7586
 2182TIP3    H127961   0.761   4.337   3.303  1.0044  1.3808  1.1162
 2182TIP3    H227962   0.623   4.315   3.363  0.4964  1.0522 -0.1458
 2183TIP3   OH227963   1.233   5.445   5.277 -0.1527 -0.2794  0.5331
 2183TIP3    H127964   1.181   5.411   5.204  0.1304  0.5877 -0.0820
 2183TIP3    H227965   1.177   5.432   5.353 -0.8812 -0.2535  0.0184
 2184TIP3   OH227966   3.586   3.212   5.096  0.0637  0.2015 -0.2232
 2184TIP3    H127967   3.496   3.234   5.075  0.5566  1.5322 -0.9659
 2184TIP3    H227968   3.637   3.248   5.024  1.1054 -1.3764 -0.2961
 2185TIP3   OH227969   0.963   3.781  13.220 -0.5106  0.2441 -0.0905
 2185TIP3    H127970   0.961   3.786  13.315 -1.2054 -0.7876 -0.0420
 2185TIP3    H227971   1.045   3.736  13.199 -0.3924  0.4090  0.0196
 2186TIP3   OH227972   0.438   5.251   5.305  0.0584  0.2226 -0.0481
 2186TIP3    H127973   0.471   5.327   5.256  2.9975 -0.7940  0.2368
 2186TIP3    H227974   0.353   5.232   5.266  0.9727  1.3164 -2.6951
 2187TIP3   OH227975   2.040   3.613   5.446  0.6526  0.0408 -0.2374
 2187TIP3    H127976   2.077   3.696   5.416  0.6495 -0.1444 -0.7532
 2187TIP3    H227977   2.063   3.609   5.538 -0.3163  1.1560  0.0717
 2188TIP3   OH227978   0.479   1.814  16.978 -0.4280 -0.1278  0.2497
 2188TIP3    H127979   0.471   1.873  16.902  1.0512  0.7605  0.7582
 2188TIP3    H227980   0.571   1.788  16.978 -0.0422  1.1145  2.6364
 2189TIP3   OH227981   3.763   3.865  13.956 -0.9128 -0.3067 -0.2011
 2189TIP3    H127982   3.847   3.909  13.940 -0.5894  0.2199  2.5709
 2189TIP3    H227983   3.732   3.840  13.869  1.6507  0.3490 -1.3689
 2190TIP3   OH227984   2.683   0.574  16.791  0.3601 -0.1684  0.4976
 2190TIP3    H127985   2.675   0.495  16.845 -1.3739 -1.1254 -1.1182
 2190TIP3    H227986   2.716   0.543  16.707  1.4128  1.0994  0.4157
 2191TIP3   OH227987   5.994   2.704  12.377 -0.4844 -0.3064  0.5371
 2191TIP3    H127988   6.064   2.682  12.437 -1.8113 -2.6843  1.2495
 2191TIP3    H227989   6.018   2.661  12.295 -0.5260 -0.1441  0.4395
 2192TIP3   OH227990   4.005   2.581   4.889  0.2144  0.7451  0.1334
 2192TIP3    H127991   3.994   2.620   4.976  2.3010  2.2395 -0.2407
 2192TIP3    H227992   3.935   2.620   4.837 -1.2337 -0.3730  1.1729
 2193TIP3   OH227993   1.030   3.269  11.956 -0.4517  0.3270 -0.2205
 2193TIP3    H127994   1.125   3.278  11.957 -0.5074  1.3283 -2.0259
 2193TIP3    H227995   1.013   3.201  11.891 -0.9814  0.2076  0.0401
 2194TIP3   OH227996   4.668   5.503  15.944  0.2215  0.2060 -0.6339
 2194TIP3    H127997   4.575   5.484  15.929  0.2732 -0.6896  0.1066
 2194TIP3    H227998   4.681   5.485  16.037  1.1735  0.1707 -0.7735
 2195TIP3   OH227999   2.515   6.643   5.723 -0.0187 -0.0311 -0.4146
 2195TIP3    H128000   2.592   6.594   5.694 -0.9326 -1.0230 -1.1566
 2195TIP3    H228001   2.454   6.577   5.754 -0.7742  0.7299 -0.2492
 2196TIP3   OH228002   5.422   4.671  12.916 -0.7102 -0.5414 -0.3336
 2196TIP3    H128003   5.382   4.757  12.934 -0.2471 -0.2340 -0.7652
 2196TIP3    H228004   5.489   4.662  12.984 -1.8340 -1.2774  0.6998
 2197TIP3   OH228005   4.292   1.277   0.554  0.0760 -0.4224 -0.1885
 2197TIP3    H128006   4.243   1.253   0.632  2.1322  2.6067  2.1421
 2197TIP3    H228007   4.226   1.311   0.493 -1.1311  0.4680  1.5970
 2198TIP3   OH228008   1.245   4.362  16.319 -0.2528  0.1497  0.0115
 2198TIP3    H128009   1.206   4.321  16.396  0.0241  1.2107  0.7336
 2198TIP3    H228010   1.326   4.313  16.304 -1.0574 -1.0345 -0.5305
 2199TIP3   OH228011   4.827   5.786  15.925  0.0607 -0.1088 -0.1877
 2199TIP3    H128012   4.894   5.722  15.900 -0.1245 -0.4087  0.0770
 2199TIP3    H228013   4.844   5.804  16.018  0.3876  0.5617 -0.3779
 2200TIP3   OH228014   3.333   4.013   5.299 -0.4251  0.8067 -0.1084
 2200TIP3    H128015   3.393   4.075   5.257  0.4543 -0.8965 -1.4225
 2200TIP3    H228016   3.276   3.983   5.229 -0.8120  0.0967  0.5026
 2201TIP3   OH228017   6.679   1.033  11.509 -0.1596  0.4055 -0.4144
 2201TIP3    H128018   6.648   0.945  11.528 -0.0981  0.6135  0.7101
 2201TIP3    H228019   6.613   1.069  11.450 -1.6144  0.5247  1.2260
 2202TIP3   OH228020   1.101   2.775  13.719 -0.0649 -0.2081  0.0337
 2202TIP3    H128021   1.147   2.853  13.750  0.0406 -0.5758  0.8098
 2202TIP3    H228022   1.009   2.792  13.741  0.0318 -0.5406  0.7107
 2203TIP3   OH228023   0.397   3.496   3.767  0.3356 -0.2758  0.4606
 2203TIP3    H128024   0.316   3.481   3.815  0.5194 -1.1072  0.5147
 2203TIP3    H228025   0.379   3.469   3.677  0.4646 -0.1807  0.4043
 2204TIP3   OH228026   1.802   1.971  12.658 -0.0110  0.0533  0.3244
 2204TIP3    H128027   1.755   2.013  12.730  1.1602  1.1243  0.4890
 2204TIP3    H228028   1.750   1.992  12.580 -1.2699 -1.0891  0.8331
 2205TIP3   OH228029   5.550   4.160   4.146 -0.4321  0.1165 -0.2478
 2205TIP3    H128030   5.528   4.253   4.150  0.2560  0.2829 -0.2056
 2205TIP3    H228031   5.616   4.148   4.215 -0.1892 -0.3100 -0.5512
 2206TIP3   OH228032   6.630   1.032   4.855 -0.1175 -0.2865 -0.3791
 2206TIP3    H128033   6.688   0.998   4.923 -0.2960 -1.3312 -0.7322
 2206TIP3    H228034   6.637   1.127   4.862 -0.0169 -0.3899  0.9877
 2207TIP3   OH228035   3.580   1.399   2.725 -0.6631 -0.7054  0.7677
 2207TIP3    H128036   3.491   1.386   2.691 -1.2411 -1.0223  2.3618
 2207TIP3    H228037   3.593   1.494   2.723  0.1186 -0.8182 -2.2856
 2208TIP3   OH228038   2.243   1.317   1.418  0.6915 -0.4849 -0.2966
 2208TIP3    H128039   2.284   1.297   1.502 -0.3255 -0.8654  0.1154
 2208TIP3    H228040   2.162   1.266   1.418  0.8327 -0.7400 -1.6418
 2209TIP3   OH228041   2.055   2.437   5.095  0.5084 -0.0752 -0.0559
 2209TIP3    H128042   2.006   2.407   5.171  0.9626  0.2050  0.3480
 2209TIP3    H228043   2.023   2.525   5.078 -0.2755 -0.4839 -0.7770
 2210TIP3   OH228044   0.763   1.443  12.022 -0.1381  0.2899  0.0525
 2210TIP3    H128045   0.733   1.529  12.052  0.9913  1.5243 -2.2368
 2210TIP3    H228046   0.721   1.431  11.936 -1.2978 -2.0318  0.8869
 2211TIP3   OH228047   5.070   5.592  12.128 -0.1261 -0.4344 -0.1629
 2211TIP3    H128048   4.998   5.622  12.184 -0.2069 -0.8653 -0.0346
 2211TIP3    H228049   5.045   5.622  12.040 -0.1388 -0.0068 -0.0106
 2212TIP3   OH228050   3.838   1.989  12.611 -0.6746  0.5994  0.2280
 2212TIP3    H128051   3.806   1.898  12.607 -1.2597  0.8223 -0.2610
 2212TIP3    H228052   3.760   2.042  12.593 -0.0208  1.1515 -1.0221
 2213TIP3   OH228053   5.508   6.344   5.596  0.1669  0.3479 -0.2123
 2213TIP3    H128054   5.486   6.436   5.585  0.1869  0.2856 -0.8194
 2213TIP3    H228055   5.495   6.326   5.689  0.1590  0.9610 -0.0972
 2214TIP3   OH228056   4.144   6.440   5.762 -0.3819  0.1023  0.2156
 2214TIP3    H128057   4.113   6.436   5.853  0.7980  1.2345  0.6862
 2214TIP3    H228058   4.181   6.354   5.745  0.0391  0.1150  1.0493
 2215TIP3   OH228059   4.836   4.651   4.973  0.9461 -0.4907 -0.1190
 2215TIP3    H128060   4.925   4.685   4.978  0.5520  0.4534  0.6989
 2215TIP3    H228061   4.793   4.705   4.908  0.4468  0.2938  0.8475
 2216TIP3   OH228062   3.858   4.798  13.354  0.3294  0.1839  0.3562
 2216TIP3    H128063   3.951   4.775  13.355  0.9697  2.5886 -0.2216
 2216TIP3    H228064   3.854   4.880  13.403 -1.9523 -1.4001  2.9678
 2217TIP3   OH228065   2.977   2.982   3.478 -0.5304  0.0405  0.5463
 2217TIP3    H128066   2.981   2.927   3.400 -0.7553 -0.4640  0.8843
 2217TIP3    H228067   2.884   2.999   3.491 -0.4064  1.1285  0.0143
 2218TIP3   OH228068   3.708   6.409   2.643  0.0972 -0.7139 -1.3965
 2218TIP3    H128069   3.715   6.416   2.548 -0.7814  0.6626 -1.3835
 2218TIP3    H228070   3.764   6.479   2.676 -1.9752  0.8124 -0.9968
 2219TIP3   OH228071   2.611   1.921  11.330  0.1003  0.1903  0.1693
 2219TIP3    H128072   2.659   1.847  11.367  0.8471  1.3354  1.4868
 2219TIP3    H228073   2.596   1.980  11.403 -0.2547  1.4875 -0.9256
 2220TIP3   OH228074   1.328   3.030   2.162  0.1247  0.5260 -0.1364
 2220TIP3    H128075   1.401   3.017   2.222  1.1334  2.4206 -0.9137
 2220TIP3    H228076   1.367   3.024   2.075 -0.9741 -0.2461 -0.5857
 2221TIP3   OH228077   6.460   4.494  17.000 -0.5828  0.6139  0.4138
 2221TIP3    H128078   6.522   4.503  16.927  2.5200  1.1036  3.0017
 2221TIP3    H228079   6.439   4.400  17.002  0.4109  0.3698 -0.2193
 2222TIP3   OH228080   6.639   0.991   0.306  0.4773  0.3628 -0.1919
 2222TIP3    H128081   6.617   0.983   0.399 -0.1709 -0.0391 -0.3807
 2222TIP3    H228082   6.599   1.073   0.279  0.4867  0.3729 -0.1752
 2223TIP3   OH228083   6.588   3.451   5.310 -0.6095 -0.5924  0.4575
 2223TIP3    H128084   6.666   3.504   5.292  0.2179 -1.2986  1.8638
 2223TIP3    H228085   6.596   3.427   5.402 -1.1067 -2.9139 -0.0654
 2224TIP3   OH228086   0.109   1.327   0.914 -0.0059 -0.1983 -0.0935
 2224TIP3    H128087   0.203   1.328   0.933 -0.2745 -0.0993  1.2783
 2224TIP3    H228088   0.067   1.328   1.000 -1.2669 -0.3405 -0.6939
 2225TIP3   OH228089   6.652   6.271  12.287 -0.1453  0.2126 -0.0756
 2225TIP3    H128090   6.730   6.215  12.294 -1.1904 -1.1603  0.7948
 2225TIP3    H228091   6.674   6.349  12.338  0.4532 -0.4345  0.6781
 2226TIP3   OH228092   1.622   6.151   1.176  0.0025 -0.4310 -0.2218
 2226TIP3    H128093   1.573   6.176   1.097 -1.4334 -3.8689 -0.5037
 2226TIP3    H228094   1.695   6.099   1.144 -0.5218 -1.7476  0.7173
 2227TIP3   OH228095   0.967   4.865   0.770 -0.3966  0.0174  0.0317
 2227TIP3    H128096   0.988   4.819   0.851 -0.3126 -0.5633 -0.3143
 2227TIP3    H228097   0.879   4.899   0.783  0.1954  1.2568  0.9539
 2228TIP3   OH228098   3.220   5.520   2.956 -0.0199  0.2835  0.1748
 2228TIP3    H128099   3.207   5.599   2.904  0.4675  1.0721  1.2449
 2228TIP3    H228100   3.222   5.449   2.892 -0.2381  1.1622 -0.8064
 2229TIP3   OH228101   0.638   4.584   3.766 -0.2784 -0.3303  0.4263
 2229TIP3    H128102   0.713   4.629   3.726 -0.7006  0.3608  0.3982
 2229TIP3    H228103   0.670   4.557   3.852 -0.2560  0.7158  0.7548
 2230TIP3   OH228104   4.120   0.533   0.044 -0.2542  0.1391 -0.1571
 2230TIP3    H128105   4.095   0.513  -0.046 -0.5192  0.4930 -0.1603
 2230TIP3    H228106   4.084   0.461   0.096 -0.5445  0.1961 -0.2746
 2231TIP3   OH228107   1.753   4.980  15.257  0.5615 -0.0667 -0.4821
 2231TIP3    H128108   1.703   5.061  15.262  0.2076 -0.3136  0.0864
 2231TIP3    H228109   1.827   5.001  15.200  0.2181  0.5165 -0.7175
 2232TIP3   OH228110   2.396   1.431  15.599  0.4773 -0.3971 -0.3713
 2232TIP3    H128111   2.374   1.519  15.630  0.4691 -0.2055 -0.9234
 2232TIP3    H228112   2.404   1.379  15.679 -0.0687 -0.0218 -0.0718
 2233TIP3   OH228113   4.882   5.346   6.638 -0.1804 -0.1309 -0.2485
 2233TIP3    H128114   4.937   5.377   6.711 -2.8253  1.3184  1.2030
 2233TIP3    H228115   4.885   5.251   6.646  0.5078 -0.0252  1.0386
 2234TIP3   OH228116   3.460   1.307  10.533  0.0406 -0.0254  0.2532
 2234TIP3    H128117   3.448   1.220  10.571  0.2190 -0.5287 -0.8283
 2234TIP3    H228118   3.541   1.301  10.483  0.3993  0.9551  0.6886
 2235TIP3   OH228119   3.866   0.077   1.571  0.5435  1.3141  0.3012
 2235TIP3    H128120   3.883  -0.007   1.613  0.7332  1.4774  0.5463
 2235TIP3    H228121   3.912   0.072   1.487  0.1633  0.9899  0.1108
 2236TIP3   OH228122   0.939   6.665  14.183  0.3609  0.4822  0.4301
 2236TIP3    H128123   0.964   6.708  14.264 -0.8391  1.4594  0.2989
 2236TIP3    H228124   0.845   6.647  14.193  0.5831 -0.9396 -0.0404
 2237TIP3   OH228125   3.786   1.163  12.118  0.4503 -0.1204  0.0685
 2237TIP3    H128126   3.691   1.164  12.109  0.3807 -0.8633  0.7059
 2237TIP3    H228127   3.818   1.208  12.039 -0.3842 -0.9558 -0.7641
 2238TIP3   OH228128   3.909   6.492   4.551 -0.1628 -0.4875  0.0513
 2238TIP3    H128129   3.994   6.448   4.545  0.2788  0.3915 -0.1739
 2238TIP3    H228130   3.906   6.550   4.475 -1.1877 -0.9016 -0.2337
 2239TIP3   OH228131   3.213   0.232   2.131  0.1058 -0.2653  0.0522
 2239TIP3    H128132   3.218   0.328   2.133 -0.9260 -0.1817 -0.6970
 2239TIP3    H228133   3.270   0.207   2.057  0.0759 -0.2048  0.0084
 2240TIP3   OH228134   5.033   0.405  10.418  0.0726  0.0365  0.4951
 2240TIP3    H128135   5.009   0.317  10.390 -0.6956  0.1591  0.7606
 2240TIP3    H228136   5.103   0.392  10.482  0.5127 -0.3393 -0.0626
 2241TIP3   OH228137   3.576   6.077   4.354 -0.9941 -0.2625  0.3585
 2241TIP3    H128138   3.540   6.112   4.272  2.3122 -0.1607 -1.1062
 2241TIP3    H228139   3.604   5.988   4.331  1.8618  0.4943  0.7729
 2242TIP3   OH228140   2.899   1.020  11.500  0.0398 -0.1552  0.2851
 2242TIP3    H128141   2.977   0.987  11.545  0.4517  0.2965 -0.1011
 2242TIP3    H228142   2.931   1.091  11.445 -0.8828  1.0306  1.2527
 2243TIP3   OH228143   3.283   1.738   0.672 -0.1769  0.2424 -0.0656
 2243TIP3    H128144   3.275   1.643   0.678 -1.1630  0.4733  2.8858
 2243TIP3    H228145   3.195   1.771   0.689  0.4622  1.7374  0.4444
 2244TIP3   OH228146   3.706   0.801   1.567  0.0298 -0.3656 -0.6580
 2244TIP3    H128147   3.634   0.824   1.508 -1.0520 -0.0106  0.7551
 2244TIP3    H228148   3.693   0.708   1.586 -1.4348  0.2022  1.3646
 2245TIP3   OH228149   4.379   0.545  13.990  0.2016  0.5057  0.4128
 2245TIP3    H128150   4.385   0.588  13.904 -1.5362  0.7533  0.4072
 2245TIP3    H228151   4.336   0.462  13.971 -1.4461  1.1570  1.2445
 2246TIP3   OH228152   2.087   4.482   0.672  0.8975 -0.2951  0.4854
 2246TIP3    H128153   2.174   4.476   0.713  0.4718 -0.9487  1.3059
 2246TIP3    H228154   2.073   4.396   0.633  0.3637 -0.3863  0.8751
 2247TIP3   OH228155   4.812   2.205   2.695 -0.5139  0.4022  0.5499
 2247TIP3    H128156   4.764   2.184   2.614 -1.4268 -0.2359  1.2471
 2247TIP3    H228157   4.899   2.232   2.665 -0.6983 -0.2683 -0.6284
 2248TIP3   OH228158   5.208   2.563   5.076  0.0881  0.0741 -0.6292
 2248TIP3    H128159   5.149   2.602   5.011 -0.2595  0.0817 -0.3151
 2248TIP3    H228160   5.151   2.505   5.127  0.3525  0.0910 -0.3164
 2249TIP3   OH228161   6.642   3.682   4.887 -0.4575 -0.3842 -0.4260
 2249TIP3    H128162   6.706   3.698   4.817 -1.5109  1.1270 -1.0735
 2249TIP3    H228163   6.669   3.740   4.958 -0.2452 -0.8354 -0.1393
 2250TIP3   OH228164   6.129   4.339   2.702  0.2264 -0.0187 -0.4647
 2250TIP3    H128165   6.044   4.330   2.660  0.0912 -1.5698  0.1198
 2250TIP3    H228166   6.188   4.286   2.649  0.7835  0.8212 -0.7008
 2251TIP3   OH228167   3.753   3.894   0.900 -0.8876 -0.3290 -0.6779
 2251TIP3    H128168   3.787   3.983   0.896 -0.2461 -0.5755 -0.7543
 2251TIP3    H228169   3.768   3.866   0.990  2.7915 -1.8582 -1.6812
 2252TIP3   OH228170   1.959   3.684  11.855  0.4052  0.3392  0.0836
 2252TIP3    H128171   2.033   3.715  11.907  0.1034  1.3918 -0.0969
 2252TIP3    H228172   1.978   3.712  11.766  0.7130 -1.0931 -0.3124
 2253TIP3   OH228173   0.428   2.850  10.837  0.1167  0.3091  0.2087
 2253TIP3    H128174   0.370   2.914  10.797 -0.3898 -0.0593  0.3495
 2253TIP3    H228175   0.516   2.881  10.816 -0.1234  1.0104  0.2164
 2254TIP3   OH228176   4.509   1.997   0.146 -0.3859  0.0434 -0.6050
 2254TIP3    H128177   4.548   1.912   0.169 -0.2695  0.2376 -0.0762
 2254TIP3    H228178   4.484   1.988   0.054 -0.7900 -0.7242 -0.4261
 2255TIP3   OH228179   0.348   3.423  16.930  0.4317  0.1002 -0.6726
 2255TIP3    H128180   0.424   3.479  16.947  0.8384 -0.1505 -1.6567
 2255TIP3    H228181   0.384   3.334  16.931 -0.0175 -0.0828 -0.2409
 2256TIP3   OH228182   4.213   5.729  14.010  0.0218  0.8860 -0.5160
 2256TIP3    H128183   4.178   5.703  13.924 -0.7106  0.0936  0.0144
 2256TIP3    H228184   4.300   5.764  13.990 -0.9764  2.6798 -1.8308
 2257TIP3   OH228185   6.024   5.030  17.135  0.7218 -0.2547  0.1736
 2257TIP3    H128186   6.010   4.994  17.047  0.2994  0.0739  0.1078
 2257TIP3    H228187   6.098   5.089  17.126 -0.6816  1.4506 -0.4260
 2258TIP3   OH228188   3.557   0.470  14.610  0.0529  0.0591  0.5887
 2258TIP3    H128189   3.599   0.531  14.548  0.0814 -0.2029  0.3485
 2258TIP3    H228190   3.617   0.468  14.685 -0.3596  0.9654  0.9538
 2259TIP3   OH228191   5.257   1.628   2.649 -0.2337  0.5047  0.2599
 2259TIP3    H128192   5.297   1.715   2.641 -0.6392  0.5648 -1.2577
 2259TIP3    H228193   5.209   1.631   2.731 -1.1512  2.0953 -0.3152
 2260TIP3   OH228194   6.092   4.845  14.040 -0.0938  0.2431  0.1835
 2260TIP3    H128195   6.148   4.832  14.117  0.5610 -0.9842 -0.4849
 2260TIP3    H228196   6.003   4.850  14.075  0.3019  0.8474  1.1275
 2261TIP3   OH228197   6.531   5.960  12.082 -0.6456  0.2086 -0.4110
 2261TIP3    H128198   6.505   5.920  11.999 -1.3729 -1.1449  0.4658
 2261TIP3    H228199   6.627   5.962  12.078 -0.6650 -0.1359 -1.1430
 2262TIP3   OH228200   3.545   0.496  12.155  0.3671 -0.3382  0.3385
 2262TIP3    H128201   3.504   0.571  12.113  1.4816  0.7853  1.2274
 2262TIP3    H228202   3.627   0.530  12.191  0.3301 -1.6951  1.7659
 2263TIP3   OH228203   5.428   4.916   1.354 -0.2051  0.0728 -0.5804
 2263TIP3    H128204   5.509   4.898   1.306  0.0965  0.7498 -0.3260
 2263TIP3    H228205   5.373   4.965   1.293 -0.7018 -0.9572 -0.9870
 2264TIP3   OH228206   4.649   5.591   5.591 -0.1691 -0.3276  0.2951
 2264TIP3    H128207   4.654   5.537   5.670  2.7736 -1.7912 -0.8321
 2264TIP3    H228208   4.665   5.680   5.621  1.7718 -0.9780  1.2369
 2265TIP3   OH228209   2.856   0.630   6.239 -0.1467 -0.3780 -0.3986
 2265TIP3    H128210   2.888   0.687   6.309 -0.5727  0.0572 -0.5560
 2265TIP3    H228211   2.778   0.588   6.276 -2.0512  1.9989 -1.5677
 2266TIP3   OH228212   1.268   5.824   1.766  0.6524 -0.4899 -0.1979
 2266TIP3    H128213   1.256   5.760   1.836 -1.1720 -0.1242 -0.1661
 2266TIP3    H228214   1.324   5.892   1.804 -0.7977  0.0015  1.0922
 2267TIP3   OH228215   6.762   6.481  13.053 -0.6680  0.3259  0.3812
 2267TIP3    H128216   6.808   6.558  13.086  0.2788 -0.5002  1.0227
 2267TIP3    H228217   6.674   6.486  13.091 -0.5433  0.9862  0.5740
 2268TIP3   OH228218   4.202   4.544   5.043 -0.0537  0.6575  0.0701
 2268TIP3    H128219   4.193   4.639   5.044  0.5530  0.7242 -0.1089
 2268TIP3    H228220   4.135   4.514   4.982  0.8438  1.1145 -1.1727
 2269TIP3   OH228221   3.493   2.399  15.097 -0.4618 -0.1742 -0.2630
 2269TIP3    H128222   3.491   2.334  15.167  1.7896 -0.3350 -0.3156
 2269TIP3    H228223   3.406   2.394  15.057 -1.4787 -0.7310  1.9036
 2270TIP3   OH228224   1.949   2.644  14.628 -0.6685  0.0840  0.1994
 2270TIP3    H128225   1.991   2.577  14.682 -0.4179 -0.7180 -0.9616
 2270TIP3    H228226   1.963   2.726  14.676  1.2905 -0.3223  0.3912
 2271TIP3   OH228227   6.603   3.858   1.603  0.1593  0.1272 -0.6435
 2271TIP3    H128228   6.686   3.822   1.573  0.7057  1.9916 -1.4741
 2271TIP3    H228229   6.540   3.832   1.536  0.3595 -0.1085 -0.7396
 2272TIP3   OH228230   1.849   4.780  13.153  0.1823 -0.4795  0.3150
 2272TIP3    H128231   1.825   4.696  13.113 -0.1913 -0.1446 -0.1729
 2272TIP3    H228232   1.833   4.767  13.247  0.7198 -1.1520  0.3224
 2273TIP3   OH228233   3.242   5.921  12.078  0.0935 -0.0872 -0.1158
 2273TIP3    H128234   3.254   5.871  11.997  1.5621 -2.5903  1.5567
 2273TIP3    H228235   3.182   5.868  12.131  0.4747  0.6642  1.1035
 2274TIP3   OH228236   5.488   6.219   5.369  0.4059 -0.1467  0.0457
 2274TIP3    H128237   5.575   6.181   5.372  0.9198  1.0396  0.4187
 2274TIP3    H228238   5.488   6.287   5.436 -1.3480 -1.2519  1.2167
 2275TIP3   OH228239   6.717   0.924  16.410 -0.7565  0.3737 -0.0420
 2275TIP3    H128240   6.735   0.867  16.336  0.6585  0.3064  0.3320
 2275TIP3    H228241   6.733   1.012  16.376 -1.5519  0.4575 -0.2185
 2276TIP3   OH228242   6.742   3.690  15.441 -0.3720 -0.5736 -0.6194
 2276TIP3    H128243   6.798   3.613  15.449  1.1867  0.5354 -0.4527
 2276TIP3    H228244   6.800   3.757  15.404 -0.6374  1.5526  2.5399
 2277TIP3   OH228245   5.995   6.668   0.897  0.3675 -0.1932  0.6766
 2277TIP3    H128246   5.992   6.614   0.976  0.0967 -1.4512 -0.1942
 2277TIP3    H228247   6.087   6.669   0.872  0.0301 -2.4088 -0.7734
 2278TIP3   OH228248   1.419   3.155  11.813  0.1552  0.0398 -0.3041
 2278TIP3    H128249   1.386   3.178  11.899  1.1341 -0.0565  0.1084
 2278TIP3    H228250   1.397   3.062  11.802 -3.3212  0.9870 -1.7501
 2279TIP3   OH228251   2.654   6.455  13.974  0.7766  0.3768  0.0932
 2279TIP3    H128252   2.695   6.382  14.021  2.6503  0.6739 -1.0463
 2279TIP3    H228253   2.714   6.474  13.902 -0.3082  2.2493 -0.3446
 2280TIP3   OH228254   3.624   2.526   5.844  0.0346  0.4794  0.5153
 2280TIP3    H128255   3.708   2.562   5.816 -0.2627  0.1493 -0.8471
 2280TIP3    H228256   3.632   2.516   5.938  2.2153 -1.2813  0.1672
 2281TIP3   OH228257   1.897   1.650  15.604  0.4716  0.3046  0.3490
 2281TIP3    H128258   1.935   1.715  15.545 -0.1806  1.0980  0.7957
 2281TIP3    H228259   1.911   1.566  15.560 -0.1240  0.8948 -0.9966
 2282TIP3   OH228260   6.078   2.699  12.723  0.0370  0.2794 -0.0993
 2282TIP3    H128261   6.158   2.704  12.670  0.2866 -0.9527  0.1377
 2282TIP3    H228262   6.032   2.622  12.690 -0.3721  0.1729  0.6946
 2283TIP3   OH228263   5.328   1.542   4.944  0.4832  0.1347  0.9297
 2283TIP3    H128264   5.345   1.451   4.970  2.1641  0.4565  0.9984
 2283TIP3    H228265   5.392   1.559   4.875 -0.8960  0.7678 -0.2085
 2284TIP3   OH228266   4.953   1.544  13.746  0.3141 -0.1333  0.0243
 2284TIP3    H128267   4.917   1.587  13.823  0.0543 -1.1930  0.4995
 2284TIP3    H228268   4.962   1.614  13.681  0.3085  0.7159  0.9293
 2285TIP3   OH228269   1.164   2.180   3.555 -0.2993  0.9247 -0.0188
 2285TIP3    H128270   1.071   2.165   3.538 -0.3901  0.5628  0.7615
 2285TIP3    H228271   1.166   2.221   3.641  0.3102  0.1643  0.3365
 2286TIP3   OH228272   4.595   4.524   2.978 -0.3489  0.2898  0.2062
 2286TIP3    H128273   4.621   4.532   3.069  0.3977 -0.0145  0.0180
 2286TIP3    H228274   4.519   4.466   2.980 -0.0945 -0.0315  0.5913
 2287TIP3   OH228275   0.062   2.266  14.094 -0.3311  0.2437 -0.2473
 2287TIP3    H128276   0.106   2.350  14.086 -0.1350  0.3007  1.3626
 2287TIP3    H228277   0.013   2.257  14.012  0.0132  1.7032 -0.6249
 2288TIP3   OH228278   6.004   1.180  16.020 -0.0400  0.3526 -0.1893
 2288TIP3    H128279   5.968   1.102  15.978  0.7005 -0.9820  1.5913
 2288TIP3    H228280   6.002   1.247  15.952  0.3382 -1.5196 -2.0811
 2289TIP3   OH228281   3.091   3.698  16.690  0.8241  0.0830 -0.0501
 2289TIP3    H128282   3.140   3.687  16.609  0.4991 -1.2363 -0.0791
 2289TIP3    H228283   3.040   3.617  16.698  0.3557  0.4873  1.1273
 2290TIP3   OH228284   4.605   2.531   1.772 -0.2993  0.6870  0.8417
 2290TIP3    H128285   4.623   2.509   1.680 -0.4098  0.4857  0.8674
 2290TIP3    H228286   4.629   2.623   1.780 -1.2934  0.9958  0.3419
 2291TIP3   OH228287   2.005   3.112  16.898  0.1174 -0.5578  0.1468
 2291TIP3    H128288   2.047   3.170  16.835  1.8202 -0.1473  1.6019
 2291TIP3    H228289   1.978   3.170  16.970 -1.9556 -0.9902 -0.2425
 2292TIP3   OH228290   5.825   0.149   4.921  0.1423 -0.0518 -0.0698
 2292TIP3    H128291   5.919   0.164   4.922  0.4901 -2.0864 -0.0614
 2292TIP3    H228292   5.797   0.162   5.011  0.4628  0.2455 -0.0126
 2293TIP3   OH228293   3.204   0.443  15.132 -0.5878  0.1289  0.3983
 2293TIP3    H128294   3.282   0.407  15.174 -1.7067 -0.2815  2.1565
 2293TIP3    H228295   3.203   0.402  15.045  0.4894 -0.7975  0.8099
 2294TIP3   OH228296   6.318   3.934   4.415  0.3954  0.1480  0.2973
 2294TIP3    H128297   6.325   3.840   4.396 -0.0210  0.1369  0.1925
 2294TIP3    H228298   6.246   3.964   4.360 -1.0649  0.0425  2.1069
 2295TIP3   OH228299   0.212   5.323   6.305  0.2787 -0.4040 -0.0305
 2295TIP3    H128300   0.287   5.300   6.360 -1.5342 -0.2867  2.5931
 2295TIP3    H228301   0.192   5.243   6.257  0.9789 -0.9567  0.5840
 2296TIP3   OH228302   3.268   1.690  12.467 -0.7394 -0.2853 -0.5145
 2296TIP3    H128303   3.204   1.708  12.398 -0.1320  1.3158 -0.6705
 2296TIP3    H228304   3.268   1.769  12.520 -1.0417 -1.4211  1.2190
 2297TIP3   OH228305   6.699   4.689  15.489 -0.1927 -0.0900 -0.1618
 2297TIP3    H128306   6.768   4.670  15.552 -1.1970 -1.4730  0.5401
 2297TIP3    H228307   6.743   4.688  15.404  0.2948 -3.1084  0.0633
 2298TIP3   OH228308   0.505   3.810  15.392 -0.4166 -0.4868 -0.2271
 2298TIP3    H128309   0.534   3.807  15.483 -0.5156  2.9252 -0.0007
 2298TIP3    H228310   0.409   3.808  15.398 -0.4629  1.0872 -0.1214
 2299TIP3   OH228311   1.711   0.041   3.814 -0.1696 -0.1377  0.0126
 2299TIP3    H128312   1.706  -0.015   3.892 -1.3876 -0.9147 -0.5933
 2299TIP3    H228313   1.746  -0.017   3.746  1.8355  0.8116  0.2086
 2300TIP3   OH228314   6.253   5.643  16.582  0.5237 -0.3393  0.6848
 2300TIP3    H128315   6.247   5.702  16.507  0.5827 -0.9953  0.1619
 2300TIP3    H228316   6.346   5.633  16.598  0.4903  1.3200  2.0575
 2301TIP3   OH228317   6.376   5.483   3.713 -0.5228  0.3287 -0.7706
 2301TIP3    H128318   6.339   5.397   3.694 -0.0788  0.3383 -1.7546
 2301TIP3    H228319   6.470   5.466   3.724 -0.5722  0.5484 -0.0172
 2302TIP3   OH228320   2.624   5.654  13.938  0.0311 -0.0324  0.2539
 2302TIP3    H128321   2.652   5.744  13.955 -0.0202 -0.1100  0.7482
 2302TIP3    H228322   2.621   5.647  13.842  0.5507  0.3321  0.2087
 2303TIP3   OH228323   2.905   1.157   3.205  0.0723  0.0825 -0.0729
 2303TIP3    H128324   2.968   1.183   3.272 -0.2431  0.8937 -0.0854
 2303TIP3    H228325   2.821   1.191   3.237 -0.3101 -0.7503 -0.1895
 2304TIP3   OH228326   3.957   3.426  15.855  0.0256  0.3127 -0.3573
 2304TIP3    H128327   3.899   3.405  15.783 -0.0740 -1.5469  0.2553
 2304TIP3    H228328   4.027   3.478  15.815 -0.6897  0.3723 -1.5451
 2305TIP3   OH228329   1.955   2.066  16.166 -0.3810 -0.3767  0.0472
 2305TIP3    H128330   1.885   2.115  16.209  0.7732 -1.0890  2.8589
 2305TIP3    H228331   1.911   2.012  16.101 -2.1201  1.3135 -0.2283
 2306TIP3   OH228332   1.671   0.390   5.570 -0.1170  0.1927 -0.0623
 2306TIP3    H128333   1.604   0.454   5.595  3.4726  3.9976  0.2879
 2306TIP3    H228334   1.700   0.418   5.483  1.0688 -1.4036 -0.2051
 2307TIP3   OH228335   3.335   0.599   1.864 -0.2350 -0.3394  0.0203
 2307TIP3    H128336   3.416   0.649   1.851 -0.3509  0.1249  1.0361
 2307TIP3    H228337   3.348   0.519   1.813  0.2074  0.4489 -1.1176
 2308TIP3   OH228338   1.621   4.957   3.933  0.0412 -0.0768  0.4143
 2308TIP3    H128339   1.573   5.040   3.930 -0.6190 -0.4775 -0.5126
 2308TIP3    H228340   1.559   4.892   3.900  1.3250 -0.5524 -1.1659
 2309TIP3   OH228341   4.613   5.465   5.366  0.1237 -0.1650  0.8444
 2309TIP3    H128342   4.698   5.471   5.324 -0.3150  2.5689  0.2527
 2309TIP3    H228343   4.624   5.508   5.450 -0.5944 -0.0632  0.8939
 2310TIP3   OH228344   0.844   2.618  13.770 -0.5238 -0.0316  0.0583
 2310TIP3    H128345   0.914   2.553  13.756  0.0854  0.9578 -1.5824
 2310TIP3    H228346   0.787   2.609  13.693 -0.6326  1.1235 -0.0027
 2311TIP3   OH228347   1.171   0.267   4.393  0.3022 -0.0985  0.6484
 2311TIP3    H128348   1.237   0.235   4.455 -1.7924 -2.3128  1.7864
 2311TIP3    H228349   1.136   0.188   4.352 -2.3767  0.9780  0.7969
 2312TIP3   OH228350   0.225   5.330   3.895 -0.4584  0.7099 -0.1844
 2312TIP3    H128351   0.159   5.338   3.964 -2.3502 -0.6663 -1.7918
 2312TIP3    H228352   0.249   5.238   3.895  2.4660  1.4220  1.2422
 2313TIP3   OH228353   3.307   4.110  13.273  0.6326 -0.4885  0.0093
 2313TIP3    H128354   3.363   4.032  13.280  0.5110 -0.5657  0.1401
 2313TIP3    H228355   3.250   4.105  13.350  0.0153 -0.7494 -0.4539
 2314TIP3   OH228356   0.777   4.842  15.700 -0.4784 -0.5072  0.4191
 2314TIP3    H128357   0.740   4.856  15.787 -2.6754 -2.7274 -0.0979
 2314TIP3    H228358   0.849   4.781  15.714  1.1866  1.5611  1.0557
 2315TIP3   OH228359   3.072   4.784  10.930 -0.2591 -0.6672 -0.4065
 2315TIP3    H128360   3.005   4.775  10.997  0.2004  0.0036  0.1582
 2315TIP3    H228361   3.109   4.871  10.945 -0.4148 -0.3555 -1.7776
 2316TIP3   OH228362   1.555   1.097   5.523 -0.5199  0.1760 -0.3759
 2316TIP3    H128363   1.601   1.180   5.533  1.4047 -0.9411  0.4862
 2316TIP3    H228364   1.474   1.108   5.573 -0.8260  1.8997 -1.2154
 2317TIP3   OH228365   0.350   6.372  12.675 -0.2986 -0.4529  0.4442
 2317TIP3    H128366   0.359   6.282  12.643  0.7056 -0.4014  0.5475
 2317TIP3    H228367   0.440   6.399  12.695 -0.5719  0.6494  0.2093
 2318TIP3   OH228368   1.697   6.691   0.210 -0.3462 -0.2508 -0.4016
 2318TIP3    H128369   1.704   6.615   0.152 -0.7354 -1.3961  1.0196
 2318TIP3    H228370   1.638   6.751   0.164 -0.4520 -1.0417 -1.3073
 2319TIP3   OH228371   3.605   5.221  12.921  0.1213 -0.5286 -0.1929
 2319TIP3    H128372   3.539   5.210  12.851  0.1336 -0.1569 -0.2654
 2319TIP3    H228373   3.635   5.312  12.911 -0.8217 -0.0499  1.1136
 2320TIP3   OH228374   6.009   3.624   3.494  0.0907 -0.6942  0.2387
 2320TIP3    H128375   5.976   3.538   3.468 -2.8225  0.2491  0.6138
 2320TIP3    H228376   5.995   3.628   3.588  0.7762 -0.0421  0.3153
 2321TIP3   OH228377   2.202   6.544   0.030 -0.0581 -0.0998  0.1165
 2321TIP3    H128378   2.256   6.571  -0.044  3.1017  0.3354  2.4438
 2321TIP3    H228379   2.251   6.574   0.107 -1.3310 -3.8230  2.5132
 2322TIP3   OH228380   4.075   2.005  15.203 -0.3524 -0.0731  0.0691
 2322TIP3    H128381   4.093   1.944  15.131 -2.2576  0.6757 -1.0548
 2322TIP3    H228382   4.053   2.088  15.160 -0.1887  0.7575  1.5446
 2323TIP3   OH228383   1.458   1.183  14.601  0.3252  0.7016 -0.6456
 2323TIP3    H128384   1.387   1.125  14.627  1.3663 -0.9664 -1.4175
 2323TIP3    H228385   1.456   1.254  14.665 -0.0875 -0.9266  1.2039
 2324TIP3   OH228386   6.361   6.713  16.990 -0.0357 -0.2153  0.4556
 2324TIP3    H128387   6.279   6.755  16.964 -0.5636 -0.7537  1.2409
 2324TIP3    H228388   6.335   6.644  17.051  1.1117  0.3850  1.6279
 2325TIP3   OH228389   5.320   3.059  14.592  0.4522 -0.0697  0.1657
 2325TIP3    H128390   5.377   3.004  14.539  0.0339 -0.9283  0.5971
 2325TIP3    H228391   5.245   3.078  14.536  1.9160  2.4488 -0.9979
 2326TIP3   OH228392   0.058   6.509  15.862  0.0746  0.2803  0.5876
 2326TIP3    H128393   0.112   6.433  15.887 -3.3296 -1.9108  1.6756
 2326TIP3    H228394   0.004   6.526  15.939 -3.2208  0.1125 -1.5778
 2327TIP3   OH228395   1.123   1.609  14.200 -0.7283 -0.0308 -0.5970
 2327TIP3    H128396   1.213   1.579  14.193 -0.5378 -0.3131  2.2361
 2327TIP3    H228397   1.123   1.665  14.278 -2.7470  0.8991 -1.2432
 2328TIP3   OH228398   5.103   1.354   0.789 -0.1918  0.2437 -0.1495
 2328TIP3    H128399   5.008   1.352   0.801 -0.2255  1.1758 -0.2397
 2328TIP3    H228400   5.138   1.367   0.878 -0.1287 -0.3353 -0.0826
 2329TIP3   OH228401   4.934   5.957   1.145  0.9177  0.0826 -0.0018
 2329TIP3    H128402   4.927   5.871   1.187  0.8378 -0.4322 -1.0631
 2329TIP3    H228403   5.028   5.968   1.130  0.8566 -0.1556 -0.5610
 2330TIP3   OH228404   1.496   2.822  12.904  0.0000  0.0800  0.8184
 2330TIP3    H128405   1.587   2.848  12.891  0.3171 -1.9559 -1.2708
 2330TIP3    H228406   1.493   2.788  12.994  1.0041  1.2635  1.3117
 2331TIP3   OH228407   3.401   2.498   2.822 -0.6539 -0.0104 -0.3264
 2331TIP3    H128408   3.400   2.416   2.871  0.4150 -0.5557 -1.1760
 2331TIP3    H228409   3.467   2.552   2.865  0.4350 -0.5687 -1.2464
 2332TIP3   OH228410   1.203   4.753  10.968 -0.0127 -0.2188  0.5637
 2332TIP3    H128411   1.188   4.670  10.922  0.4493 -0.6930  1.2613
 2332TIP3    H228412   1.293   4.777  10.945 -0.1254  0.0685  0.4105
 2333TIP3   OH228413   0.983   6.704  11.720  0.2401  0.0787  0.2610
 2333TIP3    H128414   1.004   6.703  11.627  0.7295  2.1459  0.3093
 2333TIP3    H228415   1.052   6.653  11.761  0.1653 -0.6290 -0.4724
 2334TIP3   OH228416   5.868   0.854   3.209 -0.0980  0.1205  0.9279
 2334TIP3    H128417   5.876   0.947   3.229  2.8879  0.1973 -0.3447
 2334TIP3    H228418   5.930   0.811   3.269  0.9861 -0.6778 -0.7117
 2335TIP3   OH228419   6.417   0.710   4.842 -0.0151 -0.2680 -0.1547
 2335TIP3    H128420   6.333   0.716   4.887  1.7207 -1.3096  3.4055
 2335TIP3    H228421   6.412   0.628   4.793 -0.9378 -0.5027  0.3099
 2336TIP3   OH228422   0.161   4.683  15.986 -0.3257  0.2805 -0.0891
 2336TIP3    H128423   0.225   4.675  15.915 -1.1433  0.3675 -0.8534
 2336TIP3    H228424   0.155   4.594  16.022 -0.8653 -0.0680 -0.9977
 2337TIP3   OH228425   3.478   4.812  12.009 -0.1078 -0.4046 -0.6939
 2337TIP3    H128426   3.417   4.747  12.045 -1.1152  1.6886  1.5506
 2337TIP3    H228427   3.442   4.833  11.923 -2.3065  0.3731  0.3604
 2338TIP3   OH228428   5.016   1.422   2.044 -0.1476 -0.0805 -0.7157
 2338TIP3    H128429   4.941   1.397   2.098 -1.0860 -0.0636 -1.9803
 2338TIP3    H228430   5.002   1.377   1.961  0.4104  1.1971 -1.5205
 2339TIP3   OH228431   4.033   5.154   1.733  0.2621  0.0536  0.0755
 2339TIP3    H128432   3.948   5.180   1.698  1.4945  2.2837 -1.3710
 2339TIP3    H228433   4.018   5.140   1.826 -1.6684  0.5101 -0.1611
 2340TIP3   OH228434   6.001   6.149  16.367  0.0934  0.1491  0.6355
 2340TIP3    H128435   5.983   6.241  16.349  1.4123  0.3670  0.3923
 2340TIP3    H228436   5.987   6.105  16.283  1.1001  0.3884  0.3297
 2341TIP3   OH228437   2.361   5.247   4.056 -0.0260 -0.2810 -0.3923
 2341TIP3    H128438   2.310   5.266   3.978  0.7084 -0.8577 -1.0130
 2341TIP3    H228439   2.428   5.316   4.059 -0.4357  0.1044  0.0754
 2342TIP3   OH228440   5.078   4.041   5.940 -0.0432 -0.4434  0.3947
 2342TIP3    H128441   5.154   4.049   5.882 -0.0031  1.2794  0.6577
 2342TIP3    H228442   5.043   3.954   5.921  2.0992 -1.3386  0.4126
 2343TIP3   OH228443   4.595   4.782   1.487 -0.1711 -0.3959 -0.1262
 2343TIP3    H128444   4.543   4.842   1.539  1.0173  1.6543 -1.2340
 2343TIP3    H228445   4.684   4.793   1.518 -0.0863 -2.4997  0.4765
 2344TIP3   OH228446   4.804   2.680  14.933  0.1119 -0.2989 -0.1555
 2344TIP3    H128447   4.798   2.765  14.891 -0.8420 -0.4116 -0.2557
 2344TIP3    H228448   4.794   2.698  15.026  0.7666 -0.2117 -0.0981
 2345TIP3   OH228449   6.344   3.593  12.245  0.0175  0.3151 -0.0004
 2345TIP3    H128450   6.268   3.646  12.220 -0.2296 -0.1590 -0.2753
 2345TIP3    H228451   6.409   3.609  12.176  0.2733  0.9367  0.3839
 2346TIP3   OH228452   4.286   6.238   0.745  0.5122  0.0642 -0.5966
 2346TIP3    H128453   4.251   6.315   0.701  0.3324  0.5100  0.3317
 2346TIP3    H228454   4.381   6.250   0.743  0.4162  1.3966  1.4874
 2347TIP3   OH228455   6.050   5.983  10.072 -0.2141 -0.6394  0.0061
 2347TIP3    H128456   6.005   6.060  10.105 -1.5034 -1.5175  0.3217
 2347TIP3    H228457   6.126   5.974  10.130  0.5845  1.0466 -0.7556
 2348TIP3   OH228458   1.747   4.408  14.594  0.1701 -0.4508 -0.3148
 2348TIP3    H128459   1.761   4.471  14.523 -0.9224  0.7643  0.5201
 2348TIP3    H228460   1.763   4.458  14.674 -1.6245 -0.9753  0.3863
 2349TIP3   OH228461   3.909   2.574   3.107  0.3373 -0.0953  0.0907
 2349TIP3    H128462   3.828   2.624   3.094  0.5689  0.2025 -0.2400
 2349TIP3    H228463   3.887   2.486   3.079 -0.0869 -0.1855  0.7122
 2350TIP3   OH228464   1.604   0.980   0.462  0.5464  0.1456 -0.1895
 2350TIP3    H128465   1.694   0.961   0.436  0.8555 -0.2591  1.1281
 2350TIP3    H228466   1.584   0.915   0.529 -0.2910  1.0170  0.4238
 2351TIP3   OH228467   0.365   1.631  16.641 -0.3969  0.0802  0.1222
 2351TIP3    H128468   0.338   1.693  16.709 -0.9321 -1.2568  1.1289
 2351TIP3    H228469   0.457   1.613  16.661  0.8503  3.2024 -2.2273
 2352TIP3   OH228470   0.173   5.947   1.386 -0.3760 -0.0401  0.0123
 2352TIP3    H128471   0.112   5.885   1.347  1.0734 -1.4910 -0.0228
 2352TIP3    H228472   0.259   5.905   1.376  0.2034  0.0813  3.6736
 2353TIP3   OH228473   6.150   5.750   2.337 -0.3088  0.5609  0.1244
 2353TIP3    H128474   6.078   5.782   2.392 -1.1993  0.3973 -0.9240
 2353TIP3    H228475   6.202   5.828   2.319 -0.0087  0.6124  1.2076
 2354TIP3   OH228476   6.416   2.499  12.028 -0.0208 -0.3524 -0.3717
 2354TIP3    H128477   6.504   2.530  12.050  0.5308 -2.1366 -0.0165
 2354TIP3    H228478   6.402   2.529  11.938  0.9593 -0.0794 -0.4418
 2355TIP3   OH228479   1.877   3.505   2.298 -0.0564  0.5319  0.3316
 2355TIP3    H128480   1.929   3.582   2.277  0.6642 -0.3346 -1.1622
 2355TIP3    H228481   1.835   3.482   2.215  2.5100 -2.7650 -0.1359
 2356TIP3   OH228482   4.803   4.362  16.917 -0.0458 -0.1264  0.2022
 2356TIP3    H128483   4.831   4.319  16.998 -0.7614 -0.2183  0.3998
 2356TIP3    H228484   4.709   4.345  16.911 -0.1627  0.6304 -0.1974
 2357TIP3   OH228485   1.320   1.256  15.556 -0.3492 -0.5639  0.4303
 2357TIP3    H128486   1.386   1.302  15.608 -0.4696  0.2105 -0.0849
 2357TIP3    H228487   1.259   1.221  15.620 -1.0903  1.2913  0.7804
 2358TIP3   OH228488   1.560   0.801   3.981  0.5380 -0.4002  0.0283
 2358TIP3    H128489   1.530   0.797   4.071 -1.4013 -0.5620 -0.5973
 2358TIP3    H228490   1.635   0.740   3.977  1.0869  0.1544  1.6647
 2359TIP3   OH228491   2.504   0.816  10.796 -0.4349  0.3280 -1.0135
 2359TIP3    H128492   2.557   0.830  10.717  1.0750 -0.1348 -0.0995
 2359TIP3    H228493   2.516   0.724  10.817  3.5056  1.5649  2.7737
 2360TIP3   OH228494   6.488   0.735  15.166 -0.0335 -0.8586  0.5943
 2360TIP3    H128495   6.539   0.676  15.222  0.5102 -0.4610  0.5188
 2360TIP3    H228496   6.541   0.814  15.160  0.1071 -1.0465 -0.8211
 2361TIP3   OH228497   2.813   4.884  11.012  0.0019  0.5209  0.6073
 2361TIP3    H128498   2.800   4.935  10.932  1.3701 -1.7730 -1.1187
 2361TIP3    H228499   2.744   4.818  11.010  1.1324 -0.6685  0.3856
 2362TIP3   OH228500   0.639   2.702   5.261 -0.7364 -0.4714  0.8360
 2362TIP3    H128501   0.734   2.687   5.254 -0.3442  0.6361  3.4441
 2362TIP3    H228502   0.623   2.777   5.204  0.2549  0.4424  1.7473
 2363TIP3   OH228503   6.277   5.761   5.800 -0.6774  0.2036 -0.5874
 2363TIP3    H128504   6.230   5.803   5.872 -0.3606  0.5201 -0.5641
 2363TIP3    H228505   6.359   5.732   5.839 -0.4156  0.5665 -0.8788
 2364TIP3   OH228506   4.701   5.587  14.261 -0.1616 -0.2217 -0.2110
 2364TIP3    H128507   4.652   5.667  14.279  3.0921  1.3842  2.1356
 2364TIP3    H228508   4.692   5.536  14.342  3.0939  0.7763  0.8721
 2365TIP3   OH228509   5.948   1.710  10.693  0.5172 -0.1802 -0.1240
 2365TIP3    H128510   5.950   1.621  10.657 -0.1337 -0.8944  1.5628
 2365TIP3    H228511   5.903   1.762  10.626 -0.3948 -1.4278 -0.4981
 2366TIP3   OH228512   4.780   3.971  16.761  0.0368  0.0318 -0.0715
 2366TIP3    H128513   4.777   3.991  16.667 -0.8580 -1.9517 -0.4831
 2366TIP3    H228514   4.870   3.990  16.786 -0.0825  1.9404 -1.0115
 2367TIP3   OH228515   0.905   3.978   1.820 -0.1702 -0.2852 -0.1693
 2367TIP3    H128516   0.863   3.960   1.904  1.2974 -2.6768  0.1371
 2367TIP3    H228517   0.962   4.053   1.837  0.3628 -0.9540  1.0948
 2368TIP3   OH228518   5.507   0.084  11.321 -0.2024 -0.0887  0.2528
 2368TIP3    H128519   5.570   0.125  11.262  1.3945 -1.9210  0.6122
 2368TIP3    H228520   5.450   0.033  11.264  1.9492 -2.6634  0.2471
 2369TIP3   OH228521   6.282   5.463  16.271  0.2639  0.2919  0.2689
 2369TIP3    H128522   6.334   5.391  16.309 -0.6173 -0.9274 -0.7860
 2369TIP3    H228523   6.195   5.425  16.260 -0.2194  1.5590 -0.2733
 2370TIP3   OH228524   3.647   5.753  13.485  0.4310  0.7332 -0.3913
 2370TIP3    H128525   3.729   5.742  13.532  0.7356  1.1950 -0.8139
 2370TIP3    H228526   3.672   5.778  13.397 -0.1069 -1.4554 -1.2059
 2371TIP3   OH228527   5.367   3.849  13.929 -0.1117  0.0098 -0.1530
 2371TIP3    H128528   5.420   3.814  13.857  1.9246  0.1469  1.2366
 2371TIP3    H228529   5.318   3.774  13.962 -0.6714 -0.1603 -1.3388
 2372TIP3   OH228530   5.993   4.616   0.589 -0.1833 -0.3834 -0.2363
 2372TIP3    H128531   5.899   4.620   0.604 -0.3504 -0.4714 -1.2659
 2372TIP3    H228532   6.024   4.546   0.647 -1.0770 -1.8624 -1.5154
 2373TIP3   OH228533   1.319   5.397  14.863 -0.1011  0.1955  0.3358
 2373TIP3    H128534   1.311   5.492  14.853 -0.1305  0.3022  1.3576
 2373TIP3    H228535   1.232   5.363  14.839 -0.0780  0.4133 -0.0726
 2374TIP3   OH228536   5.828   3.007  13.431  0.3913 -0.0049  0.6472
 2374TIP3    H128537   5.822   2.987  13.524  1.0986 -0.6014  0.5673
 2374TIP3    H228538   5.764   2.950  13.390 -1.0975  1.4173  0.9198
 2375TIP3   OH228539   6.084   6.171   6.084  0.7840  0.3166 -0.2673
 2375TIP3    H128540   5.994   6.143   6.070  0.6905  0.2938  0.3375
 2375TIP3    H228541   6.116   6.114   6.155  1.5823 -0.3285 -1.1324
 2376TIP3   OH228542   5.910   2.158   5.429  0.2940  0.0628  0.6079
 2376TIP3    H128543   5.905   2.253   5.419  1.8262  0.0111 -0.8188
 2376TIP3    H228544   5.837   2.136   5.487 -0.4144  2.0372  0.4893
 2377TIP3   OH228545   0.221   0.235  13.271  0.1183  0.4698 -0.1940
 2377TIP3    H128546   0.266   0.152  13.260 -1.9687 -0.5559 -1.2151
 2377TIP3    H228547   0.156   0.219  13.339  0.5695  1.6504  0.5414
 2378TIP3   OH228548   0.714   3.010  15.783 -0.1532  0.0035  0.4835
 2378TIP3    H128549   0.700   3.093  15.828  0.3539  0.4756 -0.2194
 2378TIP3    H228550   0.633   2.961  15.794 -0.5567  0.7223  0.6380
 2379TIP3   OH228551   0.949   0.102   1.211  0.3227 -0.3297 -0.5540
 2379TIP3    H128552   0.895   0.061   1.143  0.0795 -0.7469 -0.1123
 2379TIP3    H228553   1.033   0.057   1.203 -0.0341 -1.1321  0.1249
 2380TIP3   OH228554   6.426   3.287   4.015  0.0697 -0.3158 -0.0030
 2380TIP3    H128555   6.448   3.335   4.095  0.2447  0.8071 -0.7153
 2380TIP3    H228556   6.364   3.220   4.044 -2.2362  1.9915  0.5857
 2381TIP3   OH228557   3.198   2.942   5.421  0.0770  0.3607  0.6611
 2381TIP3    H128558   3.270   2.884   5.447  1.1436  2.3548  2.2691
 2381TIP3    H228559   3.240   3.026   5.403 -1.9377  1.8483  2.6072
 2382TIP3   OH228560   4.851   5.402   1.187 -0.4785  0.1342 -0.0398
 2382TIP3    H128561   4.877   5.310   1.196 -0.6475  0.1888  1.0524
 2382TIP3    H228562   4.756   5.400   1.195 -0.3664  0.5722  1.5018
 2383TIP3   OH228563   0.583   2.725  13.472 -0.6252 -0.0969 -0.1032
 2383TIP3    H128564   0.637   2.781  13.528  1.5793 -2.1512 -0.0807
 2383TIP3    H228565   0.528   2.786  13.422 -0.3489  1.9170  1.9621
 2384TIP3   OH228566   2.732   4.675   2.929 -0.0838 -0.1477  0.5316
 2384TIP3    H128567   2.717   4.658   3.022  0.0113  1.1907  0.8007
 2384TIP3    H228568   2.783   4.757   2.927  0.0341 -0.2365 -0.6895
 2385TIP3   OH228569   4.080   5.940  15.850  0.6672 -0.0913  0.4709
 2385TIP3    H128570   4.032   5.999  15.908 -0.5292  1.0047 -1.5819
 2385TIP3    H228571   4.145   5.996  15.808 -0.0403 -0.3537 -1.0030
 2386TIP3   OH228572   4.800   2.237   3.732 -0.1557 -0.0625 -0.2157
 2386TIP3    H128573   4.799   2.279   3.818  0.4041  1.8097 -1.0976
 2386TIP3    H228574   4.715   2.192   3.726 -0.4857  0.3840  1.0280
 2387TIP3   OH228575   0.788   1.059   2.680 -0.1897  0.2568  0.0315
 2387TIP3    H128576   0.785   1.090   2.589  0.1789  0.6025  0.1325
 2387TIP3    H228577   0.696   1.053   2.706 -0.3478 -1.2245 -0.8150
 2388TIP3   OH228578   5.892   1.887  17.048 -0.2848  0.4216 -0.0699
 2388TIP3    H128579   5.877   1.848  16.962 -0.3035 -0.1269  0.1793
 2388TIP3    H228580   5.896   1.981  17.032 -1.2462  0.3853 -0.5279
 2389TIP3   OH228581   3.070   6.363   6.622 -0.2230  0.3431 -0.3431
 2389TIP3    H128582   3.007   6.386   6.690 -0.0390 -2.1602  0.7038
 2389TIP3    H228583   3.155   6.385   6.658  0.0857 -3.1890  1.2749
 2390TIP3   OH228584   2.405   5.984   5.817 -0.0796  0.1338  1.1409
 2390TIP3    H128585   2.485   5.944   5.850 -0.3090  0.9407  2.6934
 2390TIP3    H228586   2.434   6.038   5.743  0.6502 -0.4976  0.9678
 2391TIP3   OH228587   1.079   4.715   5.734 -0.3127  0.0141  0.0748
 2391TIP3    H128588   1.127   4.703   5.652  0.4626 -0.0896  0.5395
 2391TIP3    H228589   1.106   4.641   5.789 -0.8460  0.0719  0.4248
 2392TIP3   OH228590   3.622   4.934  13.500  0.2827 -0.9320 -0.1645
 2392TIP3    H128591   3.711   4.970  13.493 -0.0062 -0.1416  0.1900
 2392TIP3    H228592   3.621   4.889  13.585 -0.1289  0.3953  0.5465
 2393TIP3   OH228593   5.881   4.740  16.200  0.1310 -0.3023 -0.0042
 2393TIP3    H128594   5.951   4.688  16.240 -0.1653 -1.5632 -1.1015
 2393TIP3    H228595   5.830   4.773  16.274  2.0348  0.8855  0.8401
 2394TIP3   OH228596   6.467   3.506  16.104 -0.2146 -0.1667  0.5906
 2394TIP3    H128597   6.443   3.568  16.035 -1.4882 -2.2025 -0.8583
 2394TIP3    H228598   6.426   3.540  16.183 -1.5704  0.4070 -0.3438
 2395TIP3   OH228599   4.520   5.924   0.133  0.0710 -0.2150 -0.1502
 2395TIP3    H128600   4.447   5.943   0.074  0.2705 -1.1408 -0.6989
 2395TIP3    H228601   4.507   5.833   0.160  1.2863 -0.5404 -0.6258
 2396TIP3   OH228602   1.779   6.305   4.981 -0.4814 -0.2527  0.6567
 2396TIP3    H128603   1.727   6.304   5.062  0.4673 -0.7111  1.2669
 2396TIP3    H228604   1.860   6.261   5.004  0.5043  1.1333 -0.0837
 2397TIP3   OH228605   3.112   2.533  11.796  0.2850  0.5354 -0.3496
 2397TIP3    H128606   3.053   2.609  11.791  0.8215  0.9090 -1.1886
 2397TIP3    H228607   3.200   2.570  11.783  0.4778 -0.3312 -1.5706
 2398TIP3   OH228608   3.138   2.659  16.585 -0.6323 -0.2355 -0.0892
 2398TIP3    H128609   3.165   2.621  16.501 -2.4562 -1.5234 -0.1370
 2398TIP3    H228610   3.140   2.753  16.571 -0.8192 -0.4429 -1.5702
 2399TIP3   OH228611   2.634   3.688   3.681  0.4625  0.2170 -0.2958
 2399TIP3    H128612   2.601   3.648   3.762  1.5091 -0.5155 -0.2077
 2399TIP3    H228613   2.725   3.711   3.702 -0.0715  2.4772 -0.4182
 2400TIP3   OH228614   4.782   0.950  11.148 -0.0221  0.0319  0.1285
 2400TIP3    H128615   4.755   0.892  11.219 -1.4743  0.4713 -0.0481
 2400TIP3    H228616   4.747   0.909  11.068 -0.2994  0.6735 -0.0879
 2401TIP3   OH228617   5.480   0.515   0.251  0.2258 -0.5604  0.6267
 2401TIP3    H128618   5.461   0.449   0.317  0.9313  0.5839  2.0208
 2401TIP3    H228619   5.570   0.498   0.225  0.1989 -0.5408  0.5206
 2402TIP3   OH228620   5.626   1.487  11.568 -0.6173 -0.1816 -0.1118
 2402TIP3    H128621   5.670   1.484  11.483 -0.2034 -0.1887  0.0997
 2402TIP3    H228622   5.534   1.504  11.548 -0.4597  0.1533 -0.5424
 2403TIP3   OH228623   0.733   5.304   5.166  0.0241 -0.4052 -0.2460
 2403TIP3    H128624   0.697   5.218   5.143 -0.0100 -1.0997  2.2840
 2403TIP3    H228625   0.783   5.288   5.246  1.4518  1.6156 -0.6962
 2404TIP3   OH228626   6.014   5.638  11.808  0.0582  0.2551  0.2404
 2404TIP3    H128627   6.052   5.554  11.836 -2.2876 -1.9598 -2.8752
 2404TIP3    H228628   5.973   5.673  11.887  1.0988 -1.4826  1.6021
 2405TIP3   OH228629   1.096   6.137  12.626  0.1561  0.0806 -0.2763
 2405TIP3    H128630   1.176   6.115  12.578  0.7764 -2.8431  1.9407
 2405TIP3    H228631   1.108   6.229  12.651  3.6159 -0.7242  1.3817
 2406TIP3   OH228632   1.836   3.966   0.324  0.1061 -0.4452 -0.1365
 2406TIP3    H128633   1.747   3.987   0.352 -0.2872 -2.3791  0.1169
 2406TIP3    H228634   1.891   3.987   0.400  0.1838  2.7751 -0.9975
 2407TIP3   OH228635   2.935   3.919  10.980 -0.2250 -0.3822 -0.3372
 2407TIP3    H128636   2.969   4.005  11.004 -1.4650 -0.4934  2.0401
 2407TIP3    H228637   2.868   3.937  10.914 -0.3908  0.4854  0.0579
 2408TIP3   OH228638   3.835   1.398  16.027  0.3285 -0.0073  0.2112
 2408TIP3    H128639   3.786   1.328  16.070 -1.3310  1.9405  1.5574
 2408TIP3    H228640   3.918   1.404  16.076 -0.0359 -0.2075  0.8506
 2409TIP3   OH228641   3.211   1.596   0.216  0.7461 -0.4868 -0.0937
 2409TIP3    H128642   3.168   1.681   0.230 -3.7521 -2.1343 -2.6730
 2409TIP3    H228643   3.228   1.563   0.305  1.1698  2.4355  0.9486
 2410TIP3   OH228644   3.877   2.138   4.066  0.1779  0.7530  0.1199
 2410TIP3    H128645   3.908   2.168   3.981 -1.9816 -2.3610 -1.8984
 2410TIP3    H228646   3.787   2.171   4.072 -0.7853 -1.6771 -0.3027
 2411TIP3   OH228647   1.790   4.564   0.512 -0.2762  0.1452 -0.3540
 2411TIP3    H128648   1.710   4.529   0.471 -0.6526  0.0850  0.4266
 2411TIP3    H228649   1.848   4.584   0.438 -0.8684 -0.1659 -0.9074
 2412TIP3   OH228650   3.114   2.554   3.594  0.2491 -0.5340  0.3271
 2412TIP3    H128651   3.106   2.609   3.672  1.5782 -1.4853  1.1690
 2412TIP3    H228652   3.181   2.490   3.617 -0.8417 -2.1434 -0.8455
 2413TIP3   OH228653   2.025   0.676   3.692  0.0347 -0.1272  0.3717
 2413TIP3    H128654   2.107   0.651   3.735 -0.8074  0.3247  2.2725
 2413TIP3    H228655   2.011   0.767   3.718 -1.3861 -0.3990  0.5503
 2414TIP3   OH228656   1.742   3.132   2.588  0.1288  0.0552  0.2471
 2414TIP3    H128657   1.744   3.212   2.640 -1.1807 -0.6037  1.3475
 2414TIP3    H228658   1.770   3.063   2.648 -2.0989 -0.8195  0.3481
 2415TIP3   OH228659   5.431   5.763  15.206  0.4342 -0.1962  0.1622
 2415TIP3    H128660   5.399   5.787  15.119  1.0766  1.0297  0.2483
 2415TIP3    H228661   5.352   5.757  15.260  0.1812  0.8525 -0.0833
 2416TIP3   OH228662   3.550   5.622   3.712  0.2094  0.1091  0.4960
 2416TIP3    H128663   3.524   5.683   3.780  1.3272 -1.1192  2.0578
 2416TIP3    H228664   3.625   5.664   3.669 -0.2252  0.6864  0.2984
 2417TIP3   OH228665   3.843   1.875   4.402 -0.2436 -0.1966  0.3110
 2417TIP3    H128666   3.904   1.944   4.374 -1.1010  0.6725  0.5886
 2417TIP3    H228667   3.826   1.893   4.494 -1.0660 -0.3329  0.1883
 2418TIP3   OH228668   4.281   0.434   0.376 -0.5721 -0.2495 -0.1029
 2418TIP3    H128669   4.264   0.343   0.401 -0.5624  0.1327  1.3626
 2418TIP3    H228670   4.195   0.477   0.384 -0.8522 -0.3848 -2.0325
 2419TIP3   OH228671   3.747   0.526  11.618  0.1678  0.2688  0.0260
 2419TIP3    H128672   3.810   0.473  11.668  0.1463  1.0474  0.8811
 2419TIP3    H228673   3.737   0.606  11.669 -1.5191  0.1626 -0.0980
 2420TIP3   OH228674   2.738   2.396  11.952  0.0315  0.4014  0.1563
 2420TIP3    H128675   2.707   2.329  11.892 -1.7748  1.0831  0.2896
 2420TIP3    H228676   2.679   2.471  11.938  0.4601  1.0750  1.7408
 2421TIP3   OH228677   2.036   1.452  12.397  0.2539  0.0823  0.0659
 2421TIP3    H128678   2.100   1.498  12.342  0.6339  0.1126  0.5314
 2421TIP3    H228679   1.988   1.522  12.442  2.9131  0.0220  3.1616
 2422TIP3   OH228680   5.678   3.820   0.750  0.2104  0.0011  0.4422
 2422TIP3    H128681   5.688   3.912   0.726 -2.1489 -0.1782 -1.3906
 2422TIP3    H228682   5.699   3.771   0.670 -0.6697 -0.9516  0.7814
 2423TIP3   OH228683   2.062   1.734  11.429 -0.1631 -0.2577  0.5850
 2423TIP3    H128684   2.107   1.667  11.377  1.0452 -0.1536  1.4582
 2423TIP3    H228685   1.972   1.703  11.436  0.4935 -2.0770  1.4106
 2424TIP3   OH228686   1.106   0.981  16.353 -0.8794  0.2824 -0.2467
 2424TIP3    H128687   1.163   1.011  16.423 -2.1327 -0.7729  1.2772
 2424TIP3    H228688   1.018   1.001  16.383 -1.4285  0.1992 -1.7191
 2425TIP3   OH228689   3.339   2.234  15.955 -0.0027 -0.0651 -0.1956
 2425TIP3    H128690   3.323   2.328  15.954 -0.1124 -0.0857 -0.4215
 2425TIP3    H228691   3.415   2.223  16.012 -0.0544  0.1496 -0.0877
 2426TIP3   OH228692   1.006   2.808  13.228 -0.2700 -0.0605 -0.3772
 2426TIP3    H128693   1.069   2.756  13.180  0.3659  0.3113  0.0475
 2426TIP3    H228694   0.935   2.824  13.166  0.0503 -0.4861 -0.8514
 2427TIP3   OH228695   2.418   2.686  16.665 -0.0208 -0.1794  0.0248
 2427TIP3    H128696   2.348   2.727  16.716 -0.7060 -0.8794 -0.3415
 2427TIP3    H228697   2.492   2.681  16.726 -0.3201  0.4743  0.4496
 2428TIP3   OH228698   4.354   3.934   4.130  0.2750  0.0172 -0.4946
 2428TIP3    H128699   4.331   3.949   4.038  1.5896  1.3026 -0.6477
 2428TIP3    H228700   4.339   3.841   4.144 -0.0174 -0.1782 -1.9985
 2429TIP3   OH228701   1.617   1.578   5.533  0.5658 -0.5501 -0.0479
 2429TIP3    H128702   1.621   1.533   5.448 -0.5946 -0.7656  0.0137
 2429TIP3    H228703   1.691   1.540   5.582 -0.4166 -2.4461  0.0236
 2430TIP3   OH228704   6.261   1.573   1.259 -0.6164 -0.2686 -0.2446
 2430TIP3    H128705   6.221   1.627   1.192 -1.2757 -0.8086 -0.2842
 2430TIP3    H228706   6.235   1.484   1.237  0.5605 -0.6187 -0.2461
 2431TIP3   OH228707   3.350   0.598  13.811 -0.5556  0.0167 -0.0849
 2431TIP3    H128708   3.255   0.594  13.811 -0.5281 -0.8361  0.4620
 2431TIP3    H228709   3.370   0.682  13.853 -1.0799  1.5175 -2.7527
 2432TIP3   OH228710   1.431   5.775   3.196  0.0668  0.2280  0.1850
 2432TIP3    H128711   1.407   5.730   3.277 -1.8895  0.8070 -0.0443
 2432TIP3    H228712   1.407   5.713   3.126  1.2632 -0.0587  0.0239
 2433TIP3   OH228713   0.820   2.541   2.528 -0.3173  0.3624 -0.0191
 2433TIP3    H128714   0.784   2.458   2.497  1.1057  0.3236 -1.5877
 2433TIP3    H228715   0.907   2.520   2.560  0.1968  1.3216 -0.7725
 2434TIP3   OH228716   0.088   4.465  11.796  0.5120 -0.0722  0.0912
 2434TIP3    H128717   0.066   4.557  11.786  0.7496  0.0317  0.5477
 2434TIP3    H228718   0.004   4.422  11.812 -0.1522 -0.4827 -3.9592
 2435TIP3   OH228719   4.628   0.672   0.565  0.5966 -0.0299 -0.6717
 2435TIP3    H128720   4.588   0.734   0.504  2.2122 -0.2949 -2.0368
 2435TIP3    H228721   4.559   0.608   0.583 -1.4288  2.7017  1.5897
 2436TIP3   OH228722   6.099   5.495   1.602  0.1041  0.5233  0.1035
 2436TIP3    H128723   6.013   5.484   1.560  1.2363 -1.8853 -1.7676
 2436TIP3    H228724   6.081   5.485   1.695 -1.8260  1.3128 -0.1461
 2437TIP3   OH228725   3.828   4.510  15.079 -0.0322  0.2812 -0.3050
 2437TIP3    H128726   3.869   4.504  14.992  0.4348 -0.7380 -0.0236
 2437TIP3    H228727   3.875   4.445  15.132 -2.3110 -1.2448 -0.0895
 2438TIP3   OH228728   1.831   0.868   2.848 -0.0821  0.1563  0.1168
 2438TIP3    H128729   1.847   0.776   2.866  2.4158  0.6177  0.3991
 2438TIP3    H228730   1.886   0.915   2.911 -0.8104  1.8439 -0.4588
 2439TIP3   OH228731   5.342   2.097   3.904  0.0290  0.5101 -0.1694
 2439TIP3    H128732   5.315   2.071   3.992  0.6453  1.0322  0.1810
 2439TIP3    H228733   5.437   2.112   3.911  0.1133  0.3747 -0.9626
 2440TIP3   OH228734   1.415   1.229  10.878 -0.9116  0.2457  0.7125
 2440TIP3    H128735   1.477   1.179  10.825 -0.2324  2.1960 -0.3869
 2440TIP3    H228736   1.334   1.178  10.875 -0.5464 -0.2429 -1.2792
 2441TIP3   OH228737   3.241   2.429  12.180  1.3515 -0.3309 -0.5464
 2441TIP3    H128738   3.151   2.398  12.176  0.9458  0.5594  1.0278
 2441TIP3    H228739   3.238   2.504  12.240  2.9774  0.2638 -1.1724
 2442TIP3   OH228740   0.301   4.514  12.382  0.6814  0.3476  0.3935
 2442TIP3    H128741   0.207   4.501  12.398  0.4523  1.3379 -0.1293
 2442TIP3    H228742   0.319   4.461  12.304 -0.0697  2.3704 -1.2142
 2443TIP3   OH228743   6.563   5.435   4.311  0.3378  0.4401 -0.2650
 2443TIP3    H128744   6.495   5.376   4.278 -1.2023  1.8937  0.1927
 2443TIP3    H228745   6.600   5.476   4.233  1.0145 -0.7128 -0.5460
 2444TIP3   OH228746   0.263   3.582   5.003  0.3560 -0.1522  0.4587
 2444TIP3    H128747   0.266   3.489   5.026  0.8758 -0.2257  0.1096
 2444TIP3    H228748   0.170   3.604   5.004  0.0705 -1.1511 -1.2955
 2445TIP3   OH228749   1.760   1.776  15.937  0.3050  0.2899  0.1346
 2445TIP3    H128750   1.753   1.695  15.988  2.0325  0.3884  0.5513
 2445TIP3    H228751   1.728   1.751  15.850  2.5261 -1.3553 -0.2548
 2446TIP3   OH228752   4.261   6.509   1.256 -0.2822 -0.1227 -0.1288
 2446TIP3    H128753   4.298   6.597   1.250  0.7957 -0.4803  1.1051
 2446TIP3    H228754   4.333   6.455   1.286 -0.7272 -1.5886 -1.5972
 2447TIP3   OH228755   5.858   5.058   5.404 -0.3761 -0.3338  0.0257
 2447TIP3    H128756   5.800   4.997   5.358  0.4621  0.8775 -2.7480
 2447TIP3    H228757   5.901   5.108   5.334  1.2597  1.3185  2.1333
 2448TIP3   OH228758   5.902   1.144  12.205  0.4542  0.2802 -0.6132
 2448TIP3    H128759   5.960   1.184  12.140  2.0367 -0.2485  0.4500
 2448TIP3    H228760   5.913   1.050  12.191  0.6884  0.1687  0.3204
 2449TIP3   OH228761   0.867   0.550  10.497 -0.0346 -0.5794 -0.3258
 2449TIP3    H128762   0.793   0.549  10.558  1.2498 -0.5933  1.2561
 2449TIP3    H228763   0.826   0.559  10.411 -1.8904 -0.7785  0.5034
 2450TIP3   OH228764   5.325   1.383  14.477 -0.0817  0.6409  0.0932
 2450TIP3    H128765   5.371   1.367  14.394  1.3762  0.0418  1.0010
 2450TIP3    H228766   5.233   1.367  14.456  0.2996  0.1708 -1.3334
 2451TIP3   OH228767   0.957   0.519  14.002 -0.4650 -0.7780  0.1947
 2451TIP3    H128768   1.026   0.477  13.951  0.0336  0.8415 -0.5025
 2451TIP3    H228769   0.877   0.471  13.980  0.2593 -2.0315  0.2529
 2452TIP3   OH228770   5.499   6.051  14.983  0.6222  0.0591 -0.0828
 2452TIP3    H128771   5.521   6.062  15.075 -0.8582  0.4578  0.2442
 2452TIP3    H228772   5.517   5.959  14.965  1.2352  0.0620  0.5217
 2453TIP3   OH228773   1.158   2.273  15.363 -0.1416  0.7383 -0.5370
 2453TIP3    H128774   1.197   2.360  15.367  0.0253  0.7088 -1.4435
 2453TIP3    H228775   1.181   2.240  15.276  0.8974 -0.7287  0.2700
 2454TIP3   OH228776   6.594   4.873  10.640 -0.2721 -0.4587  0.0640
 2454TIP3    H128777   6.556   4.864  10.552 -0.7187 -0.6357  0.2739
 2454TIP3    H228778   6.676   4.824  10.636  0.6693  1.1600 -0.8285
 2455TIP3   OH228779   5.355   0.097  16.817 -0.6532 -0.2994 -0.1955
 2455TIP3    H128780   5.402   0.108  16.735 -1.4911 -0.8291 -0.7562
 2455TIP3    H228781   5.372   0.007  16.843 -1.1860 -0.4262 -0.2900
 2456TIP3   OH228782   4.704   6.331   2.954 -0.2203  0.1179 -0.0480
 2456TIP3    H128783   4.722   6.238   2.969  0.0697  0.2674  0.5591
 2456TIP3    H228784   4.656   6.334   2.871 -0.5275 -0.6015  0.1070
 2457TIP3   OH228785   3.338   4.009   4.224  0.1086  0.2971  0.3279
 2457TIP3    H128786   3.319   3.931   4.276 -1.6046 -0.8089 -1.8375
 2457TIP3    H228787   3.356   3.974   4.136  0.7749  2.2519 -0.3255
 2458TIP3   OH228788   6.012   3.994  14.958  0.3994  0.3098 -0.5949
 2458TIP3    H128789   6.036   4.084  14.937  0.1348  0.7922  1.1144
 2458TIP3    H228790   6.016   3.990  15.053 -0.7235 -1.1838 -0.6027
 2459TIP3   OH228791   6.163   2.358  11.069 -0.2043 -0.0370  0.4893
 2459TIP3    H128792   6.160   2.343  10.974 -1.2421 -0.9100  0.6502
 2459TIP3    H228793   6.094   2.303  11.104  1.8941 -1.7824  2.0337
 2460TIP3   OH228794   0.231   3.919  16.983 -0.4452  0.0210  0.1354
 2460TIP3    H128795   0.180   3.885  16.909 -0.4083  1.3709 -0.5308
 2460TIP3    H228796   0.302   3.968  16.942  0.9147 -1.1277  1.0648
 2461TIP3   OH228797   4.833   1.492  11.405  0.7881 -0.1670 -0.3761
 2461TIP3    H128798   4.787   1.489  11.321 -1.2323  0.1681  0.7144
 2461TIP3    H228799   4.772   1.455  11.468  1.0333  2.5726  1.5291
 2462TIP3   OH228800   2.640   2.711   1.645  0.3438 -0.3326  0.0405
 2462TIP3    H128801   2.695   2.634   1.636  2.2393  1.1250 -1.2846
 2462TIP3    H228802   2.684   2.766   1.709 -0.8443 -0.2228  0.7756
 2463TIP3   OH228803   0.906   6.113  13.555 -0.1434  0.1951  0.0683
 2463TIP3    H128804   0.845   6.158  13.496 -0.0459 -1.7436 -1.5715
 2463TIP3    H228805   0.863   6.116  13.640 -1.6522  0.5192 -0.6709
 2464TIP3   OH228806   1.191   5.144   5.541 -0.7436  0.4581 -0.5793
 2464TIP3    H128807   1.109   5.112   5.577 -0.7743  1.1558 -0.0076
 2464TIP3    H228808   1.255   5.077   5.562 -0.3705  1.7098  2.5144
 2465TIP3   OH228809   2.509   6.465  12.029 -0.1536 -0.3763  0.2379
 2465TIP3    H128810   2.467   6.459  11.943 -1.5176 -0.1881  0.8786
 2465TIP3    H228811   2.575   6.534  12.019 -1.2504  0.6046 -0.2670
 2466TIP3   OH228812   1.571   3.442   1.206 -0.2086  0.2028 -0.1350
 2466TIP3    H128813   1.486   3.479   1.228 -0.7845 -0.0381 -1.8881
 2466TIP3    H228814   1.589   3.379   1.275 -0.8452  1.1833  0.9461
 2467TIP3   OH228815   0.076   2.795   2.236 -0.0709  0.1923 -0.0878
 2467TIP3    H128816   0.170   2.795   2.221  0.0690 -0.3905  0.7660
 2467TIP3    H228817   0.046   2.877   2.196  0.5666 -0.3169 -1.6731
 2468TIP3   OH228818   0.866   4.335  17.134 -0.1641  0.3878 -0.1609
 2468TIP3    H128819   0.836   4.307  17.047 -0.1425 -0.8618  0.2257
 2468TIP3    H228820   0.793   4.386  17.169 -1.4912 -1.8263  0.3855
 2469TIP3   OH228821   0.945   3.595  15.783  0.0011 -0.3182 -0.8481
 2469TIP3    H128822   1.000   3.670  15.763 -1.3959  0.8040 -0.5496
 2469TIP3    H228823   0.933   3.550  15.699  2.0729 -1.0846 -0.7632
 2470TIP3   OH228824   4.510   3.585  15.235 -0.4887 -0.3314  0.3540
 2470TIP3    H128825   4.524   3.671  15.195 -0.6406 -1.2231 -1.6322
 2470TIP3    H228826   4.438   3.599  15.297 -2.7875  0.2346 -2.3595
 2471TIP3   OH228827   0.059   6.718   3.390  0.4313 -0.0530  0.1763
 2471TIP3    H128828   0.125   6.736   3.323 -0.0331 -0.1371 -0.3081
 2471TIP3    H228829   0.073   6.626   3.413 -0.8424 -0.6732 -1.4190
 2472TIP3   OH228830   1.378   1.705   5.098 -0.0638 -0.5978  0.3162
 2472TIP3    H128831   1.387   1.770   5.028 -1.8086  1.6035  2.0658
 2472TIP3    H228832   1.468   1.688   5.126  0.5762 -0.6763 -1.7058
 2473TIP3   OH228833   3.168   4.952  16.664  0.1868  0.1236  0.1429
 2473TIP3    H128834   3.205   4.957  16.576  0.8512  1.8361  0.4992
 2473TIP3    H228835   3.171   4.859  16.686  2.2432 -0.0447 -0.7318
 2474TIP3   OH228836   5.647   2.011   2.343  0.4168  0.0035  0.3931
 2474TIP3    H128837   5.686   2.096   2.322  0.5654 -0.1556  0.0234
 2474TIP3    H228838   5.646   1.963   2.260 -2.5384  0.7834 -0.0668
 2475TIP3   OH228839   0.790   2.992   3.093  0.1365  0.4582 -0.5135
 2475TIP3    H128840   0.875   3.035   3.105  0.8294 -0.6798 -1.3687
 2475TIP3    H228841   0.726   3.059   3.119  1.2758  1.3951 -0.0835
 2476TIP3   OH228842   1.189   4.260   0.888  0.2284 -0.0753 -0.5769
 2476TIP3    H128843   1.137   4.288   0.812 -0.3893 -2.1077 -0.9401
 2476TIP3    H228844   1.131   4.275   0.963 -0.0920 -0.3443 -0.7659
 2477TIP3   OH228845   1.539   5.502   4.592  0.4388  0.1662  0.3295
 2477TIP3    H128846   1.540   5.423   4.538  0.3277  0.8500 -0.6795
 2477TIP3    H228847   1.564   5.573   4.533  0.0350  0.9719  1.0978
 2478TIP3   OH228848   5.892   4.446  15.706 -0.2180 -0.1729 -0.2896
 2478TIP3    H128849   5.898   4.531  15.662  0.1354  0.0128  0.1169
 2478TIP3    H228850   5.859   4.467  15.793 -2.1614 -0.6684 -0.8717
 2479TIP3   OH228851   2.191   0.310   5.279  0.3787  0.0274  0.4347
 2479TIP3    H128852   2.104   0.278   5.257  1.4301 -1.8955 -1.0204
 2479TIP3    H228853   2.208   0.377   5.213 -0.8276  1.9557  2.0140
 2480TIP3   OH228854   2.350   4.444   6.796  0.5162 -0.1886  0.5445
 2480TIP3    H128855   2.317   4.533   6.788  1.9604  0.2079 -1.7922
 2480TIP3    H228856   2.314   4.398   6.719 -0.8929 -1.8673  2.1631
 2481TIP3   OH228857   0.804   0.934  14.644 -0.5681 -0.1238  0.2875
 2481TIP3    H128858   0.822   0.844  14.671 -1.3353  0.4057  2.7222
 2481TIP3    H228859   0.716   0.930  14.606  0.3426 -0.7988 -1.8306
 2482TIP3   OH228860   1.579   1.247  14.365  0.7529  0.4579  0.0184
 2482TIP3    H128861   1.512   1.243  14.433  0.8476  0.5711  0.1169
 2482TIP3    H228862   1.532   1.230  14.283  0.4848  1.2288  0.0086
 2483TIP3   OH228863   3.790   2.773   4.009 -0.2801  0.0395 -0.1542
 2483TIP3    H128864   3.778   2.814   3.924 -1.0265 -1.6139 -0.8792
 2483TIP3    H228865   3.739   2.827   4.069  1.4885  2.0996 -0.4724
 2484TIP3   OH228866   1.237   5.722   4.414 -0.6727 -0.1777  0.4140
 2484TIP3    H128867   1.296   5.770   4.472  1.6703 -1.6556 -0.6517
 2484TIP3    H228868   1.174   5.787   4.384  2.9617  2.5344 -1.7332
 2485TIP3   OH228869   4.196   3.612  16.514 -0.4272  0.5142  0.0387
 2485TIP3    H128870   4.250   3.655  16.447 -4.2901  1.4878 -2.5969
 2485TIP3    H228871   4.210   3.519  16.500 -0.5934  0.7277 -1.6660
 2486TIP3   OH228872   2.536   2.769   4.526 -0.4496 -0.3508 -0.4909
 2486TIP3    H128873   2.452   2.749   4.568 -0.0139 -0.1172  0.4929
 2486TIP3    H228874   2.602   2.742   4.589  0.1956  1.0150 -0.5651
 2487TIP3   OH228875   2.438   1.623  11.985  0.5599  0.1303 -0.2576
 2487TIP3    H128876   2.512   1.655  12.036  1.1160 -1.2111 -0.2105
 2487TIP3    H228877   2.362   1.667  12.023  1.3163  1.5018 -0.2954
 2488TIP3   OH228878   3.579   1.918  10.993  0.3402  0.0514 -0.0401
 2488TIP3    H128879   3.660   1.970  10.990 -0.6627  1.6536  0.3337
 2488TIP3    H228880   3.518   1.965  10.936 -0.3576 -1.1389 -0.3055
 2489TIP3   OH228881   1.323   3.007   4.329 -0.4402  0.0168 -0.4985
 2489TIP3    H128882   1.343   3.101   4.323 -1.0351  0.1550 -0.3621
 2489TIP3    H228883   1.228   3.004   4.341 -0.5093 -0.6355 -1.2138
 2490TIP3   OH228884   6.024   2.542   4.583 -0.0033  0.3437 -1.1927
 2490TIP3    H128885   6.074   2.623   4.589  0.8150 -0.2097 -0.4925
 2490TIP3    H228886   6.087   2.477   4.550  0.2851 -0.8145  1.5019
 2491TIP3   OH228887   3.157   6.218  14.250  0.2781  0.5820  0.2298
 2491TIP3    H128888   3.227   6.153  14.242 -0.7949 -0.7596  1.5136
 2491TIP3    H228889   3.113   6.197  14.333 -0.6596  2.3809  0.2161
 2492TIP3   OH228890   5.262   4.288   3.167  0.2281  0.3510 -0.6740
 2492TIP3    H128891   5.191   4.224   3.169  0.9952 -0.4715  1.3679
 2492TIP3    H228892   5.230   4.361   3.221 -0.1623  1.1770 -2.0074
 2493TIP3   OH228893   5.900   5.263  11.198 -0.1213 -0.2078 -0.5079
 2493TIP3    H128894   5.979   5.312  11.219  0.4936 -1.3019 -0.2068
 2493TIP3    H228895   5.875   5.294  11.112  0.1863  0.7200 -0.2707
 2494TIP3   OH228896   5.515   0.668  12.266  0.7537 -0.2947  0.0488
 2494TIP3    H128897   5.503   0.603  12.196 -1.6326  1.3114 -1.0649
 2494TIP3    H228898   5.559   0.741  12.222 -1.0742  0.8637  0.1017
 2495TIP3   OH228899   1.880   5.559  16.603 -0.1496 -0.2028 -0.2231
 2495TIP3    H128900   1.929   5.477  16.608 -0.2596 -0.3088 -0.7833
 2495TIP3    H228901   1.943   5.622  16.567 -0.7748 -0.6468 -2.1874
 2496TIP3   OH228902   1.668   3.608  16.565 -0.2736 -0.0117 -0.2527
 2496TIP3    H128903   1.666   3.541  16.633 -0.7990  0.3199  0.0624
 2496TIP3    H228904   1.655   3.690  16.613  2.2519  0.5194 -0.3898
 2497TIP3   OH228905   0.520   3.921   5.196  0.0507  0.0752  0.1476
 2497TIP3    H128906   0.507   3.938   5.290 -1.1770 -0.6567  0.1268
 2497TIP3    H228907   0.482   3.997   5.153  0.2262  0.2145  0.2396
 2498TIP3   OH228908   3.383   1.978   6.127 -0.4667  0.5714  0.3162
 2498TIP3    H128909   3.471   1.946   6.105 -1.5991 -2.3564 -0.2212
 2498TIP3    H228910   3.381   1.978   6.223  0.1195  0.6090  0.3314
 2499TIP3   OH228911   4.332   4.809  15.114  0.0859  0.4134 -0.2224
 2499TIP3    H128912   4.321   4.714  15.122  0.5582  0.4434  0.7662
 2499TIP3    H228913   4.283   4.831  15.034  1.4916 -0.9242 -1.5079
 2500TIP3   OH228914   3.793   3.368   2.973  0.0422 -0.0302  0.2426
 2500TIP3    H128915   3.850   3.330   2.906  1.9212  1.1520  1.1513
 2500TIP3    H228916   3.757   3.292   3.019 -0.5611 -0.8324 -1.4780
 2501TIP3   OH228917   1.210   3.820  14.538  0.3607 -0.3727  0.6858
 2501TIP3    H128918   1.242   3.739  14.498  1.6919  0.0031  0.9539
 2501TIP3    H228919   1.264   3.888  14.499 -1.4190  0.5219 -0.2838
 2502TIP3   OH228920   0.704   6.046  16.759  0.5140  0.4670  0.5167
 2502TIP3    H128921   0.673   5.980  16.821 -0.7840 -0.1449 -0.7446
 2502TIP3    H228922   0.798   6.033  16.754  0.2684 -1.3288  0.2519
 2503TIP3   OH228923   0.246   4.624   1.279 -0.0664 -0.1211  0.1893
 2503TIP3    H128924   0.322   4.681   1.296  0.0838 -0.0499 -0.6893
 2503TIP3    H228925   0.185   4.644   1.350  0.8561 -0.3958  1.0768
 2504TIP3   OH228926   5.863   3.545  16.938 -0.1624 -0.1096  0.0125
 2504TIP3    H128927   5.945   3.559  16.985 -1.2214 -0.4379  2.0497
 2504TIP3    H228928   5.848   3.625  16.889  0.7098  0.4771  0.7016
 2505TIP3   OH228929   0.329   0.114  15.877  0.2432 -0.0172  0.0464
 2505TIP3    H128930   0.313   0.070  15.960  0.7223 -0.7393 -0.2429
 2505TIP3    H228931   0.245   0.152  15.853  0.2207  0.6386  1.1159
 2506TIP3   OH228932   1.918   1.449  15.979  0.0921  0.4750  0.5029
 2506TIP3    H128933   1.961   1.475  15.898  0.5895 -1.6633  0.0661
 2506TIP3    H228934   1.989   1.435  16.041  0.0325 -2.1734  0.0362
 2507TIP3   OH228935   4.278   3.025  10.712  0.4119 -0.4234 -0.5280
 2507TIP3    H128936   4.285   2.930  10.710 -1.4555 -0.6100  0.7353
 2507TIP3    H228937   4.365   3.056  10.737  0.5502 -1.8906  0.8339
 2508TIP3   OH228938   4.402   5.768   6.643 -0.6507  0.9478  0.1641
 2508TIP3    H128939   4.333   5.792   6.581 -0.4640  0.3979 -0.2579
 2508TIP3    H228940   4.370   5.799   6.728 -1.0652  1.3908 -0.1494
 2509TIP3   OH228941   4.583   5.047   3.167  0.1174 -0.0589 -0.3502
 2509TIP3    H128942   4.521   4.980   3.196  0.7577 -0.6585 -0.3633
 2509TIP3    H228943   4.601   5.098   3.246 -0.0679 -0.1416 -0.2538
 2510TIP3   OH228944   0.329   2.776   1.307  0.4543 -0.1372  0.7317
 2510TIP3    H128945   0.295   2.706   1.363  0.1801 -1.5335 -1.1485
 2510TIP3    H228946   0.263   2.845   1.312 -2.5260 -2.5736 -2.3924
 2511TIP3   OH228947   0.818   3.980   0.937  0.0103  0.2684 -0.0808
 2511TIP3    H128948   0.805   4.027   1.020 -0.5559 -0.6163  0.3375
 2511TIP3    H228949   0.807   3.888   0.960  1.1883 -0.0858 -0.8826
 2512TIP3   OH228950   2.406   3.981   5.040  0.1467 -0.1695  0.0732
 2512TIP3    H128951   2.410   4.062   4.989 -2.1164 -0.5366 -0.7674
 2512TIP3    H228952   2.370   4.008   5.125  2.4074  0.1781  0.9722
 2513TIP3   OH228953   0.010   1.605  14.459  0.1190  0.7195  0.5160
 2513TIP3    H128954   0.098   1.621  14.425  0.0003  0.8751  0.2793
 2513TIP3    H228955  -0.036   1.688  14.448 -0.4743  0.2459 -0.6560
 2514TIP3   OH228956   6.268   1.770  15.314  0.4561 -0.0660  0.4638
 2514TIP3    H128957   6.206   1.765  15.387  0.1543 -0.6763  0.1668
 2514TIP3    H228958   6.329   1.698  15.330  0.2788 -0.3152  0.0092
 2515TIP3   OH228959   1.274   2.558   3.557 -0.4306 -0.4986 -0.0638
 2515TIP3    H128960   1.249   2.491   3.620 -3.3574  0.6035  0.0426
 2515TIP3    H228961   1.301   2.633   3.611 -1.9494  0.0895 -0.0924
 2516TIP3   OH228962   3.291   0.252  13.891  0.0593 -0.4384 -0.2250
 2516TIP3    H128963   3.367   0.200  13.915 -1.0804 -1.4505  1.2762
 2516TIP3    H228964   3.242   0.264  13.973 -0.4831  1.7258 -0.8186
 2517TIP3   OH228965   1.253   3.972  16.924 -0.6086  0.2273 -0.1912
 2517TIP3    H128966   1.266   3.884  16.889  1.7921  0.4580 -0.0230
 2517TIP3    H228967   1.341   4.000  16.949 -1.5767  2.0262  1.3227
 2518TIP3   OH228968   0.059   5.476  16.365 -0.7621 -0.1759  0.1318
 2518TIP3    H128969   0.063   5.381  16.352 -1.0859 -0.2756  0.7675
 2518TIP3    H228970   0.129   5.494  16.428 -1.4117 -0.1350  0.8429
 2519TIP3   OH228971   5.972   6.770  10.700 -0.3405 -0.3480 -0.0869
 2519TIP3    H128972   5.932   6.856  10.693  0.1091  0.1199  2.6861
 2519TIP3    H228973   6.059   6.781  10.662  0.0771  0.6907  1.1439
 2520TIP3   OH228974   6.214   6.019  11.995  0.1818  0.4859  0.5478
 2520TIP3    H128975   6.206   6.035  12.089  0.6218  1.0280  0.4927
 2520TIP3    H228976   6.222   5.924  11.988 -0.8465  0.3544  0.9834
 2521TIP3   OH228977   4.535   1.178   5.490 -0.6686  0.4039  0.4296
 2521TIP3    H128978   4.575   1.211   5.410 -0.6490  0.9810  0.6777
 2521TIP3    H228979   4.455   1.134   5.461 -0.7938  0.8384  0.1254
 2522TIP3   OH228980   2.028   2.421  12.052 -0.0460 -0.0805 -0.3241
 2522TIP3    H128981   2.072   2.453  12.131 -0.9584  1.2396 -0.3410
 2522TIP3    H228982   2.087   2.447  11.981 -0.2613  0.6339 -0.2485
 2523TIP3   OH228983   1.575   1.432  10.655 -0.2590 -0.2874  0.0774
 2523TIP3    H128984   1.558   1.521  10.686  1.3188 -0.2009  0.7158
 2523TIP3    H228985   1.497   1.409  10.604 -1.1673  1.0289  0.8579
 2524TIP3   OH228986   0.243   1.210   2.059 -0.8293  0.1972  0.0393
 2524TIP3    H128987   0.154   1.245   2.067 -1.2584 -0.7820 -0.3835
 2524TIP3    H228988   0.281   1.259   1.986 -0.7897  1.0897  0.6564
 2525TIP3   OH228989   4.450   0.177  11.366  0.0411  0.0985  0.2854
 2525TIP3    H128990   4.401   0.094  11.368 -1.5354  0.9845 -0.7663
 2525TIP3    H228991   4.411   0.226  11.293  2.6997  0.7097 -0.7574
 2526TIP3   OH228992   0.707   4.139  16.658  0.4971  0.2447 -0.1040
 2526TIP3    H128993   0.657   4.192  16.597  2.0727  3.0021  0.9074
 2526TIP3    H228994   0.691   4.049  16.630 -0.0553  1.3487 -3.6133
 2527TIP3   OH228995   2.537   0.711  14.923 -0.4148  0.0715 -0.3774
 2527TIP3    H128996   2.615   0.661  14.949 -0.5522 -0.6643 -1.3253
 2527TIP3    H228997   2.524   0.688  14.831 -0.8441  1.4022 -0.6549
 2528TIP3   OH228998   5.386   3.934   5.118 -0.3360 -0.2989  0.3505
 2528TIP3    H128999   5.327   3.860   5.131 -0.8328 -0.0629 -0.5011
 2528TIP3    H229000   5.417   3.925   5.028 -0.1516  0.3482  0.3424
 2529TIP3   OH229001   3.706   3.275  11.525  0.0337 -0.0811 -0.4007
 2529TIP3    H129002   3.730   3.197  11.475 -1.0821 -0.4199 -0.4215
 2529TIP3    H229003   3.662   3.241  11.603 -0.3166  0.5171 -0.3320
 2530TIP3   OH229004   2.457   5.452   2.568 -0.0175 -0.0761 -0.3390
 2530TIP3    H129005   2.534   5.460   2.624  0.4776  0.9139 -1.1531
 2530TIP3    H229006   2.418   5.539   2.568 -1.6563 -0.7839  0.7810
 2531TIP3   OH229007   6.566   4.792  12.560  0.7465 -0.4667 -0.2364
 2531TIP3    H129008   6.630   4.803  12.491  1.5046  0.1703  0.5631
 2531TIP3    H229009   6.572   4.872  12.613 -0.5940 -0.4568 -0.0661
 2532TIP3   OH229010   3.655   3.069   0.569 -0.7205 -1.1516 -0.1152
 2532TIP3    H129011   3.675   2.978   0.545 -1.8388 -0.7460 -2.7238
 2532TIP3    H229012   3.581   3.093   0.513 -0.0922  1.5446  0.1482
 2533TIP3   OH229013   1.264   6.375  11.734 -0.1321  0.3908  0.4039
 2533TIP3    H129014   1.249   6.452  11.788 -1.1887  0.9655 -0.6847
 2533TIP3    H229015   1.265   6.302  11.796 -0.0801  1.1707  1.3310
 2534TIP3   OH229016   2.350   1.263  12.338  0.2946  0.2820  0.0797
 2534TIP3    H129017   2.338   1.339  12.395  1.1947  1.4381 -1.2140
 2534TIP3    H229018   2.371   1.191  12.397  0.2199  1.2210  1.2745
 2535TIP3   OH229019   6.529   2.075   0.687  0.2819 -0.1207  0.1557
 2535TIP3    H129020   6.478   2.099   0.764 -0.9647  0.0179 -0.6985
 2535TIP3    H229021   6.463   2.054   0.620  1.3007  2.2872 -1.6745
 2536TIP3   OH229022   0.697   3.833   4.538  0.0010  0.1566 -0.4344
 2536TIP3    H129023   0.693   3.831   4.634  0.9765  1.6102 -0.3367
 2536TIP3    H229024   0.608   3.858   4.512  0.0228  0.9101  0.1623
 2537TIP3   OH229025   6.071   2.352   4.116  0.4279  0.1048 -0.0004
 2537TIP3    H129026   6.121   2.312   4.187  0.1555 -0.3590 -0.0715
 2537TIP3    H229027   6.062   2.444   4.143  2.1773  0.4414 -0.4676
 2538TIP3   OH229028   1.767   5.605  11.309 -0.3727  0.1503 -0.2731
 2538TIP3    H129029   1.785   5.695  11.283  0.4683 -0.2344 -1.0151
 2538TIP3    H229030   1.813   5.594  11.392  0.4666  0.0492 -0.7517
 2539TIP3   OH229031   1.890   5.430   0.525 -0.0590 -0.1668 -0.3842
 2539TIP3    H129032   1.839   5.368   0.576 -0.3186  0.8253  0.5740
 2539TIP3    H229033   1.978   5.426   0.563  0.2665 -0.9327 -1.2012
 2540TIP3   OH229034   3.545   2.566  15.742  0.2976  0.2680  0.4999
 2540TIP3    H129035   3.572   2.517  15.820 -0.6757 -0.5796  0.3114
 2540TIP3    H229036   3.499   2.502  15.689  0.8705  0.8700 -0.7405
 2541TIP3   OH229037   1.377   3.226   6.175  0.2072  0.7527 -0.3652
 2541TIP3    H129038   1.461   3.181   6.166  0.4747  0.8710  1.4502
 2541TIP3    H229039   1.398   3.307   6.221 -0.7306  1.3715 -0.9995
 2542TIP3   OH229040   1.171   0.945  15.405  0.2341  0.1285 -0.8971
 2542TIP3    H129041   1.266   0.951  15.405  0.2405  0.0992 -1.4983
 2542TIP3    H229042   1.142   1.011  15.468  0.5983  1.1922 -1.8261
 2543TIP3   OH229043   5.197   4.914  16.372 -0.5918 -0.0843 -0.7356
 2543TIP3    H129044   5.198   4.820  16.358  0.0616 -0.3980  1.2868
 2543TIP3    H229045   5.219   4.952  16.287 -0.1055 -1.7641 -1.3605
 2544TIP3   OH229046   5.325   2.706  11.062 -0.1802 -0.1270  0.4545
 2544TIP3    H129047   5.251   2.694  11.003 -0.8009 -1.7215  1.5354
 2544TIP3    H229048   5.399   2.669  11.015  0.0774  1.9789 -0.8681
 2545TIP3   OH229049   2.467   3.597  13.419 -0.0347  0.9438  0.3248
 2545TIP3    H129050   2.384   3.550  13.407 -0.3011  1.2544  0.9620
 2545TIP3    H229051   2.486   3.634  13.333  0.2214 -0.3963 -0.2217
 2546TIP3   OH229052   2.138   6.109  15.829 -0.0901  0.7526 -0.2146
 2546TIP3    H129053   2.175   6.064  15.753 -1.9546 -0.5859 -0.3707
 2546TIP3    H229054   2.074   6.047  15.864  0.4126  1.5571  2.1680
 2547TIP3   OH229055   3.007   6.440  13.909  0.1419  0.0879 -0.1046
 2547TIP3    H129056   3.049   6.424  13.993  2.2309 -1.3581 -1.3721
 2547TIP3    H229057   3.028   6.531  13.888 -2.1259  1.1062  1.8473
 2548TIP3   OH229058   2.554   0.278   1.999 -0.8364  0.2082 -0.2752
 2548TIP3    H129059   2.588   0.346   2.058  1.2785 -0.1273 -1.0565
 2548TIP3    H229060   2.528   0.326   1.920 -0.4950  0.2629 -0.3559
 2549TIP3   OH229061   3.379   3.996   1.295 -0.3854 -0.5051 -0.3931
 2549TIP3    H129062   3.394   4.090   1.282 -0.8146 -0.4185 -0.2638
 2549TIP3    H229063   3.302   3.992   1.351 -0.0767 -0.9276  0.0010
 2550TIP3   OH229064   1.684   0.958  17.107  0.1928  0.5222 -0.0085
 2550TIP3    H129065   1.709   1.049  17.095  2.3384  0.2745  2.3147
 2550TIP3    H229066   1.675   0.946  17.201 -2.2585 -1.1458 -0.3755
 2551TIP3   OH229067   4.767   0.296  13.075 -0.0928  0.2687  0.7724
 2551TIP3    H129068   4.763   0.388  13.102 -1.3596  0.3914  0.2150
 2551TIP3    H229069   4.745   0.247  13.154 -1.7659  0.5504  0.5096
 2552TIP3   OH229070   5.459   4.199  13.275  0.0888 -0.9828  0.3428
 2552TIP3    H129071   5.546   4.159  13.263 -0.1429 -1.1538 -0.8544
 2552TIP3    H229072   5.417   4.145  13.341  0.9540 -0.8047  1.0549
 2553TIP3   OH229073   2.367   5.411  14.006  0.6250  0.6024  0.3960
 2553TIP3    H129074   2.338   5.474  14.072  0.0537 -0.0853  0.8050
 2553TIP3    H229075   2.440   5.364  14.047 -0.7043 -0.8610  1.1123
 2554TIP3   OH229076   3.652   4.149  11.547  0.0853 -0.0123  0.0340
 2554TIP3    H129077   3.702   4.103  11.615  2.3205 -1.5015 -2.5281
 2554TIP3    H229078   3.567   4.165  11.588  0.4750 -3.1135  2.3309
 2555TIP3   OH229079   0.847   5.294   1.392  0.2888 -0.4513 -0.6616
 2555TIP3    H129080   0.937   5.326   1.392 -0.9585  3.3381  0.1078
 2555TIP3    H229081   0.818   5.302   1.483 -1.3669  0.1684 -1.2076
 2556TIP3   OH229082   0.913   6.697  14.465  0.2747  0.1630  0.1361
 2556TIP3    H129083   0.831   6.648  14.458  0.6356 -0.4490  0.0871
 2556TIP3    H229084   0.902   6.752  14.543  0.1106 -0.4890  0.5811
 2557TIP3   OH229085   1.784   4.443   0.797 -1.0477 -0.0330 -0.0152
 2557TIP3    H129086   1.725   4.498   0.848 -0.7168 -0.4831  0.8567
 2557TIP3    H229087   1.792   4.489   0.713 -2.2369  0.2811  0.0356
 2558TIP3   OH229088   5.313   6.038  13.474  0.0008 -0.1132  0.4155
 2558TIP3    H129089   5.354   5.955  13.448  2.1863  1.3936 -1.2588
 2558TIP3    H229090   5.226   6.035  13.435  0.4334 -1.2074 -0.5198
 2559TIP3   OH229091   0.613   4.067   3.157 -0.5123 -0.1591  0.4572
 2559TIP3    H129092   0.559   4.130   3.205 -0.5950 -0.6328  0.9952
 2559TIP3    H229093   0.698   4.111   3.147 -1.0066  0.6075 -0.4406
 2560TIP3   OH229094   4.155   5.295   2.739 -0.2291  0.1474  0.3021
 2560TIP3    H129095   4.124   5.300   2.830  0.4674 -2.2370  0.7015
 2560TIP3    H229096   4.239   5.250   2.745  0.3122  0.8920 -1.4440
 2561TIP3   OH229097   4.252   6.653   5.280  0.2327  1.1661  0.8780
 2561TIP3    H129098   4.157   6.656   5.267  0.3346 -0.2304 -0.3629
 2561TIP3    H229099   4.263   6.605   5.363 -0.1201  0.7743  0.6996
 2562TIP3   OH229100   3.245   3.490   2.345 -0.4489 -0.1384 -0.1233
 2562TIP3    H129101   3.198   3.573   2.357  0.0830  0.3008 -0.9594
 2562TIP3    H229102   3.182   3.423   2.368 -0.5974  0.5268  1.4520
 2563TIP3   OH229103   5.158   1.034   0.484 -0.2034  0.2062  0.1322
 2563TIP3    H129104   5.186   1.115   0.526  0.5518  0.6877 -1.2710
 2563TIP3    H229105   5.137   1.059   0.394 -2.5969 -0.6589  0.4219
 2564TIP3   OH229106   5.675   4.011  15.499  0.0109 -0.2176 -0.2402
 2564TIP3    H129107   5.655   4.081  15.561  1.1763  0.0940 -0.2159
 2564TIP3    H229108   5.762   3.980  15.524 -1.3115 -3.1106  1.0672
 2565TIP3   OH229109   0.874   1.495  14.596 -0.1068  0.5701 -0.0388
 2565TIP3    H129110   0.944   1.471  14.536 -0.5725  1.7795 -1.1012
 2565TIP3    H229111   0.794   1.488  14.543 -0.7732 -0.5970  1.0983
 2566TIP3   OH229112   5.838   6.270   4.478 -0.0861  0.1935  0.1712
 2566TIP3    H129113   5.754   6.275   4.524  0.9328  1.8135  1.9738
 2566TIP3    H229114   5.886   6.348   4.508  1.0964  0.6757 -2.7826
 2567TIP3   OH229115   0.482   6.198  13.710  0.8384  0.5861  0.5657
 2567TIP3    H129116   0.392   6.194  13.678 -0.1588 -2.2224  3.3566
 2567TIP3    H229117   0.520   6.115  13.683  0.9596 -0.4232  3.6417
 2568TIP3   OH229118   0.421   1.172  15.128 -0.1882  0.5063 -0.1548
 2568TIP3    H129119   0.465   1.256  15.137  0.1812  0.4769 -1.5510
 2568TIP3    H229120   0.439   1.145  15.038 -1.2686 -0.5203 -0.0743
 2569TIP3   OH229121   3.137   6.727  15.289  0.4706  0.0293  0.1117
 2569TIP3    H129122   3.203   6.785  15.249  0.1547  1.0234  1.0046
 2569TIP3    H229123   3.162   6.723  15.381  1.0707 -2.0850 -0.1086
 2570TIP3   OH229124   6.083   5.619   6.018 -0.4123  0.0663 -0.4586
 2570TIP3    H129125   6.069   5.711   5.996 -0.1557  0.1102 -0.4418
 2570TIP3    H229126   6.076   5.616   6.113 -2.2535 -0.2503 -0.5871
 2571TIP3   OH229127   1.791   4.565  13.035 -0.8659  0.0952  0.0163
 2571TIP3    H129128   1.804   4.471  13.041 -1.7736  0.0385  1.1077
 2571TIP3    H229129   1.793   4.584  12.941 -2.4088 -1.2502 -0.2955
 2572TIP3   OH229130   1.170   2.577  12.216 -0.4721  0.1043 -0.0297
 2572TIP3    H129131   1.203   2.517  12.284 -1.0442 -1.7971 -1.3894
 2572TIP3    H229132   1.235   2.571  12.146 -0.1568  1.6719  0.1064
 2573TIP3   OH229133   5.040   6.119   5.087  0.6206  0.1885  0.1145
 2573TIP3    H129134   4.954   6.103   5.125 -0.1437  1.8964 -0.8439
 2573TIP3    H229135   5.097   6.053   5.127 -1.0012 -0.5742  1.1949
 2574TIP3   OH229136   2.630   1.120  11.577 -0.4852  0.3189  0.2062
 2574TIP3    H129137   2.594   1.038  11.543 -0.6067  0.1067  0.8395
 2574TIP3    H229138   2.725   1.111  11.569 -0.4761 -0.1110  0.7994
 2575TIP3   OH229139   2.256   6.445   1.625  0.2408 -0.0220 -1.1125
 2575TIP3    H129140   2.325   6.439   1.691  0.5500  0.5627 -1.3853
 2575TIP3    H229141   2.181   6.401   1.665  0.9476 -1.1830 -1.0535
 2576TIP3   OH229142   0.970   6.557   5.293 -0.0964  0.0375 -0.0916
 2576TIP3    H129143   0.909   6.513   5.233 -0.5226  0.9262 -0.3226
 2576TIP3    H229144   1.056   6.520   5.272 -0.4514 -0.7129 -0.2492
 2577TIP3   OH229145   4.117   0.252   6.620  0.4323 -0.5620  0.4746
 2577TIP3    H129146   4.124   0.345   6.602 -0.5727 -0.3319  1.2154
 2577TIP3    H229147   4.028   0.228   6.591  0.4952 -1.1702  0.7640
 2578TIP3   OH229148   0.343   3.940   3.553 -0.7568  0.5126 -0.9400
 2578TIP3    H129149   0.259   3.926   3.508 -0.7891  1.0512 -1.0509
 2578TIP3    H229150   0.319   3.951   3.645 -0.6951 -0.5464 -0.7944
 2579TIP3   OH229151   1.698   4.201   1.784 -0.7919  0.1413  0.2566
 2579TIP3    H129152   1.688   4.190   1.879 -2.1076 -0.4884  0.0478
 2579TIP3    H229153   1.660   4.121   1.747 -0.5828  0.5424 -0.8152
 2580TIP3   OH229154   6.024   1.888   2.872 -0.2225 -0.1211 -0.0863
 2580TIP3    H129155   6.089   1.946   2.912 -1.4571  1.0963  0.2016
 2580TIP3    H229156   5.944   1.904   2.922 -1.0925 -0.5808 -1.3139
 2581TIP3   OH229157   4.938   1.277  11.637  0.1013 -0.0730  0.1304
 2581TIP3    H129158   4.883   1.209  11.675 -1.5359 -1.1415 -3.9048
 2581TIP3    H229159   4.925   1.269  11.543  5.2666  1.3473 -0.8408
 2582TIP3   OH229160   1.219   3.262   4.874  0.3354  0.2645  0.5587
 2582TIP3    H129161   1.126   3.281   4.858  0.7383  1.7617 -0.0513
 2582TIP3    H229162   1.223   3.166   4.876 -1.4221  0.1835  1.8233
 2583TIP3   OH229163   2.416   4.961  14.263 -0.0958 -0.6211  0.2816
 2583TIP3    H129164   2.488   5.021  14.242  0.4042 -1.2698  0.1307
 2583TIP3    H229165   2.389   4.926  14.178  0.4254 -1.5412  0.4947
 2584TIP3   OH229166   4.082   5.987  13.778  0.1478 -0.3849  0.2519
 2584TIP3    H129167   4.110   5.902  13.743 -0.7488  0.0685 -1.6176
 2584TIP3    H229168   4.163   6.031  13.803  0.9411 -0.2631 -2.3564
 2585TIP3   OH229169   5.078   2.291   2.674 -0.5437 -0.4709  0.2364
 2585TIP3    H129170   5.144   2.360   2.667 -1.9043  0.8212 -0.1287
 2585TIP3    H229171   5.105   2.225   2.610  0.8385 -0.3543  0.6748
 2586TIP3   OH229172   4.669   0.928   2.018  0.3128  0.4705 -0.3741
 2586TIP3    H129173   4.758   0.913   2.050 -0.4446 -1.2185  1.0187
 2586TIP3    H229174   4.627   0.979   2.086 -0.4314 -0.6382  0.0213
 2587TIP3   OH229175   0.142   5.072   0.376 -0.2507 -0.2760  0.4985
 2587TIP3    H129176   0.190   5.154   0.368 -0.1673 -0.4289 -0.6314
 2587TIP3    H229177   0.053   5.093   0.348  0.2724 -1.0317 -1.8940
 2588TIP3   OH229178   4.645   4.859   3.624 -0.4514  0.2380  0.3808
 2588TIP3    H129179   4.735   4.889   3.633 -0.9587  1.1800  2.3488
 2588TIP3    H229180   4.645   4.811   3.541  1.7519  0.5832  0.1460
 2589TIP3   OH229181   6.468   3.572   6.107 -0.0800  0.0194 -0.6035
 2589TIP3    H129182   6.495   3.622   6.184  1.4957 -1.0104 -0.4542
 2589TIP3    H229183   6.379   3.543   6.128 -1.9006  4.4614 -1.6045
 2590TIP3   OH229184   6.181   3.065   2.228 -0.3118  0.1635  0.0631
 2590TIP3    H129185   6.181   2.972   2.204 -0.4830  0.2711 -0.3576
 2590TIP3    H229186   6.103   3.100   2.185  1.0226  1.0098 -1.7305
 2591TIP3   OH229187   5.273   6.582  12.189 -0.1500  0.2333 -0.2783
 2591TIP3    H129188   5.182   6.605  12.207 -0.3477  0.0213 -1.0006
 2591TIP3    H229189   5.310   6.559  12.275 -1.1374 -0.9683 -0.1604
 2592TIP3   OH229190   1.626   0.824   2.012 -0.8062  0.4543 -0.4310
 2592TIP3    H129191   1.622   0.779   1.928  0.9455  0.6005 -0.6099
 2592TIP3    H229192   1.593   0.912   1.994  0.3405  0.7446 -1.1628
 2593TIP3   OH229193   1.608   2.225   3.393  0.1194 -0.2242  0.0107
 2593TIP3    H129194   1.576   2.315   3.400  0.4274 -0.0458 -0.8994
 2593TIP3    H229195   1.683   2.230   3.335  0.5519 -0.9711  0.4948
 2594TIP3   OH229196   4.117   2.180   5.367  0.1599 -0.2828 -0.0419
 2594TIP3    H129197   4.072   2.188   5.283  1.2167 -0.9181 -0.6700
 2594TIP3    H229198   4.055   2.133   5.423 -0.6763  0.4224 -0.3562
 2595TIP3   OH229199   2.766   1.970   5.219 -0.6514 -0.1332 -0.7349
 2595TIP3    H129200   2.703   1.954   5.148 -0.7072 -2.8133 -0.1357
 2595TIP3    H229201   2.845   1.925   5.190 -0.4627 -0.6687  0.5785
 2596TIP3   OH229202   1.472   0.146   5.670  0.2496 -0.3153 -0.5242
 2596TIP3    H129203   1.474   0.149   5.765 -0.8513 -0.1998 -0.4984
 2596TIP3    H229204   1.564   0.156   5.643  0.6603 -1.2929  0.5355
 2597TIP3   OH229205   3.390   6.428   1.023 -0.1839  0.0047 -0.2084
 2597TIP3    H129206   3.315   6.368   1.018  0.3211 -0.5860 -0.7619
 2597TIP3    H229207   3.460   6.376   1.062  0.0874  0.4072 -0.1575
 2598TIP3   OH229208   6.391   2.909   0.534 -0.0928  0.0833 -0.7535
 2598TIP3    H129209   6.346   2.956   0.464 -0.3001  0.1578 -0.5719
 2598TIP3    H229210   6.482   2.938   0.528 -0.1463  0.2222 -0.8783
 2599TIP3   OH229211   0.117   1.140  11.658 -0.2182  0.3308 -0.2287
 2599TIP3    H129212   0.164   1.171  11.580  0.4141 -1.3582 -0.5491
 2599TIP3    H229213   0.040   1.095  11.623  0.7951 -1.6648  0.0208
 2600TIP3   OH229214   1.962   3.641  11.312  0.5795  0.0838  0.4738
 2600TIP3    H129215   1.955   3.546  11.313 -1.3216  0.1693 -1.4006
 2600TIP3    H229216   1.872   3.672  11.328  0.8195  1.5315 -0.8614
 2601TIP3   OH229217   2.870   1.170   5.944  0.1881 -0.1635 -0.5058
 2601TIP3    H129218   2.866   1.219   6.026  0.3799 -2.1854  0.7263
 2601TIP3    H229219   2.843   1.234   5.877 -0.7416  1.2771  1.2033
 2602TIP3   OH229220   0.201   0.638  15.195  0.1338  0.0432 -0.1410
 2602TIP3    H129221   0.244   0.567  15.241 -0.4316 -0.0011  0.3302
 2602TIP3    H229222   0.270   0.703  15.180  0.4001 -0.0951  0.4649
 2603TIP3   OH229223   1.512   2.493   5.220 -0.4646  0.3617 -0.0298
 2603TIP3    H129224   1.549   2.580   5.206 -1.8807  0.9005 -0.4716
 2603TIP3    H229225   1.530   2.474   5.313  0.1444  0.9642 -0.0208
 2604TIP3   OH229226   6.211   0.691   1.941 -0.1436  0.0622 -0.3256
 2604TIP3    H129227   6.227   0.772   1.990  2.0594 -0.5245 -0.0426
 2604TIP3    H229228   6.116   0.688   1.931 -0.4919  1.1124  2.3327
 2605TIP3   OH229229   1.641   6.322   1.389 -0.4648 -0.2829 -0.7993
 2605TIP3    H129230   1.621   6.263   1.316 -0.1332  0.2199 -1.3073
 2605TIP3    H229231   1.684   6.267   1.453 -0.7850 -0.7412 -0.9702
 2606TIP3   OH229232   1.509   4.881   2.714 -0.4721 -0.3946  0.4270
 2606TIP3    H129233   1.438   4.930   2.756  1.0256  0.9388  1.4895
 2606TIP3    H229234   1.533   4.933   2.638 -0.5944 -0.8213  0.0940
 2607TIP3   OH229235   6.767   5.580  16.005  0.0849 -0.4933  0.7039
 2607TIP3    H129236   6.791   5.591  15.913 -3.1790  1.8907  0.0909
 2607TIP3    H229237   6.748   5.486  16.013  1.3248 -0.8975 -0.7891
 2608TIP3   OH229238   3.924   0.482   6.554 -0.0862 -0.6125  0.3442
 2608TIP3    H129239   3.979   0.542   6.605 -0.1429 -0.3735  0.1221
 2608TIP3    H229240   3.873   0.539   6.497 -0.4671 -0.8436  0.4529
 2609TIP3   OH229241   4.394   4.987   5.065  0.1634  0.0953 -0.5226
 2609TIP3    H129242   4.489   4.978   5.074  0.2678 -1.0045 -2.6015
 2609TIP3    H229243   4.358   4.910   5.111  0.2357  0.8767  0.8643
 2610TIP3   OH229244   0.073   4.274   0.694 -0.1797 -0.4516  0.2843
 2610TIP3    H129245   0.106   4.349   0.744  1.8618 -2.2499  1.7450
 2610TIP3    H229246  -0.018   4.265   0.721 -0.0552  0.6829  1.1036
 2611TIP3   OH229247   6.470   2.317   2.578  0.1453  0.7579 -0.4474
 2611TIP3    H129248   6.412   2.262   2.631  0.1431  1.4712  0.3130
 2611TIP3    H229249   6.541   2.341   2.638  0.6489  0.7856 -1.0552
 2612TIP3   OH229250   4.459   3.951   2.953  0.0295 -0.3677  0.5982
 2612TIP3    H129251   4.394   3.881   2.965 -1.1412  0.4130 -0.9785
 2612TIP3    H229252   4.537   3.920   2.998 -1.0921 -1.8336  1.5660
 2613TIP3   OH229253   2.757   5.105   2.916 -0.1620 -0.0894  0.1274
 2613TIP3    H129254   2.709   5.023   2.925 -0.6843  0.2232  0.1992
 2613TIP3    H229255   2.810   5.094   2.837 -0.5609 -0.3247 -0.1077
 2614TIP3   OH229256   0.026   1.072  14.879 -0.5248 -0.3419 -0.1282
 2614TIP3    H129257   0.102   1.049  14.826 -0.1353  2.2902 -0.7880
 2614TIP3    H229258   0.034   1.018  14.957  1.7845 -0.3936 -0.3762
 2615TIP3   OH229259   4.676   5.865   0.528 -0.0596  0.4977 -0.0688
 2615TIP3    H129260   4.701   5.802   0.461 -0.3922  0.2841  0.0081
 2615TIP3    H229261   4.708   5.949   0.495  0.4163  0.2808 -0.1516
 2616TIP3   OH229262   0.363   0.046   4.677 -0.2172 -0.3877  0.2187
 2616TIP3    H129263   0.329   0.094   4.601  0.0069 -0.4436  0.0827
 2616TIP3    H229264   0.312  -0.035   4.679 -1.1571  0.2083  0.9300
 2617TIP3   OH229265   0.225   2.008  14.842 -0.2485 -0.1372 -0.3977
 2617TIP3    H129266   0.265   2.095  14.844  0.1287 -0.3305  1.9597
 2617TIP3    H229267   0.137   2.021  14.878 -0.7619 -0.4703 -1.5071
 2618TIP3   OH229268   0.261   5.332  14.086 -0.2327  0.1329  0.8592
 2618TIP3    H129269   0.289   5.412  14.129  0.2214 -0.0482  0.8989
 2618TIP3    H229270   0.336   5.273  14.092  0.0761  0.3433 -0.7866
 2619TIP3   OH229271   5.228   6.071  14.294  0.1213  0.0849 -0.0131
 2619TIP3    H129272   5.248   5.979  14.275  0.8742  0.1632  0.3817
 2619TIP3    H229273   5.180   6.068  14.377 -0.1944  0.0150 -0.1989
 2620TIP3   OH229274   3.659   6.057  16.897 -0.2846 -0.0093 -0.3806
 2620TIP3    H129275   3.629   5.999  16.827 -0.1190 -1.7784  0.9764
 2620TIP3    H229276   3.583   6.111  16.917 -0.2128  0.8023 -2.1977
 2621TIP3   OH229277   6.066   0.768   4.486 -0.0693  0.2633  0.0512
 2621TIP3    H129278   6.136   0.832   4.497 -0.1927  0.1415  1.7135
 2621TIP3    H229279   6.014   0.802   4.414 -0.6621  2.5497  1.4904
 2622TIP3   OH229280   0.643   6.610  12.524 -0.0848 -0.4269  0.4069
 2622TIP3    H129281   0.681   6.678  12.468  0.1968 -0.7606  0.1872
 2622TIP3    H229282   0.665   6.528  12.480  0.4316 -0.7125  1.1865
 2623TIP3   OH229283   1.527   5.226   1.299 -0.3046  0.0335 -0.3180
 2623TIP3    H129284   1.584   5.185   1.233  0.5780  0.2716  0.2800
 2623TIP3    H229285   1.476   5.154   1.335  2.9973 -1.0758  2.4998
 2624TIP3   OH229286   2.429   1.720  15.580 -0.1115  0.3635  0.1209
 2624TIP3    H129287   2.458   1.741  15.669 -0.5935 -0.6664  0.5285
 2624TIP3    H229288   2.334   1.734  15.581 -0.1689  0.0218 -0.1288
 2625TIP3   OH229289   2.632   0.044  11.000 -0.0561 -0.7066  0.7282
 2625TIP3    H129290   2.690  -0.007  10.943 -1.6787 -0.4176 -1.2400
 2625TIP3    H229291   2.674   0.130  11.005 -0.7362 -0.1978 -1.4628
 2626TIP3   OH229292   3.515   5.986  13.860 -0.2364  0.1707 -0.1173
 2626TIP3    H129293   3.606   5.971  13.886 -0.2019  0.7711  0.1262
 2626TIP3    H229294   3.467   5.911  13.895 -0.0550  0.5645  0.9999
 2627TIP3   OH229295   6.721   3.643   2.502  0.4231  0.3509  0.5409
 2627TIP3    H129296   6.769   3.642   2.419  0.4266 -1.6186  0.5401
 2627TIP3    H229297   6.778   3.596   2.563  0.7994  2.4835  1.9134
 2628TIP3   OH229298   5.652   6.238   2.388  0.2518  0.3271 -0.3732
 2628TIP3    H129299   5.560   6.216   2.383 -0.1934  2.1555 -0.7533
 2628TIP3    H229300   5.654   6.334   2.381  2.1089  0.3725  0.4067
 2629TIP3   OH229301   1.596   5.944   0.874  0.1184  0.1626 -0.2741
 2629TIP3    H129302   1.689   5.964   0.887 -0.6988  3.5902  0.9422
 2629TIP3    H229303   1.590   5.917   0.782  2.1971  0.5817 -0.5692
 2630TIP3   OH229304   4.942   2.609  12.223  1.0997  0.6361  0.1628
 2630TIP3    H129305   4.911   2.524  12.254 -0.9766  1.0801 -0.6433
 2630TIP3    H229306   5.012   2.587  12.161  0.5088 -0.4806 -0.1188
 2631TIP3   OH229307   1.916   0.773   5.077 -0.2863 -0.2891  0.2150
 2631TIP3    H129308   1.987   0.830   5.049 -1.9147  1.5725 -0.2797
 2631TIP3    H229309   1.862   0.762   4.999 -0.7511 -1.3863  0.6766
 2632TIP3   OH229310   5.090   5.156  11.744 -0.1952  0.5630  0.0345
 2632TIP3    H129311   5.169   5.207  11.729 -0.6713  0.9203 -1.3187
 2632TIP3    H229312   5.029   5.217  11.786 -0.1330  0.5867  0.0893
 2633TIP3   OH229313   5.415   0.953  13.545  0.1346  0.2111  0.5076
 2633TIP3    H129314   5.429   0.932  13.452  1.3823  0.5058  0.6111
 2633TIP3    H229315   5.320   0.958  13.555 -0.0189 -0.1731 -0.6789
 2634TIP3   OH229316   2.019   3.218  12.019 -0.3148 -0.0915  0.0852
 2634TIP3    H129317   2.031   3.143  11.960 -0.5987  0.4015 -0.5977
 2634TIP3    H229318   1.955   3.273  11.974  0.0426  0.6572  0.5050
 2635TIP3   OH229319   6.779   6.610  16.138  0.2197 -0.1430  0.2383
 2635TIP3    H129320   6.767   6.555  16.215 -0.8528 -0.7230 -0.3424
 2635TIP3    H229321   6.713   6.679  16.147  0.4875  0.1308  0.1350
 2636TIP3   OH229322   4.406   5.429  12.328  0.0025  0.1847 -0.1540
 2636TIP3    H129323   4.392   5.523  12.316  0.3373 -0.0256 -2.4414
 2636TIP3    H229324   4.487   5.423  12.378 -0.6357  1.1245  1.0216
 2637TIP3   OH229325   2.428   6.642  16.427 -0.1917 -0.3868  0.2415
 2637TIP3    H129326   2.425   6.550  16.401  0.0313 -0.9655  2.1731
 2637TIP3    H229327   2.460   6.688  16.349 -0.5419 -1.9073 -0.8207
 2638TIP3   OH229328   1.993   3.678  12.905 -0.2464 -0.0793  0.4122
 2638TIP3    H129329   1.946   3.660  12.824  0.1675 -1.1940  0.4177
 2638TIP3    H229330   2.013   3.592  12.942  0.7907  0.3899  0.9882
 2639TIP3   OH229331   0.766   4.492  12.198  0.2318  0.3948 -0.5458
 2639TIP3    H129332   0.774   4.411  12.146 -1.3599 -0.1833  0.0709
 2639TIP3    H229333   0.742   4.462  12.285 -1.2463  1.5680 -0.5267
 2640TIP3   OH229334   4.075   0.515  11.349  0.5281 -0.4880 -0.5084
 2640TIP3    H129335   4.156   0.478  11.315 -0.2756 -0.4104 -2.5982
 2640TIP3    H229336   4.101   0.597  11.391  1.7586 -1.3865  0.5149
 2641TIP3   OH229337   1.271   3.978  12.600  0.1067 -0.2724  0.1279
 2641TIP3    H129338   1.280   4.007  12.510  2.1005  0.8782  0.6798
 2641TIP3    H229339   1.179   3.953  12.608  0.0450 -0.8822 -2.3495
 2642TIP3   OH229340   3.484   1.543  12.865 -0.5486 -0.1594  0.2244
 2642TIP3    H129341   3.446   1.570  12.949 -1.1173  2.1877 -0.7413
 2642TIP3    H229342   3.411   1.547  12.803  0.2532 -0.0886 -0.7321
 2643TIP3   OH229343   6.530   2.147   5.283 -0.6055  0.0363  0.2975
 2643TIP3    H129344   6.612   2.104   5.257  0.2016  0.7528  1.5550
 2643TIP3    H229345   6.466   2.076   5.288  0.1481 -0.6672  0.1148
 2644TIP3   OH229346   4.874   2.456   3.535 -0.1931 -0.0788  0.5703
 2644TIP3    H129347   4.938   2.464   3.606  0.6062  1.2232 -0.2642
 2644TIP3    H229348   4.849   2.364   3.535  1.9790 -0.6953  0.6581
 2645TIP3   OH229349   0.918   2.254   5.662 -0.6187  1.0338  0.6823
 2645TIP3    H129350   0.982   2.219   5.600 -0.2938  2.6527  0.0830
 2645TIP3    H229351   0.889   2.178   5.713  0.0932 -0.0868 -0.5710
 2646TIP3   OH229352   5.038   3.495  12.457  0.2412 -0.0639  0.0460
 2646TIP3    H129353   4.961   3.493  12.400  0.3179 -1.6223 -0.0223
 2646TIP3    H229354   5.051   3.588  12.477 -1.9713  0.1894  0.4730
 2647TIP3   OH229355   3.738   6.104  16.018  0.2163 -0.7878  0.3057
 2647TIP3    H129356   3.678   6.074  15.950  0.3256 -0.0999 -0.0919
 2647TIP3    H229357   3.793   6.170  15.976  2.0466 -2.2344  0.3338
 2648TIP3   OH229358   4.305   3.682  13.850 -0.4370 -0.2202  0.7602
 2648TIP3    H129359   4.250   3.760  13.865  1.7929  1.4726  0.4427
 2648TIP3    H229360   4.375   3.690  13.916  0.1455 -1.6494  0.3237
 2649TIP3   OH229361   0.649   0.854   3.895  0.2224 -0.0324 -0.3242
 2649TIP3    H129362   0.681   0.936   3.857 -0.6545  1.1269  1.3539
 2649TIP3    H229363   0.572   0.831   3.843 -1.1378  1.6939  0.8452
 2650TIP3   OH229364   0.932   4.618  15.673  0.5626 -0.4956 -0.1075
 2650TIP3    H129365   1.014   4.605  15.721  1.0354  0.2749 -0.6923
 2650TIP3    H229366   0.958   4.666  15.594 -0.4853 -0.0965 -0.2148
 2651TIP3   OH229367   1.405   0.841   1.764 -0.5544  0.5445  0.0290
 2651TIP3    H129368   1.441   0.930   1.760  1.7383 -0.1405  3.4048
 2651TIP3    H229369   1.319   0.852   1.804  0.3869  1.1299  1.9529
 2652TIP3   OH229370   2.816   4.526  10.542 -0.2413 -0.3575 -0.4790
 2652TIP3    H129371   2.728   4.563  10.541 -0.0392  0.1381 -1.1376
 2652TIP3    H229372   2.823   4.479  10.459 -1.0368 -3.2483  1.0225
 2653TIP3   OH229373   4.472   3.444   3.818  1.1894 -0.2508 -0.3260
 2653TIP3    H129374   4.550   3.486   3.782  0.1453  1.1824 -0.9621
 2653TIP3    H229375   4.419   3.421   3.741  0.3953 -0.0449  0.1544
 2654TIP3   OH229376   5.227   3.775  11.485  0.2726 -0.2726  0.3696
 2654TIP3    H129377   5.320   3.757  11.498 -0.2173 -2.4589  0.9841
 2654TIP3    H229378   5.188   3.763  11.571 -0.8421 -1.0065 -0.2300
 2655TIP3   OH229379   2.787   1.811   1.423 -0.8917  0.3321  0.0653
 2655TIP3    H129380   2.741   1.814   1.507 -0.5772  0.9666  0.2099
 2655TIP3    H229381   2.802   1.902   1.399  1.5731  0.1475  0.7222
 2656TIP3   OH229382   4.134   0.009  13.509 -0.2633  0.1196  0.0813
 2656TIP3    H129383   4.219   0.046  13.532 -0.0848  0.3587 -0.9600
 2656TIP3    H229384   4.096  -0.017  13.593  1.2856 -1.0008  0.4464
 2657TIP3   OH229385   4.673   0.250  12.101  0.0782 -0.2202 -0.1073
 2657TIP3    H129386   4.672   0.345  12.090  0.6143 -0.2898 -0.7996
 2657TIP3    H229387   4.711   0.217  12.019 -0.5852 -1.0545 -0.0862
 2658TIP3   OH229388   5.035   6.539  12.916  0.3770  0.2314  0.0421
 2658TIP3    H129389   5.109   6.481  12.899  0.5020  0.6178 -0.7450
 2658TIP3    H229390   4.969   6.482  12.957  0.8608 -0.2482  0.1654
 2659TIP3   OH229391   3.729   2.576  11.477  0.1054 -0.6985  0.2618
 2659TIP3    H129392   3.679   2.616  11.405  0.8822  0.5781  0.4064
 2659TIP3    H229393   3.776   2.650  11.517  2.4817 -1.9261 -0.1852
 2660TIP3   OH229394   6.004   6.639   9.978 -0.1246 -0.3345  0.1567
 2660TIP3    H129395   5.989   6.646  10.072  0.2149 -2.1194  0.3706
 2660TIP3    H229396   6.071   6.704   9.959 -1.1817  0.9907  0.8992
 2661TIP3   OH229397   1.710   1.595   0.749 -0.2511  0.6642 -0.5896
 2661TIP3    H129398   1.736   1.528   0.685 -1.5874  0.9828 -1.4744
 2661TIP3    H229399   1.693   1.545   0.829  1.9788  0.3250 -0.2790
 2662TIP3   OH229400   3.776   5.609   5.645 -0.2394 -0.0733  0.3079
 2662TIP3    H129401   3.722   5.548   5.695 -1.7395  0.5767 -0.4692
 2662TIP3    H229402   3.843   5.554   5.603 -0.7646 -1.0026  0.6764
 2663TIP3   OH229403   2.940   3.385   5.367 -0.3649 -0.0755  0.5083
 2663TIP3    H129404   2.929   3.449   5.437 -0.9455 -1.0341  1.3169
 2663TIP3    H229405   3.023   3.408   5.326  0.2498  0.1693  1.8567
 2664TIP3   OH229406   5.514   2.711  15.982 -0.1114 -0.1664 -0.1719
 2664TIP3    H129407   5.559   2.668  16.054  1.4485  0.0115 -1.0339
 2664TIP3    H229408   5.539   2.662  15.905 -3.8007 -1.9832 -0.3509
 2665TIP3   OH229409   4.976   6.311  14.422  0.2222 -0.0022  0.1759
 2665TIP3    H129410   5.058   6.346  14.457 -0.1080 -0.1496  1.1016
 2665TIP3    H229411   4.923   6.388  14.401  1.0701  0.1256 -1.5953
 2666TIP3   OH229412   1.769   1.877  13.329 -0.0948  0.0488 -0.6717
 2666TIP3    H129413   1.727   1.830  13.401 -0.8231 -0.3044 -1.3283
 2666TIP3    H229414   1.836   1.931  13.372  0.4914 -1.2780  0.1142
 2667TIP3   OH229415   4.519   4.591  14.383  0.0152  0.5935  0.9237
 2667TIP3    H129416   4.498   4.596  14.290  0.2642  2.8816  0.9622
 2667TIP3    H229417   4.534   4.498  14.399 -1.0138  0.0425 -1.0960
 2668TIP3   OH229418   2.925   6.572  15.227 -0.3118 -0.3653 -0.5486
 2668TIP3    H129419   2.941   6.500  15.288  1.5840 -0.6102 -1.2890
 2668TIP3    H229420   2.984   6.642  15.256  0.2920 -0.3289 -1.8239
 2669TIP3   OH229421   0.717   2.427   4.631 -0.2636  0.2542  0.2625
 2669TIP3    H129422   0.771   2.369   4.577 -0.2207 -0.9823  1.6100
 2669TIP3    H229423   0.627   2.410   4.602 -0.2651 -0.6099  0.7644
 2670TIP3   OH229424   2.216   0.050  12.429 -0.5936 -0.2501 -0.4788
 2670TIP3    H129425   2.198   0.026  12.520  1.5251 -0.4233 -0.0885
 2670TIP3    H229426   2.311   0.060  12.425 -0.6010 -0.8875 -2.8478
 2671TIP3   OH229427   0.778   6.374  15.956 -0.1796 -0.3536 -0.0491
 2671TIP3    H129428   0.799   6.364  15.863 -0.5643  1.1564 -0.3170
 2671TIP3    H229429   0.734   6.293  15.979  1.7211 -1.5994 -0.6654
 2672TIP3   OH229430   1.852   4.716  16.580 -0.1823  0.0425 -0.0010
 2672TIP3    H129431   1.874   4.758  16.497 -1.8527  1.3159  0.1560
 2672TIP3    H229432   1.833   4.625  16.557 -0.2096  0.2845 -0.9528
 2673TIP3   OH229433   6.475   5.191   3.191  0.4422  0.2097 -0.1381
 2673TIP3    H129434   6.403   5.135   3.217  0.3203 -0.2617 -1.4441
 2673TIP3    H229435   6.432   5.267   3.150  0.6547  0.4089  0.0084
 2674TIP3   OH229436   3.076   3.483  14.639  0.0161  0.7431  0.1800
 2674TIP3    H129437   2.991   3.442  14.657  0.2722  0.6780  1.2718
 2674TIP3    H229438   3.084   3.479  14.544 -2.1228  2.6126 -0.1185
 2675TIP3   OH229439   4.161   5.365  11.237 -0.2207  0.4398  0.3109
 2675TIP3    H129440   4.190   5.448  11.273  2.5699  0.0295 -0.8778
 2675TIP3    H229441   4.220   5.300  11.276 -0.8934 -0.6984 -0.5469
 2676TIP3   OH229442   0.029   3.770  13.437  0.2099 -0.2392 -0.4122
 2676TIP3    H129443   0.106   3.736  13.391 -0.1738  0.9194 -1.9605
 2676TIP3    H229444  -0.009   3.695  13.481  1.4958 -1.0734 -0.7148
 2677TIP3   OH229445   1.600   0.087  11.686  0.6235  0.1534  0.1878
 2677TIP3    H129446   1.573   0.168  11.729  3.8721  1.1791  0.4510
 2677TIP3    H229447   1.658   0.116  11.615 -0.8906 -1.7865 -1.9263
 2678TIP3   OH229448   5.071   1.401  16.494 -0.7289  0.1890 -0.0595
 2678TIP3    H129449   5.140   1.382  16.430 -0.5903 -0.8309  0.3760
 2678TIP3    H229450   5.060   1.496  16.490  2.2457  0.6504  1.4245
 2679TIP3   OH229451   1.714   3.815   0.557 -0.2244  0.0166  0.3030
 2679TIP3    H129452   1.704   3.735   0.504 -0.6410  0.1162  0.2254
 2679TIP3    H229453   1.625   3.850   0.563  0.4915  2.6227 -2.9900
 2680TIP3   OH229454   1.484   2.394   6.610  0.7656  0.3802  0.4165
 2680TIP3    H129455   1.430   2.322   6.576 -2.6033  2.3088  1.4860
 2680TIP3    H229456   1.457   2.405   6.701  0.8738  3.3011  0.1497
 2681TIP3   OH229457   3.877   4.608  14.130  0.0153 -0.4191 -0.0674
 2681TIP3    H129458   3.828   4.631  14.051 -0.1391 -1.0999 -0.1800
 2681TIP3    H229459   3.811   4.573  14.189  0.3950 -1.5764 -0.3132
 2682TIP3   OH229460   3.182   3.961   4.744  0.5006  0.6623  0.0827
 2682TIP3    H129461   3.118   3.964   4.672  3.3014  0.9164 -2.5189
 2682TIP3    H229462   3.150   3.891   4.801 -0.3409 -1.4707 -2.8852
 2683TIP3   OH229463   1.439   2.152  12.350 -0.2157 -0.6092 -0.3427
 2683TIP3    H129464   1.362   2.096  12.341  0.1663 -1.2485  0.2993
 2683TIP3    H229465   1.426   2.221  12.285 -1.2541 -0.7922 -0.3433
 2684TIP3   OH229466   0.193   0.991  16.568 -0.4039  0.2317 -0.6643
 2684TIP3    H129467   0.120   0.931  16.552 -0.2694  0.6051 -2.7718
 2684TIP3    H229468   0.153   1.066  16.611 -0.6680 -1.0812  1.4632
 2685TIP3   OH229469   3.646   5.682  14.042 -0.2477 -0.2543 -0.0444
 2685TIP3    H129470   3.676   5.627  14.114  0.6117  0.7554  0.3845
 2685TIP3    H229471   3.716   5.679  13.977  0.5701  1.6525  0.7098
 2686TIP3   OH229472   5.622   1.951  11.905 -0.0789 -0.6710  0.6548
 2686TIP3    H129473   5.629   2.039  11.869 -0.9213 -0.9495 -0.2057
 2686TIP3    H229474   5.707   1.910  11.887 -0.3087 -0.6282 -0.5353
 2687TIP3   OH229475   3.583   6.555   1.937 -0.1397  0.6245  0.0505
 2687TIP3    H129476   3.489   6.546   1.923 -0.3460  2.5003  0.1131
 2687TIP3    H229477   3.594   6.642   1.977  1.7649  1.1409 -1.4839
 2688TIP3   OH229478   1.294   1.361  14.384 -0.0693 -0.2849 -0.5755
 2688TIP3    H129479   1.218   1.305  14.366 -0.5072  0.6678 -1.8042
 2688TIP3    H229480   1.298   1.420  14.308  2.8053 -1.3182 -1.2810
 2689TIP3   OH229481   3.357   1.607  13.099 -0.0153  0.1399 -0.2143
 2689TIP3    H129482   3.310   1.596  13.182 -0.2402 -0.5397 -0.4309
 2689TIP3    H229483   3.311   1.679  13.056 -0.6581 -0.2912 -0.2708
 2690TIP3   OH229484   0.625   6.097  12.412  0.0319  0.7839 -0.1095
 2690TIP3    H129485   0.701   6.061  12.457 -1.0490  1.0648  1.9977
 2690TIP3    H229486   0.607   6.034  12.342  0.3164 -0.9195  1.3297
 2691TIP3   OH229487   5.985   3.774  16.598  0.2159 -0.0170 -0.1108
 2691TIP3    H129488   5.893   3.784  16.623  0.0536 -1.9371  0.1483
 2691TIP3    H229489   6.024   3.725  16.670  1.4482  0.7996 -0.2186
 2692TIP3   OH229490   2.070   0.452  16.868 -0.6139 -0.3333 -0.0525
 2692TIP3    H129491   2.006   0.390  16.902 -0.0260  0.1019  1.9307
 2692TIP3    H229492   2.054   0.532  16.917  0.1117  0.4106 -1.0068
 2693TIP3   OH229493   0.173   4.329   3.867  0.2921  0.1076  0.4690
 2693TIP3    H129494   0.164   4.393   3.797  1.8553  0.5065  0.6222
 2693TIP3    H229495   0.165   4.380   3.948  2.0883  0.2331  0.5980
 2694TIP3   OH229496   1.040   1.951   2.318 -0.2326  0.5273 -0.4122
 2694TIP3    H129497   1.020   2.044   2.312  0.6122  0.6185 -2.1529
 2694TIP3    H229498   1.134   1.945   2.303  0.0478 -0.4567  1.5397
 2695TIP3   OH229499   4.491   0.620  10.850 -0.1517  0.1043 -0.3076
 2695TIP3    H129500   4.479   0.616  10.755 -0.1251 -0.3319 -0.2916
 2695TIP3    H229501   4.526   0.708  10.865 -1.7237  0.7767 -0.5263
 2696TIP3   OH229502   6.101   1.309   3.124  0.3878 -0.3305 -0.1814
 2696TIP3    H129503   6.091   1.316   3.029  0.4336  0.6356 -0.1240
 2696TIP3    H229504   6.192   1.334   3.140  0.6235 -1.3077  0.0424
 2697TIP3   OH229505   3.936   0.244   5.985 -0.2003  0.2114  0.5537
 2697TIP3    H129506   3.893   0.325   6.013 -3.2975 -1.7089  1.6039
 2697TIP3    H229507   3.912   0.180   6.051  2.5346 -1.5313 -0.0620
 2698TIP3   OH229508   2.005   0.558   1.331 -0.0289 -0.0785  0.2546
 2698TIP3    H129509   2.067   0.597   1.394 -1.6764  2.8195  0.1565
 2698TIP3    H229510   1.947   0.505   1.385 -0.0181  0.5412  0.8827
 2699TIP3   OH229511   0.766   5.066   4.656 -0.3559 -0.1512 -0.3698
 2699TIP3    H129512   0.862   5.071   4.657 -0.3132 -0.7736 -1.1393
 2699TIP3    H229513   0.744   5.000   4.721 -0.3282  0.8425  0.6730
 2700TIP3   OH229514   5.827   1.797  14.786 -0.4175 -0.2873 -0.7926
 2700TIP3    H129515   5.912   1.761  14.763 -0.3566  0.1059 -1.2016
 2700TIP3    H229516   5.775   1.789  14.706 -0.2549  0.9544 -1.0269
 2701TIP3   OH229517   3.320   6.541   1.912 -0.1785 -0.1571  0.3573
 2701TIP3    H129518   3.287   6.570   1.827  0.3464  1.7768  0.8003
 2701TIP3    H229519   3.245   6.551   1.971 -0.7170 -2.0393  0.0519
 2702TIP3   OH229520   5.171   6.587  15.514 -0.5773 -0.1177  0.5847
 2702TIP3    H129521   5.158   6.613  15.605  0.6468  0.5231  0.5799
 2702TIP3    H229522   5.085   6.601  15.473 -1.2908 -0.9481  1.7504
 2703TIP3   OH229523   5.331   5.169   5.741 -0.1129  0.4678  0.0680
 2703TIP3    H129524   5.393   5.223   5.693 -0.2876  0.2085 -0.4509
 2703TIP3    H229525   5.379   5.088   5.758 -0.5808 -0.0601 -1.0635
 2704TIP3   OH229526   4.651   3.586  11.239  0.1018 -1.1110  0.9456
 2704TIP3    H129527   4.607   3.554  11.317 -0.3086 -1.7521  0.4489
 2704TIP3    H229528   4.704   3.513  11.209 -0.3836 -1.1434  0.1464
 2705TIP3   OH229529   2.361   6.245   5.913  0.0730 -0.4759  0.3823
 2705TIP3    H129530   2.373   6.153   5.888  1.3560  0.0759 -1.1351
 2705TIP3    H229531   2.353   6.242   6.009 -1.1781 -2.2762  0.2589
 2706TIP3   OH229532   0.629   1.613   4.014 -0.2254  0.1319 -1.1937
 2706TIP3    H129533   0.614   1.644   4.104 -0.4898 -1.8005 -0.5560
 2706TIP3    H229534   0.654   1.692   3.966 -0.0947  1.2031  0.5721
 2707TIP3   OH229535   1.399   6.753   1.339 -0.5765 -0.7167  0.5457
 2707TIP3    H129536   1.469   6.768   1.275 -1.6315 -1.6124 -0.8485
 2707TIP3    H229537   1.444   6.713   1.413  0.8937  1.6443  0.9737
 2708TIP3   OH229538   1.241   0.490  13.203  0.2209  0.2216 -0.4408
 2708TIP3    H129539   1.301   0.553  13.242  0.1039 -0.0221  0.1336
 2708TIP3    H229540   1.159   0.538  13.193 -0.5787 -0.5447  2.2452
 2709TIP3   OH229541   3.062   5.983   0.640 -0.0838  0.3534  0.2687
 2709TIP3    H129542   3.135   6.041   0.662 -1.4693  1.4127  2.1393
 2709TIP3    H229543   3.089   5.941   0.558  2.4086  1.0859  0.6835
 2710TIP3   OH229544   0.925   6.450  15.154  0.0807 -0.3425 -0.8713
 2710TIP3    H129545   0.943   6.496  15.236  1.5254 -0.4338 -1.1250
 2710TIP3    H229546   0.984   6.490  15.090  1.0995 -2.2907 -1.1780
 2711TIP3   OH229547   2.468   4.672   3.407  0.2556  0.4885 -0.4909
 2711TIP3    H129548   2.481   4.586   3.447  2.1312  0.2477 -1.5559
 2711TIP3    H229549   2.377   4.672   3.377 -0.0123 -0.7894  0.2964
 2712TIP3   OH229550   6.262   4.016  10.887 -0.6891 -0.0318 -0.1463
 2712TIP3    H129551   6.323   4.083  10.916  1.0888 -1.9500  0.6888
 2712TIP3    H229552   6.177   4.044  10.920  0.1029  1.5691  0.5496
 2713TIP3   OH229553   1.018   2.028  12.990 -0.0981  0.0060  0.2395
 2713TIP3    H129554   1.111   2.051  12.997 -0.0389 -0.6824  2.2758
 2713TIP3    H229555   0.978   2.067  13.068 -1.8495  1.7580 -1.5136
 2714TIP3   OH229556   5.886   1.588  11.946  0.5357 -0.0385  0.3537
 2714TIP3    H129557   5.834   1.571  12.025 -3.0667  0.6612 -1.7491
 2714TIP3    H229558   5.885   1.683  11.936  0.3000 -0.1637 -0.9388
 2715TIP3   OH229559   0.014   4.123   5.344  0.0594 -0.0664 -0.1316
 2715TIP3    H129560  -0.040   4.179   5.288 -0.0043 -1.8125 -1.8661
 2715TIP3    H229561   0.040   4.180   5.416 -0.4931  2.0276 -1.5333
 2716TIP3   OH229562   0.101   1.644   3.155  0.3800 -0.0440  0.3067
 2716TIP3    H129563   0.091   1.582   3.227  1.9850  1.1704  1.5811
 2716TIP3    H229564   0.153   1.596   3.089 -1.7925 -1.4430 -0.4459
 2717TIP3   OH229565   4.569   0.740   0.872  0.3871  0.0978 -0.6458
 2717TIP3    H129566   4.502   0.760   0.807 -0.3476 -2.2908 -0.6641
 2717TIP3    H229567   4.618   0.822   0.882 -1.6630  1.4749 -1.6287
 2718TIP3   OH229568   5.745   5.805   1.464  0.4198 -0.7355 -0.0107
 2718TIP3    H129569   5.806   5.781   1.533  0.8483  0.1401 -0.0746
 2718TIP3    H229570   5.763   5.898   1.447 -0.0933 -0.7843 -0.8715
 2719TIP3   OH229571   3.994   3.955  13.175 -0.2174 -0.4436 -0.6672
 2719TIP3    H129572   4.035   4.032  13.137 -0.4787 -0.1519 -0.3695
 2719TIP3    H229573   3.928   3.929  13.111 -1.0280  0.3685 -0.1773
 2720TIP3   OH229574   5.167   2.730   3.764  0.4248 -0.2362 -0.4433
 2720TIP3    H129575   5.125   2.652   3.726 -1.1170 -0.2540  1.2168
 2720TIP3    H229576   5.230   2.694   3.827  0.5585 -0.1587 -0.5336
 2721TIP3   OH229577   3.605   4.162   0.821  0.3604  0.4249 -0.1867
 2721TIP3    H129578   3.696   4.135   0.812  0.3674 -0.9706  3.2540
 2721TIP3    H229579   3.556   4.099   0.768  1.1834 -0.4689  0.1100
 2722TIP3   OH229580   3.253   1.525  10.885 -0.3550  0.4718 -0.0867
 2722TIP3    H129581   3.198   1.453  10.916 -0.0339  0.6025  0.7877
 2722TIP3    H229582   3.275   1.575  10.964  0.5636  0.7413 -0.5064
 2723TIP3   OH229583   2.666   4.345  16.476 -0.2023  0.0771  0.3372
 2723TIP3    H129584   2.571   4.335  16.490 -0.2176 -0.9868 -0.4409
 2723TIP3    H229585   2.673   4.372  16.384  0.3521 -1.8782 -0.1998
 2724TIP3   OH229586   0.176   4.687  14.671 -0.2547 -0.6291 -0.2201
 2724TIP3    H129587   0.139   4.606  14.636  0.4155 -1.0526  0.0551
 2724TIP3    H229588   0.118   4.755  14.638 -0.3133 -1.1387 -1.1900
 2725TIP3   OH229589   2.421   1.620   4.674 -0.0241  1.0464 -0.0081
 2725TIP3    H129590   2.403   1.559   4.745  0.6976  2.2436  1.2116
 2725TIP3    H229591   2.334   1.643   4.640 -0.5407  2.4641  2.1955
 2726TIP3   OH229592   3.248   4.473  17.021  0.5366 -0.0502 -1.0066
 2726TIP3    H129593   3.239   4.396  16.965 -1.7217 -1.2597  0.9355
 2726TIP3    H229594   3.340   4.472  17.048  0.2010 -3.0276  0.2601
 2727TIP3   OH229595   5.590   2.906  14.513 -0.1835  0.4617  0.7578
 2727TIP3    H129596   5.568   2.840  14.448  1.5182 -0.3855  1.0226
 2727TIP3    H229597   5.578   2.862  14.597  1.7213  0.2197  0.9205
 2728TIP3   OH229598   0.397   2.657  11.233  0.2457 -0.3944 -0.1704
 2728TIP3    H129599   0.449   2.620  11.162 -0.0285  0.0024 -0.5816
 2728TIP3    H229600   0.326   2.704  11.189 -0.8762 -1.5188  0.3885
 2729TIP3   OH229601   6.211   6.662   3.615  0.0537 -0.8399  0.0646
 2729TIP3    H129602   6.293   6.711   3.614 -1.7689  2.3996  1.7301
 2729TIP3    H229603   6.224   6.593   3.680  1.4293 -0.2848  0.3815
 2730TIP3   OH229604   0.728   5.273  13.998 -0.2603  0.0823 -0.0704
 2730TIP3    H129605   0.653   5.215  14.012 -1.1112  1.5550  1.6594
 2730TIP3    H229606   0.799   5.233  14.049 -0.1488 -0.7843 -0.9074
 2731TIP3   OH229607   3.617   2.807  13.616 -0.0665  0.1123 -0.0133
 2731TIP3    H129608   3.612   2.839  13.706 -0.1228 -1.5217  0.5943
 2731TIP3    H229609   3.592   2.715  13.622 -0.2606  0.0299 -1.7370
 2732TIP3   OH229610   4.129   2.551  16.211  0.7984 -0.4876 -0.5022
 2732TIP3    H129611   4.043   2.509  16.203  0.4831  0.1001 -0.2243
 2732TIP3    H229612   4.113   2.628  16.267  1.5138 -0.4079 -0.4055
 2733TIP3   OH229613   2.112   4.205  13.197 -0.0937  0.0304  0.4503
 2733TIP3    H129614   2.102   4.254  13.279  1.4246  1.3687 -0.1445
 2733TIP3    H229615   2.101   4.113  13.223 -1.0145  0.5293  1.9044
 2734TIP3   OH229616   2.995   5.910  16.889  0.3238 -0.2126 -0.0625
 2734TIP3    H129617   3.079   5.929  16.931 -0.5565  1.6338  0.9218
 2734TIP3    H229618   2.959   5.837  16.939  1.1017 -0.6820 -0.1703
 2735TIP3   OH229619   6.605   4.682  12.916 -0.5508 -0.0992  0.3039
 2735TIP3    H129620   6.688   4.722  12.892 -0.4819  0.1817  0.9811
 2735TIP3    H229621   6.554   4.754  12.954 -0.5612 -0.5623  1.2002
 2736TIP3   OH229622   5.075   5.103   0.697 -0.1197 -0.0260  0.1293
 2736TIP3    H129623   5.095   5.077   0.786 -1.2705 -0.7686  0.1672
 2736TIP3    H229624   5.071   5.021   0.648 -0.7029  0.2935 -0.3608
 2737TIP3   OH229625   1.719   4.525  10.326 -0.0974 -0.8655 -0.0406
 2737TIP3    H129626   1.705   4.598  10.265  0.2143  0.9486  1.9957
 2737TIP3    H229627   1.752   4.454  10.271  0.3781  0.7833 -1.9536
 2738TIP3   OH229628   1.861   2.326   0.339  0.1687 -0.6541  0.7940
 2738TIP3    H129629   1.917   2.307   0.263 -3.2707 -0.5816 -1.8912
 2738TIP3    H229630   1.883   2.416   0.364  3.4364 -1.6831  1.8424
 2739TIP3   OH229631   1.911   2.509   5.480 -0.1655 -0.3002 -0.0981
 2739TIP3    H129632   1.852   2.459   5.424 -1.1345  0.0780  0.5794
 2739TIP3    H229633   1.916   2.458   5.561  0.3894 -0.3015 -0.1325
 2740TIP3   OH229634   3.431   1.652  17.004 -0.2891 -0.0147  0.4079
 2740TIP3    H129635   3.390   1.581  17.053 -0.3488 -0.4609 -0.2817
 2740TIP3    H229636   3.430   1.622  16.913 -0.8367  1.1203  0.0284
 2741TIP3   OH229637   1.771   0.657   4.814  0.0112 -0.3018 -0.2308
 2741TIP3    H129638   1.716   0.602   4.759  1.8368 -1.6094 -0.7949
 2741TIP3    H229639   1.762   0.745   4.778  0.0896 -0.9090 -1.7544
 2742TIP3   OH229640   5.971   0.344   0.492  0.3689 -0.1382  0.5001
 2742TIP3    H129641   6.040   0.322   0.554  2.0953 -0.8852 -1.5999
 2742TIP3    H229642   5.991   0.292   0.414 -1.2555  1.3567 -0.9726
 2743TIP3   OH229643   0.382   4.590  16.787  0.0361 -0.1991  0.2887
 2743TIP3    H129644   0.469   4.571  16.822 -0.4656  0.8864  2.2147
 2743TIP3    H229645   0.326   4.594  16.865 -1.6205 -0.2870 -0.8872
 2744TIP3   OH229646   4.815   6.071   6.268  0.2687 -1.2751 -0.6643
 2744TIP3    H129647   4.894   6.111   6.231 -0.6489  1.3275  0.1195
 2744TIP3    H229648   4.847   5.995   6.317  2.5499  0.9735  1.4527
 2745TIP3   OH229649   3.035   1.998   3.643  0.3783  0.1739 -0.9660
 2745TIP3    H129650   2.967   1.933   3.662  0.1406  0.2500 -1.5375
 2745TIP3    H229651   3.046   2.046   3.725 -0.1823  0.0916 -0.8386
 2746TIP3   OH229652   6.013   1.234  17.121 -0.6743 -0.1401 -0.2412
 2746TIP3    H129653   6.022   1.201  17.031 -0.9045 -0.1084 -0.2768
 2746TIP3    H229654   6.089   1.292  17.132 -0.0260 -1.0120 -0.0270
 2747TIP3   OH229655   4.404   6.669   5.046 -0.3526 -0.6992  0.0608
 2747TIP3    H129656   4.496   6.643   5.048  0.5383  2.2475 -1.2094
 2747TIP3    H229657   4.367   6.633   5.127  2.0170 -1.4115  0.8523
 2748TIP3   OH229658   3.006   1.749   0.688 -0.5607  0.5221  0.3889
 2748TIP3    H129659   2.954   1.690   0.634 -0.0277  1.4494 -1.2014
 2748TIP3    H229660   2.992   1.836   0.648 -0.1762  1.2282  1.7629
 2749TIP3   OH229661   3.677   4.683   5.492  0.1073 -0.2107 -0.3000
 2749TIP3    H129662   3.585   4.703   5.473  0.5182  0.8631 -1.2461
 2749TIP3    H229663   3.678   4.656   5.584 -1.0316  0.5928 -0.0425
 2750TIP3   OH229664   2.495   1.836  13.814 -0.1264 -0.2883 -0.0340
 2750TIP3    H129665   2.402   1.849  13.833 -0.3720 -0.8284 -0.8697
 2750TIP3    H229666   2.540   1.865  13.894 -1.0370 -0.5145  0.5621
 2751TIP3   OH229667   6.397   0.178  11.485 -0.3172 -0.3987 -0.1004
 2751TIP3    H129668   6.470   0.187  11.546 -0.3280 -1.0274  0.0042
 2751TIP3    H229669   6.434   0.137  11.407 -0.3190  0.3377 -0.4956
 2752TIP3   OH229670   0.823   6.431  14.523  0.3667 -0.0474 -0.0820
 2752TIP3    H129671   0.806   6.374  14.448 -0.5033  2.2294 -1.6581
 2752TIP3    H229672   0.740   6.475  14.539  1.5945  2.4307 -0.3307
 2753TIP3   OH229673   5.780   5.420  16.677  0.3120  0.2476  0.0326
 2753TIP3    H129674   5.710   5.467  16.722  0.0739  0.3090 -0.4027
 2753TIP3    H229675   5.844   5.488  16.656 -1.4008  0.9337 -3.2901
 2754TIP3   OH229676   1.031   5.452  16.780 -0.2813 -0.2714 -0.4135
 2754TIP3    H129677   1.122   5.476  16.795  0.1199 -1.7875 -0.2978
 2754TIP3    H229678   1.036   5.377  16.721 -1.4207 -0.7603  0.0997
 2755TIP3   OH229679   6.520   1.142  11.277  0.0675  0.0000 -0.4169
 2755TIP3    H129680   6.425   1.149  11.272  0.1433  0.3913 -1.4466
 2755TIP3    H229681   6.549   1.136  11.186  1.1803  2.0928 -0.2297
 2756TIP3   OH229682   3.790   0.834  12.571 -0.0019 -0.2222 -0.2357
 2756TIP3    H129683   3.719   0.898  12.582  0.9152  0.8282 -0.4125
 2756TIP3    H229684   3.839   0.866  12.495  2.0470  0.3417  1.3002
 2757TIP3   OH229685   2.454   1.478  13.517 -0.3453 -0.0309  0.1854
 2757TIP3    H129686   2.405   1.463  13.436 -0.6136  0.0212  0.3381
 2757TIP3    H229687   2.520   1.544  13.493 -1.3282  1.0186  0.3592
 2758TIP3   OH229688   2.908   4.687   0.890 -0.4654 -0.3994  0.1011
 2758TIP3    H129689   2.955   4.770   0.887 -1.9701  0.4193 -1.4256
 2758TIP3    H229690   2.908   4.663   0.983  0.5575  0.9575  0.4681
 2759TIP3   OH229691   6.679   0.655  16.910 -0.4099 -0.2149  0.0827
 2759TIP3    H129692   6.670   0.611  16.825  1.0060 -0.5732  0.1114
 2759TIP3    H229693   6.765   0.697  16.906 -0.5241  0.1279  1.1844
 2760TIP3   OH229694   6.254   0.877  15.235 -0.3221 -0.0310 -0.7615
 2760TIP3    H129695   6.245   0.946  15.170 -0.3588  1.9640  1.2857
 2760TIP3    H229696   6.334   0.831  15.211  0.1883  1.2988 -1.6530
 2761TIP3   OH229697   5.198   5.490   5.633  0.7241 -0.4630 -0.1881
 2761TIP3    H129698   5.110   5.460   5.654  0.6922  0.7010  1.3728
 2761TIP3    H229699   5.209   5.468   5.540 -1.7501  0.7611 -0.7949
 2762TIP3   OH229700   5.558   2.033   4.305  0.1837 -0.3529 -0.2119
 2762TIP3    H129701   5.571   1.940   4.289  0.2959 -0.5408  0.9569
 2762TIP3    H229702   5.521   2.038   4.393  1.2449  0.7853  0.1800
 2763TIP3   OH229703   2.730   5.617  12.760 -0.2882  0.0957 -0.7312
 2763TIP3    H129704   2.665   5.671  12.716 -0.0536  0.4799 -0.6110
 2763TIP3    H229705   2.690   5.594  12.843  0.1281  1.1952 -0.2070
 2764TIP3   OH229706   4.834   6.397  13.052  0.2739  0.4528 -0.1094
 2764TIP3    H129707   4.824   6.395  13.148 -0.5680  1.3803 -0.1713
 2764TIP3    H229708   4.854   6.306  13.029  1.8700  0.4791  1.0818
 2765TIP3   OH229709   4.421   2.541   2.176  0.1914 -0.3706  0.1530
 2765TIP3    H129710   4.487   2.524   2.243 -0.4341  0.8519  1.0847
 2765TIP3    H229711   4.412   2.636   2.175 -1.6330 -0.5332  0.1107
 2766TIP3   OH229712   0.800   0.169  11.215  0.1720 -0.0129  0.3525
 2766TIP3    H129713   0.722   0.113  11.219  0.1415 -0.0089 -0.1490
 2766TIP3    H229714   0.849   0.136  11.139 -0.4871  1.4855 -0.7544
 2767TIP3   OH229715   0.240   0.838   0.147 -0.4315 -0.0716 -0.4857
 2767TIP3    H129716   0.312   0.846   0.084  0.3543  1.5085  0.5728
 2767TIP3    H229717   0.283   0.835   0.233 -1.4668 -2.6662 -0.0354
 2768TIP3   OH229718   2.503   5.569   3.685  0.4215  0.1327 -0.2791
 2768TIP3    H129719   2.436   5.626   3.720  0.3250 -1.5138  2.3569
 2768TIP3    H229720   2.580   5.625   3.676 -0.8712  1.6977 -2.0230
 2769TIP3   OH229721   5.660   3.588  14.529  0.6047 -0.5338 -0.3916
 2769TIP3    H129722   5.706   3.517  14.573 -0.4007 -0.5719  0.6225
 2769TIP3    H229723   5.681   3.666  14.579 -1.5046 -0.7639  0.9327
 2770TIP3   OH229724   2.827   6.252   3.560 -0.5315 -0.4473 -0.6422
 2770TIP3    H129725   2.752   6.281   3.612 -0.6446 -0.5849 -0.7293
 2770TIP3    H229726   2.899   6.310   3.588 -0.5648 -0.5890 -0.2610
 2771TIP3   OH229727   6.517   1.883  13.737  0.5474 -0.2027 -0.1128
 2771TIP3    H129728   6.430   1.851  13.714  0.3737  0.1686  0.0176
 2771TIP3    H229729   6.521   1.876  13.832  0.4228  0.3693 -0.0625
 2772TIP3   OH229730   4.232   1.707  11.372  0.8220  0.2752 -0.3923
 2772TIP3    H129731   4.159   1.697  11.312  1.7909 -1.9025 -1.2343
 2772TIP3    H229732   4.202   1.773  11.435 -2.6842 -2.1337  0.5583
 2773TIP3   OH229733   0.607   1.263   1.103 -0.6598 -0.2175 -0.0443
 2773TIP3    H129734   0.677   1.305   1.053 -0.3209 -2.0184 -1.1034
 2773TIP3    H229735   0.608   1.172   1.075 -2.1200 -0.7103  1.4129
 2774TIP3   OH229736   6.713   5.202  14.883 -0.1331 -0.2390 -0.4412
 2774TIP3    H129737   6.629   5.223  14.841 -0.0717 -1.9899 -1.4683
 2774TIP3    H229738   6.692   5.134  14.946  0.3284  0.1646  0.1585
 2775TIP3   OH229739   4.075   3.323   4.953 -0.8688  0.3453  0.0631
 2775TIP3    H129740   4.049   3.401   4.903 -1.1968  0.2963  0.1589
 2775TIP3    H229741   4.085   3.255   4.887 -2.5700 -0.0531  0.2071
 2776TIP3   OH229742   2.590   6.409   2.960  0.4251  0.0448 -0.2683
 2776TIP3    H129743   2.658   6.349   2.931 -0.4325 -0.3242 -1.6092
 2776TIP3    H229744   2.508   6.365   2.937 -0.2573  0.7804  0.6874
 2777TIP3   OH229745   1.091   5.651  12.560  0.2958  0.0155 -0.6285
 2777TIP3    H129746   1.142   5.729  12.582  1.5862 -1.3390  1.3095
 2777TIP3    H229747   1.009   5.661  12.609 -0.1074  0.7973 -1.4548
 2778TIP3   OH229748   2.520   1.086   2.937  0.3416 -0.2732 -0.0185
 2778TIP3    H129749   2.576   1.024   2.983 -2.4687 -1.1238  2.3685
 2778TIP3    H229750   2.491   1.039   2.859  1.2022 -0.5764 -0.1639
 2779TIP3   OH229751   0.210   3.855   4.944  0.0439  0.3778 -0.2739
 2779TIP3    H129752   0.287   3.798   4.951 -0.2686 -0.0043  0.0072
 2779TIP3    H229753   0.203   3.896   5.030  0.8020  1.5317 -0.7386
 2780TIP3   OH229754   4.541   6.235   1.010  0.3880 -0.3454  0.4480
 2780TIP3    H129755   4.453   6.266   1.033  0.2576 -0.8993  0.7236
 2780TIP3    H229756   4.525   6.152   0.964  0.7679 -0.4438  0.4961
 2781TIP3   OH229757   4.366   1.043  13.002  0.8343  0.5742 -0.2294
 2781TIP3    H129758   4.368   1.137  12.985 -2.2995  0.8478  0.6189
 2781TIP3    H229759   4.315   1.007  12.929  3.2683 -0.7170 -1.3623
 2782TIP3   OH229760   0.817   2.855  13.039 -1.1256 -0.1165  0.6089
 2782TIP3    H129761   0.731   2.881  13.072 -1.0483  0.0835  0.6509
 2782TIP3    H229762   0.813   2.872  12.945 -1.3977 -0.8248  0.4874
 2783TIP3   OH229763   0.715   1.986   2.132  0.5997 -0.1097  0.1132
 2783TIP3    H129764   0.761   2.042   2.195  1.7958 -0.8255 -0.1075
 2783TIP3    H229765   0.670   1.921   2.186 -1.0396  1.2200  0.3873
 2784TIP3   OH229766   4.585   6.111  16.829 -0.1967  0.3175 -0.3493
 2784TIP3    H129767   4.583   6.151  16.742  1.3742  3.3723  0.9404
 2784TIP3    H229768   4.533   6.169  16.884  0.4213 -0.5178  1.1510
 2785TIP3   OH229769   5.169   3.702  11.923 -0.0652 -0.0977 -0.0845
 2785TIP3    H129770   5.133   3.623  11.963 -0.0441 -0.2986 -0.4522
 2785TIP3    H229771   5.114   3.716  11.846 -0.5049  0.6479  0.3613
 2786TIP3   OH229772   4.242   1.882   3.767 -0.8954 -0.4678 -0.1591
 2786TIP3    H129773   4.267   1.837   3.847 -0.3182  2.1836  1.2289
 2786TIP3    H229774   4.159   1.842   3.742 -0.1633 -2.5885  0.7168
 2787TIP3   OH229775   0.495   0.956   1.100 -0.5362 -0.6291  0.5832
 2787TIP3    H129776   0.479   0.958   1.195 -0.3618  1.1610  0.5947
 2787TIP3    H229777   0.578   0.909   1.090  0.0037  0.1311  1.4110
 2788TIP3   OH229778   0.939   3.124   5.533  0.0239 -0.3712 -0.1648
 2788TIP3    H129779   0.962   3.201   5.585  1.1279 -0.9063  0.1516
 2788TIP3    H229780   0.998   3.056   5.565 -1.2918 -1.4841 -0.0831
 2789TIP3   OH229781   5.387   5.420   4.233  1.0857 -0.0827 -0.3879
 2789TIP3    H129782   5.422   5.399   4.319  0.1951 -0.5866 -0.1484
 2789TIP3    H229783   5.296   5.444   4.248  1.2336  0.9613 -1.0462
 2790TIP3   OH229784   0.289   4.467   0.559  0.2632  0.5085  0.1741
 2790TIP3    H129785   0.296   4.491   0.652 -0.8241  0.1142  0.3605
 2790TIP3    H229786   0.196   4.454   0.545  0.6458 -1.7276 -0.4085
 2791TIP3   OH229787   2.235   2.455   4.552  0.2054 -0.0745 -0.0298
 2791TIP3    H129788   2.239   2.487   4.462 -0.5830  1.0220  0.3076
 2791TIP3    H229789   2.324   2.425   4.571  0.1541 -1.1555 -1.4580
 2792TIP3   OH229790   1.145   3.990  13.003 -0.2707  0.2176  0.2134
 2792TIP3    H129791   1.213   3.990  13.070 -2.0301 -2.0910  2.1072
 2792TIP3    H229792   1.065   4.012  13.050 -1.4814 -1.1078 -1.1803
 2793TIP3   OH229793   4.224   2.548   5.738  0.4082 -0.3004  0.3442
 2793TIP3    H129794   4.192   2.473   5.688  1.3600 -0.6943  0.2950
 2793TIP3    H229795   4.220   2.621   5.677 -0.7478 -0.2585  0.4647
 2794TIP3   OH229796   3.932   3.627  11.536 -0.0659 -0.5170  0.4751
 2794TIP3    H129797   3.940   3.656  11.626  0.7097  0.1719  0.1812
 2794TIP3    H229798   3.837   3.623  11.520 -0.1809  1.8376  0.5125
 2795TIP3   OH229799   5.269   6.332  13.152 -0.4817  0.8219 -0.0238
 2795TIP3    H129800   5.260   6.253  13.100 -0.1590  2.2145 -2.2646
 2795TIP3    H229801   5.360   6.331  13.182 -0.5278  0.2642  0.0940
 2796TIP3   OH229802   2.817   3.383  16.053  0.0839 -0.4926 -0.8228
 2796TIP3    H129803   2.852   3.408  16.138 -1.9858  0.0800 -0.1052
 2796TIP3    H229804   2.869   3.433  15.990  1.9091 -1.2621  0.0664
 2797TIP3   OH229805   3.820   4.133  15.297  0.3089 -0.3782  0.2543
 2797TIP3    H129806   3.757   4.192  15.340  2.3265  1.8554  0.2668
 2797TIP3    H229807   3.800   4.139  15.204 -1.6982 -2.3779  0.5185
 2798TIP3   OH229808   0.337   5.805  16.658 -0.4619  0.6277 -0.1876
 2798TIP3    H129809   0.299   5.734  16.709  0.2134  0.1927 -0.2925
 2798TIP3    H229810   0.377   5.863  16.723 -1.0152  0.9252 -0.1010
 2799TIP3   OH229811   6.261   3.559   4.182 -0.2167  0.1866 -0.1556
 2799TIP3    H129812   6.321   3.575   4.109  0.0521 -0.5597 -0.1045
 2799TIP3    H229813   6.174   3.566   4.144 -0.0931  1.2655 -0.2329
 2800TIP3   OH229814   0.563   0.394   0.199  0.0579  0.9418  0.0112
 2800TIP3    H129815   0.602   0.481   0.189 -1.6960  1.9966  1.9582
 2800TIP3    H229816   0.614   0.338   0.141  1.6970  3.1210 -0.7129
 2801TIP3   OH229817   6.403   2.255   5.505  0.4129  0.2486  0.3543
 2801TIP3    H129818   6.457   2.238   5.428  1.5506  0.2197  1.1443
 2801TIP3    H229819   6.380   2.348   5.498  0.1968  0.1505 -0.2165
 2802TIP3   OH229820   6.070   4.681   3.661 -0.0613 -0.0033  0.1896
 2802TIP3    H129821   6.143   4.741   3.677  0.3040 -0.5298  0.5285
 2802TIP3    H229822   6.024   4.718   3.586  1.0862 -0.1449 -0.6061
 2803TIP3   OH229823   3.802   6.589  13.750  0.0380 -0.0309 -0.8853
 2803TIP3    H129824   3.827   6.541  13.671 -1.0562  0.4807 -1.5637
 2803TIP3    H229825   3.714   6.622  13.730  0.6816  2.0556 -0.3547
 2804TIP3   OH229826   4.703   6.450  12.028  0.1454  0.2352 -0.4144
 2804TIP3    H129827   4.624   6.398  12.014 -0.2924  1.1285 -1.3373
 2804TIP3    H229828   4.760   6.394  12.081  0.4432 -1.9294 -2.8957
 2805TIP3   OH229829   3.252   1.861   2.651  0.2485  0.0363 -0.1859
 2805TIP3    H129830   3.347   1.859   2.641  0.3601 -0.3353  0.9866
 2805TIP3    H229831   3.222   1.915   2.578  1.4710  1.3835  0.2939
 2806TIP3   OH229832   1.590   5.296  16.201  0.1165  0.0077 -0.2343
 2806TIP3    H129833   1.563   5.361  16.136  1.5762  0.2704 -0.6064
 2806TIP3    H229834   1.526   5.225  16.193  0.8583 -0.4258 -2.6914
 2807TIP3   OH229835   1.416   5.176  17.050  0.1817 -0.1894  0.4949
 2807TIP3    H129836   1.386   5.142  17.134 -0.5826 -0.4342  0.1275
 2807TIP3    H229837   1.394   5.107  16.988  0.4729  0.1187  0.0466
 2808TIP3   OH229838   2.275   0.184   3.894  0.0267  0.0990  0.4189
 2808TIP3    H129839   2.195   0.160   3.848 -0.6178  3.1942 -0.1890
 2808TIP3    H229840   2.319   0.100   3.913 -2.8360 -1.5678 -0.1163
 2809TIP3   OH229841   5.839   6.048   1.415  0.4505  0.2522 -0.2377
 2809TIP3    H129842   5.877   6.132   1.392  0.5838 -0.1083 -1.3583
 2809TIP3    H229843   5.806   6.012   1.333  0.8247 -1.0064  0.1365
 2810TIP3   OH229844   0.374   1.987   3.666  0.4746 -0.3733 -0.2404
 2810TIP3    H129845   0.351   1.933   3.742  0.4353 -1.0726 -0.7365
 2810TIP3    H229846   0.388   1.923   3.596 -1.3961  0.3540 -1.3050
 2811TIP3   OH229847   5.254   5.677  15.415  0.0895  0.0574  0.7145
 2811TIP3    H129848   5.232   5.615  15.485 -2.9857 -0.9528 -1.0595
 2811TIP3    H229849   5.206   5.756  15.438 -1.1590 -0.3724 -0.3597
 2812TIP3   OH229850   6.246   4.591   4.588 -0.3393 -0.9038  0.6381
 2812TIP3    H129851   6.330   4.636   4.582 -0.9661  0.5638  2.2905
 2812TIP3    H229852   6.256   4.513   4.533  1.5974 -0.0047 -0.3338
 2813TIP3   OH229853   3.868   5.021  13.525 -0.1576  0.1158  0.2393
 2813TIP3    H129854   3.957   5.011  13.560 -0.6589  0.5806  1.6543
 2813TIP3    H229855   3.861   5.114  13.503 -0.5101  0.1956  0.6964
 2814TIP3   OH229856   3.744   5.956  11.148 -0.0212  0.2551  0.1197
 2814TIP3    H129857   3.658   5.946  11.109  0.2394 -1.2592 -0.0976
 2814TIP3    H229858   3.741   6.041  11.193 -1.2269  0.7385 -0.8442
 2815TIP3   OH229859   5.618   4.611   5.178 -0.1383 -0.3884  0.0910
 2815TIP3    H129860   5.647   4.547   5.243 -0.6461 -1.4840 -0.7413
 2815TIP3    H229861   5.522   4.612   5.187 -0.1601 -0.0255 -0.1617
 2816TIP3   OH229862   2.316   3.377   1.527 -0.6082 -0.3233 -0.2681
 2816TIP3    H129863   2.397   3.415   1.560 -0.3499 -2.5977  1.8066
 2816TIP3    H229864   2.333   3.283   1.524 -3.5717 -0.9783  1.4598
 2817TIP3   OH229865   5.725   2.646   4.186 -0.9645 -0.4278 -0.8406
 2817TIP3    H129866   5.713   2.689   4.271 -1.2365 -0.7349 -0.7193
 2817TIP3    H229867   5.708   2.714   4.122  1.3922  0.3834 -0.6555
 2818TIP3   OH229868   2.177   2.415  12.726  0.3933  0.2260 -0.1120
 2818TIP3    H129869   2.158   2.506  12.705  1.0908  0.3454 -0.2687
 2818TIP3    H229870   2.133   2.399  12.809 -2.4469 -0.2573 -1.6764
 2819TIP3   OH229871   3.992   1.500   5.311 -0.3125 -0.5286  0.4099
 2819TIP3    H129872   3.911   1.454   5.331 -2.5000  2.6439 -0.7847
 2819TIP3    H229873   3.984   1.523   5.218  1.2134  1.1701  0.6613
 2820TIP3   OH229874   5.690   0.548  16.165  0.2582 -0.0702  0.0183
 2820TIP3    H129875   5.728   0.461  16.178 -1.8748 -0.7358  2.2335
 2820TIP3    H229876   5.612   0.532  16.111  0.2909  0.5553 -0.2094
 2821TIP3   OH229877   6.362   1.678  10.681  0.3699 -0.6024 -0.1199
 2821TIP3    H129878   6.455   1.692  10.698  0.3664 -0.7414  0.0115
 2821TIP3    H229879   6.319   1.756  10.716  0.2541 -1.3785  1.5334
 2822TIP3   OH229880   6.633   1.051  13.909 -0.4686  0.7270 -0.0300
 2822TIP3    H129881   6.643   1.073  14.002  1.4314 -0.9415  0.1796
 2822TIP3    H229882   6.543   1.018  13.902  0.3452 -2.0630  1.8434
 2823TIP3   OH229883   0.620   5.815  14.114  0.0969 -0.0134  0.3785
 2823TIP3    H129884   0.584   5.867  14.186  0.7990  2.1422 -0.7531
 2823TIP3    H229885   0.565   5.837  14.039  1.8143  0.9067 -0.6448
 2824TIP3   OH229886   5.009   3.078  10.579  0.6029 -0.3888 -0.2447
 2824TIP3    H129887   4.980   3.014  10.513  2.6784  0.0757 -1.6470
 2824TIP3    H229888   5.050   3.148  10.528  2.5369 -0.1705  1.5666
 2825TIP3   OH229889   2.806   6.092  17.119  0.2309 -0.8180 -0.0962
 2825TIP3    H129890   2.719   6.099  17.159  0.8494  0.0108  1.1694
 2825TIP3    H229891   2.855   6.033  17.177  1.0498  0.1401  0.2059
 2826TIP3   OH229892   5.654   3.411   4.043 -0.0790 -0.1122 -0.1303
 2826TIP3    H129893   5.577   3.416   4.100 -0.9188 -0.1258 -1.2553
 2826TIP3    H229894   5.623   3.441   3.958  1.4183  0.9087 -0.3403
 2827TIP3   OH229895   2.352   1.160   5.435  0.0752  0.4013 -0.0686
 2827TIP3    H129896   2.368   1.066   5.427 -0.6749  0.0110  2.5023
 2827TIP3    H229897   2.271   1.175   5.387 -0.1056 -0.3708 -0.0116
 2828TIP3   OH229898   0.605   2.872  16.968  0.2200  0.2648 -0.2725
 2828TIP3    H129899   0.512   2.892  16.961  0.5467  2.7453  1.6308
 2828TIP3    H229900   0.617   2.792  16.917 -2.5783  1.0440 -2.2509
 2829TIP3   OH229901   0.557   0.374   4.471  0.6491 -0.5956 -0.2527
 2829TIP3    H129902   0.637   0.386   4.523  2.6315 -3.0495 -2.5991
 2829TIP3    H229903   0.510   0.457   4.480  4.0647  1.3800  0.1603
 2830TIP3   OH229904   2.634   5.277   0.564  0.3547 -0.6813  0.2573
 2830TIP3    H129905   2.576   5.238   0.498  0.4271  0.5740 -0.5656
 2830TIP3    H229906   2.592   5.360   0.587  1.6591  0.1085 -0.1371
 2831TIP3   OH229907   3.241   4.193   5.999 -0.1705  0.2402 -0.2047
 2831TIP3    H129908   3.315   4.228   6.049 -2.3666  1.6697  2.1619
 2831TIP3    H229909   3.239   4.245   5.919  2.3687 -0.9452 -1.0750
 2832TIP3   OH229910   0.805   2.298  12.023 -0.5783  0.6586  0.4304
 2832TIP3    H129911   0.835   2.354  11.952  1.5856  0.5852  1.2618
 2832TIP3    H229912   0.778   2.217  11.979  3.5943 -0.5547 -0.1241
 2833TIP3   OH229913   3.528   0.359   5.336  0.1136  0.5300 -0.4898
 2833TIP3    H129914   3.486   0.314   5.410 -1.0641  0.8982 -0.9233
 2833TIP3    H229915   3.569   0.289   5.286  0.2796  0.1955  0.1088
 2834TIP3   OH229916   1.999   0.640  12.026  0.0584 -0.6748  0.0507
 2834TIP3    H129917   1.914   0.679  12.008 -0.0686  0.3768  2.7425
 2834TIP3    H229918   2.037   0.623  11.939 -2.4784 -0.3124 -1.1609
 2835TIP3   OH229919   1.234   6.169   2.332 -0.3010  0.3057  0.1120
 2835TIP3    H129920   1.151   6.202   2.298 -0.5677 -0.8342 -0.3791
 2835TIP3    H229921   1.272   6.243   2.380 -1.9670  0.5979  1.0128
 2836TIP3   OH229922   4.769   1.934   5.270 -0.1094 -0.1501 -0.8022
 2836TIP3    H129923   4.830   1.986   5.321 -1.9416  0.9060  0.3726
 2836TIP3    H229924   4.727   1.998   5.212  0.1262 -0.9157 -1.8224
 2837TIP3   OH229925   5.323   2.579  11.835 -0.0379 -0.1101  0.0167
 2837TIP3    H129926   5.301   2.490  11.808 -0.1747  0.2417 -1.0894
 2837TIP3    H229927   5.252   2.633  11.798 -0.8579  0.2642  2.0947
 2838TIP3   OH229928   5.729   5.703   1.900  0.6878 -0.1962  0.3212
 2838TIP3    H129929   5.751   5.743   1.985 -1.8169 -0.3594  1.0953
 2838TIP3    H229930   5.693   5.618   1.923 -0.5831  0.0135 -0.8886
 2839TIP3   OH229931   1.192   6.769   0.787 -0.5003  0.0170 -0.5106
 2839TIP3    H129932   1.132   6.715   0.839  0.6826 -0.5592  0.2590
 2839TIP3    H229933   1.173   6.859   0.814  0.5542 -0.3216  1.3826
 2840TIP3   OH229934   2.869   0.813  16.751 -0.0760  0.5906  0.2626
 2840TIP3    H129935   2.783   0.771  16.748  0.2980 -0.6859  3.8354
 2840TIP3    H229936   2.929   0.749  16.712 -0.3371  0.1468  0.5800
 2841TIP3   OH229937   2.916   0.871   1.424  0.2011 -0.7174 -0.2427
 2841TIP3    H129938   2.933   0.965   1.432  1.4928 -0.8844 -0.7636
 2841TIP3    H229939   2.909   0.856   1.330  0.7298 -1.2452 -0.2063
 2842TIP3   OH229940   6.091   4.418  12.390 -0.4252  0.2806 -0.2274
 2842TIP3    H129941   6.171   4.401  12.342  0.4803  1.2775  0.8861
 2842TIP3    H229942   6.048   4.490  12.343 -1.8450 -1.7597 -2.1446
 2843TIP3   OH229943   6.538   5.873  16.764  0.2819 -0.4284 -0.2369
 2843TIP3    H129944   6.616   5.928  16.754 -0.2667  0.1521 -1.4456
 2843TIP3    H229945   6.522   5.871  16.858  1.2719  0.1323 -0.0449
 2844TIP3   OH229946   3.433   0.714  12.028 -0.0766  0.0990 -0.2721
 2844TIP3    H129947   3.394   0.801  12.026 -0.1148  0.0947  0.1731
 2844TIP3    H229948   3.381   0.662  11.966  0.7852  0.7390 -1.5528
 2845TIP3   OH229949   3.990   6.276   1.351  0.0951 -0.3750  0.1091
 2845TIP3    H129950   4.057   6.231   1.300  0.2682  0.0693 -0.0522
 2845TIP3    H229951   3.918   6.213   1.356 -0.5321  0.1700 -1.9951
 2846TIP3   OH229952   6.233   5.718  11.234 -0.5133 -0.0571 -0.2878
 2846TIP3    H129953   6.249   5.726  11.329 -1.7347 -0.7519 -0.0147
 2846TIP3    H229954   6.153   5.767  11.219 -0.4693 -0.1807 -0.9218
 2847TIP3   OH229955   6.342   3.858  13.514  0.1104  0.3793 -0.2693
 2847TIP3    H129956   6.427   3.901  13.503  0.3932 -0.4812 -1.6090
 2847TIP3    H229957   6.318   3.831  13.425 -1.4869  0.4662  0.1385
 2848TIP3   OH229958   2.403   0.242   1.368  0.6016 -0.1944 -0.2507
 2848TIP3    H129959   2.418   0.236   1.462 -0.6886 -0.5076 -0.0635
 2848TIP3    H229960   2.410   0.151   1.337  1.0167 -0.0929 -0.4558
 2849TIP3   OH229961   6.280   6.184  11.520  0.3577 -0.2687  0.2311
 2849TIP3    H129962   6.260   6.106  11.573 -1.0235  0.7186  1.1982
 2849TIP3    H229963   6.230   6.254  11.561 -1.8943  0.2741 -3.2530
 2850TIP3   OH229964   5.672   1.497   4.065  0.5369  0.5869 -0.9332
 2850TIP3    H129965   5.764   1.471   4.062  0.5371  0.6526 -1.6004
 2850TIP3    H229966   5.672   1.583   4.108  0.5225 -0.5695  1.3941
 2851TIP3   OH229967   3.366   2.384   1.897 -0.3369  0.0699  0.5497
 2851TIP3    H129968   3.317   2.436   1.961 -1.3698 -0.6331  0.3263
 2851TIP3    H229969   3.303   2.364   1.828 -0.1372 -2.0765  0.9686
 2852TIP3   OH229970   1.091   1.516  13.699 -0.0712 -0.0113  0.0892
 2852TIP3    H129971   1.058   1.504  13.610  0.0323 -0.5439  0.1233
 2852TIP3    H229972   1.015   1.542  13.751 -0.0871  0.5337 -0.2024
 2853TIP3   OH229973   0.766   4.451  13.856 -0.3187  0.1383 -0.7487
 2853TIP3    H129974   0.732   4.537  13.833  0.7541  1.1814  1.4839
 2853TIP3    H229975   0.852   4.468  13.895 -0.6088 -1.8349  0.8244
 2854TIP3   OH229976   3.360   0.177  10.525  0.0556 -0.1072  0.0309
 2854TIP3    H129977   3.283   0.122  10.513 -1.0736  1.2561  0.7975
 2854TIP3    H229978   3.433   0.116  10.533 -1.0205 -1.4384 -0.1464
 2855TIP3   OH229979   1.991   3.206   4.921  0.0865  0.4518  0.1996
 2855TIP3    H129980   2.000   3.186   4.828  0.9893  1.2978  0.0909
 2855TIP3    H229981   2.081   3.220   4.951 -0.2101  0.3336  1.1630
 2856TIP3   OH229982   6.234   4.560   5.248  0.2522 -0.0063  0.3459
 2856TIP3    H129983   6.206   4.615   5.322 -0.5816 -0.0655  0.0754
 2856TIP3    H229984   6.312   4.605   5.214 -0.7647  1.3396 -0.2410
 2857TIP3   OH229985   5.599   3.425  12.245 -0.5577 -0.6698 -0.1771
 2857TIP3    H129986   5.634   3.382  12.323  0.2815  1.5233  0.6756
 2857TIP3    H229987   5.640   3.379  12.172  0.4254 -1.2261  0.7120
 2858TIP3   OH229988   2.571   4.667   5.586  0.1932  0.8108 -0.2273
 2858TIP3    H129989   2.536   4.715   5.661  1.5743  0.4911  0.6494
 2858TIP3    H229990   2.632   4.604   5.625 -1.9073 -2.0168 -1.2929
 2859TIP3   OH229991   5.851   2.391  15.789  0.2113  0.2187 -0.2947
 2859TIP3    H129992   5.853   2.296  15.791 -0.4408  0.1643 -1.4868
 2859TIP3    H229993   5.869   2.418  15.879  0.2158 -1.0239  0.0835
 2860TIP3   OH229994   2.979   3.661   2.445  0.1364 -0.2878  0.5882
 2860TIP3    H129995   2.923   3.657   2.523  0.0793 -1.5539  0.4978
 2860TIP3    H229996   2.940   3.730   2.391 -0.8668 -0.5949  0.8953
 2861TIP3   OH229997   3.838   6.156  11.338 -0.6327 -0.4754  1.2517
 2861TIP3    H129998   3.882   6.201  11.265  0.3035 -0.9009  1.5508
 2861TIP3    H229999   3.790   6.225  11.384  2.1948  0.5340  2.7421
 2862TIP3   OH230000   2.741   3.185  13.239 -0.0131 -0.5877 -0.2458
 2862TIP3    H130001   2.803   3.177  13.312 -0.2176 -1.2628 -0.1489
 2862TIP3    H230002   2.793   3.164  13.162  0.1835  0.0492 -0.2929
 2863TIP3   OH230003   5.546   3.442   5.208 -0.5153  0.5532 -0.3108
 2863TIP3    H130004   5.566   3.350   5.226 -1.4340  0.5651  0.8783
 2863TIP3    H230005   5.574   3.455   5.118 -0.7808 -1.0183 -0.6510
 2864TIP3   OH230006   2.343   0.080   3.218  0.4669  0.2280 -0.1127
 2864TIP3    H130007   2.394   0.145   3.266  0.9615 -0.1087 -0.1809
 2864TIP3    H230008   2.376  -0.004   3.249  1.2135  0.0086 -1.4869
 2865TIP3   OH230009   4.479   0.769   0.365  0.9641  0.1664 -0.1872
 2865TIP3    H130010   4.424   0.717   0.307  1.6797 -0.9768  0.1536
 2865TIP3    H230011   4.458   0.860   0.342 -2.0347 -0.2209  0.8520
 2866TIP3   OH230012   1.564   4.413  12.730  0.6781 -0.1930 -0.1279
 2866TIP3    H130013   1.476   4.382  12.709  0.6180 -0.2787  0.2475
 2866TIP3    H230014   1.605   4.427  12.645  0.3089 -0.1747 -0.3056
 2867TIP3   OH230015   6.659   1.349  12.146 -0.3516 -0.2593  0.1224
 2867TIP3    H130016   6.651   1.294  12.068  0.3520 -1.2582  0.7328
 2867TIP3    H230017   6.726   1.305  12.199  1.3268  1.9800 -0.0345
 2868TIP3   OH230018   3.163   1.387  15.279  0.4732  0.2500  0.2614
 2868TIP3    H130019   3.256   1.364  15.281 -0.0144 -1.8140  2.4491
 2868TIP3    H230020   3.144   1.415  15.369 -0.8636  1.3570 -0.3543
 2869TIP3   OH230021   3.764   6.088   6.542 -0.2303  0.3337  0.1584
 2869TIP3    H130022   3.775   6.082   6.448  0.4083 -2.7386  0.3660
 2869TIP3    H230023   3.823   6.159   6.569 -0.6779  1.4581 -1.7632
 2870TIP3   OH230024   4.063   3.544  12.051  0.3950  0.2395 -0.1136
 2870TIP3    H130025   4.063   3.508  12.140 -0.6508  1.5053  0.4088
 2870TIP3    H230026   4.155   3.559  12.031  0.7122 -0.9465  0.3715
 2871TIP3   OH230027   2.938   4.602  16.571 -0.2192  0.0844 -0.4116
 2871TIP3    H130028   3.022   4.586  16.528  0.4444  0.5184  0.7227
 2871TIP3    H230029   2.960   4.627  16.660 -1.5331  0.6152 -0.2172
 2872TIP3   OH230030   0.713   3.378   2.439  0.0795 -0.3544 -0.0800
 2872TIP3    H130031   0.696   3.456   2.492 -0.0427  0.7117 -1.6591
 2872TIP3    H230032   0.781   3.331   2.487  1.2435  1.4948  0.1342
 2873TIP3   OH230033   1.504   1.311   4.353  0.3384  0.2395 -0.4860
 2873TIP3    H130034   1.555   1.339   4.429 -0.6450  0.6794  0.0179
 2873TIP3    H230035   1.445   1.244   4.387  0.9133 -0.6144 -1.1694
 2874TIP3   OH230036   1.267   3.049   1.063  0.2678  0.1334  1.0237
 2874TIP3    H130037   1.326   3.071   1.134  1.0009 -0.9522  0.7676
 2874TIP3    H230038   1.317   3.065   0.983 -0.1966  0.3769  0.7777
 2875TIP3   OH230039   1.857   2.284  10.996  0.0677 -0.2046 -0.5115
 2875TIP3    H130040   1.904   2.352  10.947 -1.5771 -0.1788 -2.1172
 2875TIP3    H230041   1.862   2.206  10.940 -0.7582 -0.5184 -0.1629
 2876TIP3   OH230042   1.899   3.726  11.046 -0.0313  0.1030 -0.0920
 2876TIP3    H130043   1.931   3.671  11.117  0.4451 -0.9917 -1.1460
 2876TIP3    H230044   1.865   3.665  10.981  1.1175  1.0062 -1.5748
 2877TIP3   OH230045   4.942   3.498  13.871  0.1966  0.2311 -0.7063
 2877TIP3    H130046   4.955   3.501  13.966  2.6014  1.4221 -1.0313
 2877TIP3    H230047   4.890   3.576  13.851  0.0304  0.1971 -0.4022
 2878TIP3   OH230048   3.330   0.288   0.682  0.5622  0.0105  0.3227
 2878TIP3    H130049   3.249   0.252   0.716  0.2173  0.4869  0.0078
 2878TIP3    H230050   3.303   0.345   0.610  1.1397  0.4678  0.4616
 2879TIP3   OH230051   3.546   0.054   1.982 -0.5159 -0.8946 -0.5242
 2879TIP3    H130052   3.550   0.147   2.005  0.4375 -1.3051  1.1043
 2879TIP3    H230053   3.454   0.038   1.962 -1.3770 -0.3641  2.6725
 2880TIP3   OH230054   5.851   2.204   5.103  0.5363 -0.4506 -0.6097
 2880TIP3    H130055   5.931   2.164   5.070  0.2730 -0.2576 -1.5027
 2880TIP3    H230056   5.877   2.246   5.185  1.3137 -0.5246 -0.8129
 2881TIP3   OH230057   5.748   3.983   2.919 -0.3601  0.9729 -0.0763
 2881TIP3    H130058   5.737   3.925   2.994  0.5774 -1.0436 -1.4420
 2881TIP3    H230059   5.827   4.033   2.939  1.2150 -1.1725 -0.6713
 2882TIP3   OH230060   2.407   1.440   3.892 -0.1775 -0.4058  0.0933
 2882TIP3    H130061   2.461   1.476   3.963 -0.3623  1.6427 -0.7614
 2882TIP3    H230062   2.460   1.368   3.857  2.3229  1.8796 -1.0621
 2883TIP3   OH230063   5.837   4.213   4.306 -0.3531 -0.4712 -0.2652
 2883TIP3    H130064   5.867   4.213   4.397  2.0392  0.2765 -1.0136
 2883TIP3    H230065   5.850   4.304   4.277 -0.0493 -0.9644 -1.6980
 2884TIP3   OH230066   5.993   2.115   1.881 -0.7823 -0.1124 -0.7048
 2884TIP3    H130067   6.061   2.181   1.891 -1.1198  0.1399 -0.0618
 2884TIP3    H230068   6.011   2.050   1.950  1.7088 -2.6214 -3.5532
 2885TIP3   OH230069   4.884   6.041   0.415  0.2341  0.0308  0.0046
 2885TIP3    H130070   4.964   5.995   0.441  0.2471 -0.3579 -0.6805
 2885TIP3    H230071   4.890   6.126   0.457  2.0526  0.8110 -1.7440
 2886TIP3   OH230072   1.924   2.463  11.747 -0.2489  0.1738 -0.0717
 2886TIP3    H130073   1.886   2.463  11.659  0.4436 -2.9635 -0.4187
 2886TIP3    H230074   1.852   2.438  11.805  0.2436 -1.8491 -0.2766
 2887TIP3   OH230075   2.708   6.562  13.362  0.0201 -0.2768 -0.4605
 2887TIP3    H130076   2.784   6.512  13.393  0.2279 -0.9496 -2.0022
 2887TIP3    H230077   2.735   6.593  13.275 -0.7372  1.1352 -0.2026
 2888TIP3   OH230078   3.841   4.152  11.290 -0.0480 -0.4508 -0.1760
 2888TIP3    H130079   3.925   4.191  11.313  1.2363 -2.3084 -1.5514
 2888TIP3    H230080   3.850   4.128  11.198 -1.3841 -2.4020  0.1720
 2889TIP3   OH230081   1.354   2.998  14.861  0.5316 -0.8898  0.6751
 2889TIP3    H130082   1.399   3.051  14.795 -0.5923 -1.4099 -0.5235
 2889TIP3    H230083   1.288   2.949  14.812 -1.4359 -0.0531  2.4234
 2890TIP3   OH230084   6.434   1.118  13.008  0.0985  0.2551  0.3592
 2890TIP3    H130085   6.507   1.089  12.953 -0.4842 -0.2242 -0.1657
 2890TIP3    H230086   6.355   1.089  12.962 -0.4747  1.7339  0.3759
 2891TIP3   OH230087   4.182   0.936   2.653  0.5281  0.2248  0.5969
 2891TIP3    H130088   4.113   0.998   2.630  1.2396  0.5526 -0.6779
 2891TIP3    H230089   4.146   0.887   2.727 -1.4022 -0.2077 -0.6059
 2892TIP3   OH230090   6.529   2.703   5.522  0.0592 -0.0247  0.5986
 2892TIP3    H130091   6.449   2.682   5.571 -1.0403 -0.1555 -1.2260
 2892TIP3    H230092   6.531   2.799   5.520 -0.8307 -0.0226 -0.5872
 2893TIP3   OH230093   1.765   5.827  12.621 -0.7457 -0.4791  0.1485
 2893TIP3    H130094   1.825   5.899  12.642 -0.5368  0.0858 -2.1687
 2893TIP3    H230095   1.812   5.748  12.645 -0.0494  0.0735  0.6125
 2894TIP3   OH230096   5.988   2.402  13.612 -0.4464  0.0873  0.5797
 2894TIP3    H130097   5.939   2.482  13.595 -1.2471 -0.4298  0.3850
 2894TIP3    H230098   5.946   2.336  13.557  1.0658 -0.1733 -0.2708
 2895TIP3   OH230099   6.302   4.464   3.208  0.1005 -0.5504  0.3439
 2895TIP3    H130100   6.370   4.521   3.244  1.1885 -1.2676 -0.5064
 2895TIP3    H230101   6.320   4.463   3.114 -1.1669 -0.6742  0.0909
 2896TIP3   OH230102   4.585   6.621  17.166 -0.4559  0.3829 -0.2919
 2896TIP3    H130103   4.552   6.695  17.218 -0.2548  0.8660 -0.8529
 2896TIP3    H230104   4.551   6.636  17.078  2.8218  1.9516 -1.3686
 2897TIP3   OH230105   1.178   1.384   0.754 -0.0310  0.3373  0.4018
 2897TIP3    H130106   1.222   1.304   0.723  0.2645  0.8070 -0.4020
 2897TIP3    H230107   1.208   1.393   0.844  0.7135  0.0781  0.1878
 2898TIP3   OH230108   1.311   5.507  16.748 -0.0497 -0.7080 -0.6227
 2898TIP3    H130109   1.322   5.504  16.653  1.7244 -0.4227 -0.4326
 2898TIP3    H230110   1.362   5.583  16.776 -1.7646  0.1093  0.4099
 2899TIP3   OH230111   5.422   5.810   2.781  0.3679 -0.1758 -0.1821
 2899TIP3    H130112   5.375   5.890   2.804 -1.2774 -0.9051 -0.9374
 2899TIP3    H230113   5.496   5.840   2.729 -1.1910  0.7447 -1.9261
 2900TIP3   OH230114   0.678   2.117   0.952 -0.3164 -0.1771 -0.5446
 2900TIP3    H130115   0.611   2.118   0.884 -1.8999 -0.2645  0.9789
 2900TIP3    H230116   0.745   2.057   0.920 -2.1312 -1.9867 -1.0046
 2901TIP3   OH230117   5.189   4.729   4.564 -0.2358  0.1326 -0.8143
 2901TIP3    H130118   5.151   4.784   4.496 -1.6968  0.5702  0.3220
 2901TIP3    H230119   5.117   4.671   4.591  0.6780 -0.8819 -0.5165
 2902TIP3   OH230120   2.099   0.584   5.341  0.2869 -0.0236  0.2091
 2902TIP3    H130121   2.036   0.628   5.399  1.4881 -1.2205  2.5008
 2902TIP3    H230122   2.045   0.549   5.270 -1.3678  0.7290  1.0529
 2903TIP3   OH230123   4.585   3.512  14.285  0.2538  0.3147  0.2515
 2903TIP3    H130124   4.566   3.437  14.342  0.7356 -1.0738 -1.4026
 2903TIP3    H230125   4.645   3.566  14.336 -0.0129 -0.4666  1.4144
 2904TIP3   OH230126   0.615   6.358  14.854 -0.0840 -0.0519  0.5008
 2904TIP3    H130127   0.589   6.295  14.922 -1.5353  0.4365  0.4333
 2904TIP3    H230128   0.650   6.305  14.784 -2.2811 -0.9136  0.0059
 2905TIP3   OH230129   5.374   0.744   1.987  0.4606 -0.1723  0.8162
 2905TIP3    H130130   5.438   0.680   2.018  0.4543  0.1320  1.4597
 2905TIP3    H230131   5.354   0.716   1.897  1.6706 -0.1444  0.5231
 2906TIP3   OH230132   1.186   6.057  13.677 -0.0472  0.2030 -0.3475
 2906TIP3    H130133   1.170   6.088  13.588 -2.9348 -1.3973 -0.4250
 2906TIP3    H230134   1.171   6.134  13.732  2.9934  1.5275 -1.2864
 2907TIP3   OH230135   2.367   6.309   1.422 -0.0985 -0.5533 -0.6561
 2907TIP3    H130136   2.360   6.221   1.459  0.0755  0.1602  1.0735
 2907TIP3    H230137   2.322   6.365   1.485  2.8968  1.1215  0.0605
 2908TIP3   OH230138   4.164   5.231   2.076 -0.0226  0.0809  0.4137
 2908TIP3    H130139   4.216   5.152   2.061  0.6370  0.9151 -1.9401
 2908TIP3    H230140   4.145   5.230   2.170  1.4274 -1.9756  0.7161
 2909TIP3   OH230141   2.280   0.160   1.112  0.2244 -0.3432 -0.4670
 2909TIP3    H130142   2.323   0.196   1.190  0.2355 -0.2204 -0.5298
 2909TIP3    H230143   2.226   0.088   1.145 -1.1479  0.8224 -0.1145
 2910TIP3   OH230144   5.150   2.799  11.275  0.3648 -0.6173  0.0068
 2910TIP3    H130145   5.206   2.803  11.352  0.5745  0.2731 -0.1807
 2910TIP3    H230146   5.208   2.768  11.205  0.7733  0.8142 -0.3079
 2911TIP3   OH230147   5.287   3.765  14.410  0.1177  0.1818  0.1148
 2911TIP3    H130148   5.330   3.680  14.411 -0.7100 -0.2453  0.3657
 2911TIP3    H230149   5.259   3.779  14.500 -0.6972  0.2242 -0.1405
 2912TIP3   OH230150   5.163   4.039  12.703 -0.3456  0.4624 -0.2921
 2912TIP3    H130151   5.258   4.049  12.700 -0.3997  1.5806  0.9604
 2912TIP3    H230152   5.149   3.968  12.766 -0.3380  0.2292 -0.5528
 2913TIP3   OH230153   5.459   5.469   5.754 -0.0492  0.4719  0.3857
 2913TIP3    H130154   5.371   5.467   5.716  0.2049  1.8635 -0.3243
 2913TIP3    H230155   5.513   5.420   5.691 -0.4032 -0.8141  1.0764
 2914TIP3   OH230156   4.323   6.313   6.304  0.4968  1.1812 -0.0342
 2914TIP3    H130157   4.402   6.303   6.358 -1.7195 -1.3361  2.9258
 2914TIP3    H230158   4.282   6.393   6.336 -0.5052  0.0072  1.7129
 2915TIP3   OH230159   2.607   2.068  16.542 -0.8300 -0.3523  0.1562
 2915TIP3    H130160   2.645   2.014  16.612 -1.6573 -1.0819  0.0445
 2915TIP3    H230161   2.577   2.147  16.587  3.0252  1.3709 -0.1115
 2916TIP3   OH230162   4.434   1.277  13.740  0.1698 -0.3517 -0.0111
 2916TIP3    H130163   4.528   1.268  13.754  0.0329  1.2084  2.0536
 2916TIP3    H230164   4.426   1.337  13.666  0.7952  0.3976  0.5267
 2917TIP3   OH230165   3.831   0.548   2.102 -0.5789  0.3636  0.1640
 2917TIP3    H130166   3.811   0.640   2.119  0.3182  0.7284 -0.7047
 2917TIP3    H230167   3.772   0.524   2.030  0.7332  0.8937 -1.1011
 2918TIP3   OH230168   2.462   6.451  14.344 -0.1458 -0.3490  0.1515
 2918TIP3    H130169   2.404   6.402  14.403  0.5388 -0.3105  0.8548
 2918TIP3    H230170   2.517   6.384  14.303  0.5274 -0.2122  0.8234
 2919TIP3   OH230171   6.749   5.403  15.729 -0.2082 -0.2523  0.0560
 2919TIP3    H130172   6.837   5.365  15.728 -0.1081 -0.0385  0.5017
 2919TIP3    H230173   6.719   5.396  15.639  1.0528  1.4917 -0.5145
 2920TIP3   OH230174   6.342   4.882   4.134  0.2155  0.3685  0.4597
 2920TIP3    H130175   6.247   4.896   4.129 -0.0054 -0.7601  1.3133
 2920TIP3    H230176   6.351   4.791   4.160  1.5535  0.3533 -0.0302
 2921TIP3   OH230177   6.205   1.624   3.253 -0.3708  0.3142 -0.2054
 2921TIP3    H130178   6.205   1.631   3.349  0.3014  1.1701 -0.2593
 2921TIP3    H230179   6.149   1.696   3.224  1.4818  1.6693 -0.5388
 2922TIP3   OH230180   5.482   6.324   1.352  0.1655  0.1816  0.0877
 2922TIP3    H130181   5.491   6.415   1.381 -2.5362  0.4890  0.0697
 2922TIP3    H230182   5.464   6.274   1.431  2.7389 -0.5768  0.2662
 2923TIP3   OH230183   0.509   1.725  12.606 -0.2993  0.2060  0.3013
 2923TIP3    H130184   0.603   1.713  12.591 -0.4833  0.1596 -0.8407
 2923TIP3    H230185   0.501   1.728  12.701  0.9479  0.9264  0.4066
 2924TIP3   OH230186   4.706   3.190  14.849  0.1002  0.3876  0.3410
 2924TIP3    H130187   4.742   3.252  14.786 -0.5465 -0.4975 -0.9140
 2924TIP3    H230188   4.616   3.220  14.862  0.1361  0.3800  0.6104
 2925TIP3   OH230189   0.036   3.010   3.257 -0.1637  0.0359 -0.2336
 2925TIP3    H130190   0.037   2.915   3.271  1.9249 -0.0327 -0.7332
 2925TIP3    H230191  -0.003   3.045   3.337  1.6164 -1.0707  1.1495
 2926TIP3   OH230192   4.962   2.517   1.506 -0.3183  0.1134 -0.1393
 2926TIP3    H130193   5.052   2.550   1.502  0.6395 -1.8406  3.2600
 2926TIP3    H230194   4.913   2.586   1.550 -0.1184  0.4766 -0.4855
 2927TIP3   OH230195   5.705   5.606  15.159  0.4591  0.2725 -0.2406
 2927TIP3    H130196   5.633   5.658  15.123 -0.6339 -1.1631 -0.1833
 2927TIP3    H230197   5.775   5.669  15.174 -0.4629  1.5451 -1.1643
 2928TIP3   OH230198   6.786   2.355   2.558 -0.0756  0.2534  0.2851
 2928TIP3    H130199   6.778   2.391   2.469 -1.0497 -1.8804 -0.5140
 2928TIP3    H230200   6.824   2.268   2.546  3.2835  1.3329  2.2945
 2929TIP3   OH230201   2.198   0.875  11.280 -0.5732 -0.4733 -0.9105
 2929TIP3    H130202   2.131   0.808  11.264 -0.8148 -0.6948  0.8315
 2929TIP3    H230203   2.262   0.863  11.211 -0.7287 -2.3682 -0.7452
 2930TIP3   OH230204   6.154   1.565   6.093  0.0677 -0.4316  0.2696
 2930TIP3    H130205   6.123   1.559   6.183 -1.4994  0.6679 -0.1799
 2930TIP3    H230206   6.088   1.619   6.048  0.1042 -2.0751 -1.8383
 2931TIP3   OH230207   3.200   3.708   1.023  0.3648 -0.4579  0.2836
 2931TIP3    H130208   3.179   3.736   1.112  0.0622  0.5566 -0.0995
 2931TIP3    H230209   3.130   3.648   1.000 -0.5361  0.6432  0.0920
 2932TIP3   OH230210   4.155   4.374   4.729  0.1645 -0.0845  0.1893
 2932TIP3    H130211   4.090   4.410   4.669  0.6668  1.3567  0.4946
 2932TIP3    H230212   4.105   4.347   4.806 -0.0853  1.1056  0.4603
 2933TIP3   OH230213   3.266   5.816   5.808  0.2193  0.0536 -0.0742
 2933TIP3    H130214   3.300   5.885   5.866  2.1508 -0.2326 -0.8277
 2933TIP3    H230215   3.303   5.735   5.844 -0.4899 -0.3803 -0.3198
 2934TIP3   OH230216   6.433   4.272   1.437 -0.4978 -0.1206 -0.1329
 2934TIP3    H130217   6.388   4.346   1.397 -1.9917 -0.9497 -0.0066
 2934TIP3    H230218   6.387   4.257   1.519  1.7021  0.7122  1.2957
 2935TIP3   OH230219   5.866   6.645  15.082 -0.1526  0.0753 -0.3428
 2935TIP3    H130220   5.792   6.604  15.126 -1.7679  0.9618 -2.1445
 2935TIP3    H230221   5.931   6.659  15.151 -2.0103  0.0854  1.4438
 2936TIP3   OH230222   5.110   3.226  11.792  0.0446 -0.1668 -0.5788
 2936TIP3    H130223   5.199   3.204  11.817 -0.2530 -0.1311  0.5077
 2936TIP3    H230224   5.099   3.317  11.817  0.0677  0.1645 -1.7393
 2937TIP3   OH230225   2.843   5.704   3.299 -0.1581  0.0602  0.1718
 2937TIP3    H130226   2.892   5.695   3.381  1.4030  0.2270 -0.7190
 2937TIP3    H230227   2.892   5.650   3.237 -1.9371 -0.9225 -0.4035
 2938TIP3   OH230228   5.903   0.603   1.214  0.2689 -0.0963 -0.2697
 2938TIP3    H130229   5.996   0.625   1.213  0.4932 -0.9722  1.0599
 2938TIP3    H230230   5.865   0.659   1.146  1.4056  1.8037  0.6328
 2939TIP3   OH230231   2.417   0.756  12.983 -0.2159 -0.0206  0.2635
 2939TIP3    H130232   2.500   0.744  12.936 -1.5794 -1.2464 -1.9006
 2939TIP3    H230233   2.424   0.844  13.021  1.7102  0.2446 -0.6113
 2940TIP3   OH230234   6.293   0.476   0.736  0.4521 -0.1942  0.1030
 2940TIP3    H130235   6.250   0.549   0.692  0.0114 -0.2729  0.4041
 2940TIP3    H230236   6.387   0.492   0.723  0.3170 -0.3553 -1.0811
 2941TIP3   OH230237   2.433   3.131   0.471  0.3413 -0.3405  0.5320
 2941TIP3    H130238   2.396   3.194   0.409  0.9773 -1.7358 -1.3017
 2941TIP3    H230239   2.368   3.061   0.476  0.8135 -0.7779  0.5630
 2942TIP3   OH230240   1.030   1.204   5.462  0.8954  0.3842  0.5349
 2942TIP3    H130241   1.114   1.173   5.430  1.2184  1.2316  0.5309
 2942TIP3    H230242   1.033   1.191   5.556  0.4786 -0.8639  0.3828
 2943TIP3   OH230243   5.564   5.329  14.440 -0.0851 -0.1342 -0.3374
 2943TIP3    H130244   5.557   5.299  14.531 -0.9508 -1.3654 -0.7943
 2943TIP3    H230245   5.478   5.312  14.403  0.2188  0.5140 -1.3450
 2944TIP3   OH230246   5.526   3.539  10.878 -0.2578 -0.1575  0.1922
 2944TIP3    H130247   5.604   3.558  10.930 -0.4167  0.4227  0.2192
 2944TIP3    H230248   5.509   3.620  10.830 -0.3898 -0.5374 -0.4055
 2945TIP3   OH230249   6.323   4.481  15.679 -0.4450 -0.1828  0.5577
 2945TIP3    H130250   6.274   4.448  15.755 -1.2325 -4.8522 -1.8074
 2945TIP3    H230251   6.409   4.441  15.687  0.6030  2.0612  0.7441
 2946TIP3   OH230252   1.215   2.275  12.942  0.5410 -0.6576  0.5271
 2946TIP3    H130253   1.177   2.327  13.013 -0.1980  1.1204 -1.1195
 2946TIP3    H230254   1.140   2.245  12.891  1.0674 -1.8737  0.4430
 2947TIP3   OH230255   4.161   2.189  15.390 -0.6240  0.8436  0.1330
 2947TIP3    H130256   4.145   2.114  15.332 -1.3379 -0.1539  1.5917
 2947TIP3    H230257   4.173   2.263  15.331 -0.6902 -0.2814 -1.3093
 2948TIP3   OH230258   5.125   3.431  13.665 -0.1406  0.0607  0.6965
 2948TIP3    H130259   5.047   3.422  13.720  1.3112 -0.7681  2.6548
 2948TIP3    H230260   5.198   3.433  13.726  1.3785  1.2406 -1.0937
 2949TIP3   OH230261   4.151   2.116   5.012 -0.3350  0.5490 -0.6331
 2949TIP3    H130262   4.106   2.035   5.034 -1.8722  1.5325 -0.1006
 2949TIP3    H230263   4.089   2.165   4.958  0.6361  1.3214 -1.0834
 2950TIP3   OH230264   4.098   4.632  13.843 -0.3444  0.4872 -0.2990
 2950TIP3    H130265   4.173   4.626  13.902 -0.7754  0.3738  0.2385
 2950TIP3    H230266   4.130   4.595  13.760  1.1432  3.2754 -1.0295
 2951TIP3   OH230267   5.311   1.271   2.494 -0.3087  0.1203 -0.7778
 2951TIP3    H130268   5.362   1.307   2.567 -1.0252 -2.5971  1.1285
 2951TIP3    H230269   5.378   1.239   2.433  0.2774  0.4393 -0.3143
 2952TIP3   OH230270   4.281   6.731  12.402  0.1422  0.5524 -0.6140
 2952TIP3    H130271   4.256   6.785  12.328 -0.4477 -0.3359 -1.0669
 2952TIP3    H230272   4.367   6.764  12.428 -0.1406  1.5934 -0.9869
 2953TIP3   OH230273   6.365   4.850  15.062  0.0353  0.5104  0.1776
 2953TIP3    H130274   6.443   4.825  15.111  0.3593  0.8242 -0.1698
 2953TIP3    H230275   6.369   4.945  15.058 -0.3558  0.5256  0.1425
 2954TIP3   OH230276   0.254   5.986   4.069  0.5741 -0.5187  0.0142
 2954TIP3    H130277   0.208   6.023   4.144 -0.7198  0.4233 -1.2168
 2954TIP3    H230278   0.249   6.054   4.002  2.0090 -1.2139 -0.8082
 2955TIP3   OH230279   4.046   3.191  12.166 -0.3079 -0.9749 -0.5829
 2955TIP3    H130280   4.074   3.126  12.231  0.1257 -1.2226 -1.0174
 2955TIP3    H230281   4.026   3.269  12.217 -0.3149 -1.2832 -0.1119
 2956TIP3   OH230282   6.235   0.198  12.639  0.2553  0.4439  0.5707
 2956TIP3    H130283   6.301   0.135  12.668 -0.3242 -0.0104  0.9227
 2956TIP3    H230284   6.156   0.175  12.689 -0.8879 -0.6072 -1.6221
 2957TIP3   OH230285   3.156   6.129  16.176 -0.4822 -0.4375 -0.3555
 2957TIP3    H130286   3.076   6.182  16.167 -0.5794 -0.6302 -0.6224
 2957TIP3    H230287   3.193   6.157  16.260 -0.9560 -0.5173 -0.1168
 2958TIP3   OH230288   4.703   5.857   4.726  0.2002 -0.9038  0.5290
 2958TIP3    H130289   4.629   5.884   4.780  0.1035 -0.5610  0.2288
 2958TIP3    H230290   4.710   5.762   4.739  0.8462 -0.6642  1.9725
 2959TIP3   OH230291   3.575   6.479  14.092  0.6256  0.7051 -0.2063
 2959TIP3    H130292   3.512   6.476  14.021 -0.4927  1.9078  0.7081
 2959TIP3    H230293   3.647   6.422  14.063 -0.8134 -0.6018 -1.3000
 2960TIP3   OH230294   2.519   0.960   2.666 -0.0453 -0.5809  0.0067
 2960TIP3    H130295   2.525   1.042   2.617 -1.9088 -1.3545 -1.5794
 2960TIP3    H230296   2.606   0.920   2.657 -0.0718 -0.2506 -1.9105
 2961TIP3   OH230297   1.124   1.039  11.333  0.2359  0.3051 -0.0958
 2961TIP3    H130298   1.104   0.963  11.279  2.0134 -0.2037 -0.0486
 2961TIP3    H230299   1.143   1.109  11.271  0.9104  0.0848 -0.1431
 2962TIP3   OH230300   2.033   4.778   2.077  0.4866  0.2450 -0.0044
 2962TIP3    H130301   2.073   4.833   2.010 -0.4507 -0.2229 -0.9690
 2962TIP3    H230302   2.043   4.688   2.044  0.7798 -0.0581  0.8952
 2963TIP3   OH230303   0.279   6.756   3.189  0.0201 -0.0986 -0.2012
 2963TIP3    H130304   0.278   6.852   3.184 -0.3439 -0.1150 -0.3746
 2963TIP3    H230305   0.372   6.734   3.190  0.1344  0.3393  1.2513
 2964TIP3   OH230306   3.166   4.113  13.521  0.5639 -0.0919 -0.0682
 2964TIP3    H130307   3.121   4.196  13.504 -1.9929 -1.4641 -0.1443
 2964TIP3    H230308   3.145   4.092  13.612  2.0278 -0.1856  0.2634
 2965TIP3   OH230309   5.466   1.265   5.749  0.0690 -0.4465 -0.0671
 2965TIP3    H130310   5.434   1.213   5.676 -0.6901 -1.0992  0.7212
 2965TIP3    H230311   5.511   1.202   5.805  0.7207  0.0663 -0.0127
 2966TIP3   OH230312   3.550   0.112   3.649  0.1201  0.0057  0.1125
 2966TIP3    H130313   3.511   0.166   3.718 -0.0599 -0.0669  0.0669
 2966TIP3    H230314   3.494   0.035   3.644 -0.7207  0.6833 -1.1227
 2967TIP3   OH230315   4.548   3.289  12.242 -0.2827 -0.0899  0.3710
 2967TIP3    H130316   4.618   3.255  12.298 -0.5062  0.5650  1.0603
 2967TIP3    H230317   4.505   3.355  12.296  0.4957  1.6901 -1.1432
 2968TIP3   OH230318   5.308   0.247  11.783 -0.3721  0.2215 -0.7385
 2968TIP3    H130319   5.222   0.245  11.742 -0.0420 -2.3027 -1.3794
 2968TIP3    H230320   5.363   0.297  11.722 -0.5624 -1.0879 -1.9917
 2969TIP3   OH230321   2.266   5.649  15.877 -0.0843 -0.1375  0.4627
 2969TIP3    H130322   2.288   5.556  15.866 -1.0629 -0.5733  1.9962
 2969TIP3    H230323   2.240   5.656  15.969  1.1842  1.9277  0.6753
 2970TIP3   OH230324   6.145   5.296  12.201 -0.8185 -0.2332 -0.4605
 2970TIP3    H130325   6.178   5.241  12.273  1.2590 -0.3812 -1.4960
 2970TIP3    H230326   6.081   5.354  12.243  0.8715  0.1571  1.6587
 2971TIP3   OH230327   0.019   4.724   2.770  0.0334 -0.6324  0.5910
 2971TIP3    H130328  -0.073   4.745   2.787  0.1269 -0.0754  0.4382
 2971TIP3    H230329   0.063   4.809   2.769  0.4912 -0.8699  0.3196
 2972TIP3   OH230330   3.909   6.688   5.586 -0.0008 -0.4981  0.2031
 2972TIP3    H130331   3.968   6.748   5.540 -1.4846 -2.0840 -3.9697
 2972TIP3    H230332   3.830   6.740   5.600 -0.3260 -0.6559 -1.0119
 2973TIP3   OH230333   6.269   2.033  12.933  0.3324 -0.3878 -0.5261
 2973TIP3    H130334   6.232   2.026  12.845 -2.4142 -0.3320  0.5747
 2973TIP3    H230335   6.265   1.944  12.968  0.5943 -0.2465 -0.1226
 2974TIP3   OH230336   1.438   0.102   2.825  0.4390 -0.6475 -0.6734
 2974TIP3    H130337   1.367   0.137   2.771  1.0651  1.9044  0.0983
 2974TIP3    H230338   1.510   0.089   2.764  1.1495  2.2450 -0.5336
 2975TIP3   OH230339   6.216   5.924   1.112 -0.0800 -0.7721  0.4454
 2975TIP3    H130340   6.167   5.973   1.046  1.3007  0.8625  0.6133
 2975TIP3    H230341   6.296   5.897   1.066  0.1513 -1.0002  0.9819
 2976TIP3   OH230342   5.947   1.837   5.418 -0.2063  0.3822  0.1732
 2976TIP3    H130343   5.860   1.829   5.458 -0.2974  0.5015 -0.0009
 2976TIP3    H230344   5.940   1.912   5.359 -0.3374 -0.3390 -0.7424
 2977TIP3   OH230345   4.739   6.095  11.378  0.1008 -0.3540  1.2021
 2977TIP3    H130346   4.656   6.087  11.330 -0.0866  0.3133  1.4149
 2977TIP3    H230347   4.803   6.051  11.323 -0.2849 -0.3575  0.7574
 2978TIP3   OH230348   5.816   6.194   0.967  0.2255 -0.0459  0.2680
 2978TIP3    H130349   5.791   6.261   1.030  0.2285 -0.5545  0.8236
 2978TIP3    H230350   5.877   6.237   0.907 -1.4362  1.0116 -0.6817
 2979TIP3   OH230351   4.901   5.368  11.459 -0.8445  0.0184  0.1005
 2979TIP3    H130352   4.928   5.456  11.433 -1.5565 -0.1668 -1.3009
 2979TIP3    H230353   4.870   5.378  11.549 -0.4620  1.1014  0.1205
 2980TIP3   OH230354   4.594   5.348   2.855 -0.2507  0.4667 -0.6030
 2980TIP3    H130355   4.651   5.283   2.896 -0.1542 -0.3096 -1.9413
 2980TIP3    H230356   4.653   5.399   2.799 -0.3709  1.5525  0.2439
 2981TIP3   OH230357   3.353   4.156   0.384 -0.1393  0.1464 -0.1068
 2981TIP3    H130358   3.405   4.079   0.364 -0.8244 -0.5046  0.6004
 2981TIP3    H230359   3.278   4.123   0.432 -1.1121  1.1019 -0.9392
 2982TIP3   OH230360   6.017   0.894   1.267 -0.4042  0.1368  0.1027
 2982TIP3    H130361   5.996   0.935   1.351 -1.1976  0.5371 -0.2851
 2982TIP3    H230362   6.061   0.812   1.290 -0.7197  0.1957  0.9116
 2983TIP3   OH230363   0.903   5.027   6.478 -0.3647  0.0867 -0.2587
 2983TIP3    H130364   0.987   4.983   6.486 -0.2163  0.2020 -1.0830
 2983TIP3    H230365   0.839   4.962   6.507  0.0753  0.3186  1.2523
 2984TIP3   OH230366   6.540   3.802   2.868 -0.3099  0.3312 -0.1435
 2984TIP3    H130367   6.553   3.895   2.884  2.0435  0.3388 -1.8180
 2984TIP3    H230368   6.514   3.797   2.776 -0.2134 -0.6548 -0.1209
 2985TIP3   OH230369   3.374   2.592  10.912  0.4378  0.0155 -0.6467
 2985TIP3    H130370   3.466   2.606  10.934  0.2282  1.2669 -0.5001
 2985TIP3    H230371   3.376   2.537  10.834  1.2578 -1.6984  0.5371
 2986TIP3   OH230372   3.549   6.214  14.645 -0.1643 -0.3558  0.0543
 2986TIP3    H130373   3.490   6.143  14.621 -2.2076  0.8695  1.3066
 2986TIP3    H230374   3.637   6.181  14.623 -1.1751 -2.7471 -0.5344
 2987TIP3   OH230375   6.679   6.579   4.777 -0.4786  0.4092 -0.4035
 2987TIP3    H130376   6.701   6.514   4.844 -1.8536  0.5281  0.1832
 2987TIP3    H230377   6.763   6.601   4.737  0.1762 -0.7303  0.3045
 2988TIP3   OH230378   3.738   4.054   3.523 -0.5608 -0.5518  0.1160
 2988TIP3    H130379   3.654   4.035   3.564 -1.7225 -2.3874 -2.9858
 2988TIP3    H230380   3.789   3.973   3.534 -0.6211 -0.8036 -1.3754
 2989TIP3   OH230381   5.348   0.717  13.337  0.2291  0.4253 -0.1831
 2989TIP3    H130382   5.435   0.687  13.312  0.2785  0.9829 -0.7086
 2989TIP3    H230383   5.327   0.669  13.417  1.4366  1.0520  0.5181
 2990TIP3   OH230384   3.431   1.535  13.726 -0.5091  0.2052  0.0897
 2990TIP3    H130385   3.451   1.527  13.633 -2.1922 -0.7288 -0.2074
 2990TIP3    H230386   3.499   1.485  13.770 -1.2203 -1.5740 -0.8033
 2991TIP3   OH230387   0.159   5.479  10.887 -0.0101 -0.4532 -0.4949
 2991TIP3    H130388   0.240   5.429  10.902  0.4098  0.1306 -0.8278
 2991TIP3    H230389   0.146   5.477  10.793 -0.0676 -0.0410 -0.4946
 2992TIP3   OH230390   1.963   6.430   3.435 -0.8272 -0.7958 -0.6682
 2992TIP3    H130391   1.902   6.470   3.496 -0.9877 -0.8339 -0.8051
 2992TIP3    H230392   1.995   6.502   3.381  0.0659 -0.6022  0.1116
 2993TIP3   OH230393   3.912   1.313  16.757 -0.1463 -0.5048  0.1145
 2993TIP3    H130394   3.874   1.317  16.844 -0.5572 -3.2181  0.1081
 2993TIP3    H230395   3.836   1.315  16.698 -0.1745 -2.8982  0.0054
 2994TIP3   OH230396   2.929   1.826  16.460 -0.5380  0.4053 -0.2198
 2994TIP3    H130397   2.918   1.843  16.553 -1.2911 -0.4077 -0.1561
 2994TIP3    H230398   3.004   1.880  16.435  0.7141 -0.6257  1.1975
 2995TIP3   OH230399   4.401   2.460   4.275  0.4234  0.2055 -0.0563
 2995TIP3    H130400   4.376   2.445   4.183 -0.2792 -0.4407  0.2371
 2995TIP3    H230401   4.496   2.465   4.273  0.4736 -0.9600 -0.6563
 2996TIP3   OH230402   4.556   1.622   5.871 -0.5404  0.0097  0.4560
 2996TIP3    H130403   4.622   1.553   5.879 -0.7220  0.0279  2.4117
 2996TIP3    H230404   4.542   1.653   5.961 -3.1933  0.0321  0.0935
 2997TIP3   OH230405   1.373   5.436  16.478  0.1230  0.0552 -0.0855
 2997TIP3    H130406   1.457   5.469  16.446  0.8153 -0.6867  0.9323
 2997TIP3    H230407   1.311   5.454  16.407  0.4906  3.4385  0.3985
 2998TIP3   OH230408   6.016   5.132  10.534  0.2037  0.2311  0.6136
 2998TIP3    H130409   6.027   5.227  10.533 -1.2891  0.4037  0.3566
 2998TIP3    H230410   6.087   5.101  10.591  0.6145  1.4996  0.8140
 2999TIP3   OH230411   2.612   5.303   3.253 -0.3688  0.5482 -0.0914
 2999TIP3    H130412   2.528   5.260   3.266  0.2381 -0.3570  0.9951
 2999TIP3    H230413   2.659   5.289   3.335  1.8020 -1.1483 -1.5533
 3000TIP3   OH230414   3.704   1.994   2.762 -0.1648 -0.5049 -0.2675
 3000TIP3    H130415   3.637   2.057   2.789  0.0419 -0.9262  1.2797
 3000TIP3    H230416   3.757   2.041   2.698 -1.2162  0.2354 -0.6001
 3001TIP3   OH230417   5.271   3.886   5.545 -0.5978 -0.5700  0.2047
 3001TIP3    H130418   5.240   3.797   5.560  0.2748 -0.7633  0.8760
 3001TIP3    H230419   5.203   3.926   5.489 -0.9526 -1.6674 -0.1568
 3002TIP3   OH230420   0.460   5.020   0.345 -0.0506  0.0005  0.2199
 3002TIP3    H130421   0.374   4.980   0.363 -0.0346 -0.1806 -0.0907
 3002TIP3    H230422   0.521   4.971   0.400 -0.4642  1.6673  2.2274
 3003TIP3   OH230423   4.603   5.416  15.026 -0.1601  0.0686 -0.1079
 3003TIP3    H130424   4.608   5.421  15.121 -0.0201 -1.0683 -0.0407
 3003TIP3    H230425   4.512   5.435  15.005 -0.3997 -0.5632  0.3283
 3004TIP3   OH230426   6.547   2.801   2.162  0.1962 -0.2212 -0.3819
 3004TIP3    H130427   6.454   2.787   2.178  0.3674  1.1172  2.0618
 3004TIP3    H230428   6.553   2.893   2.134  0.5773 -0.8825 -2.5447
 3005TIP3   OH230429   3.974   2.604   4.550 -0.7085 -0.2490  0.3506
 3005TIP3    H130430   4.015   2.583   4.466 -1.2123  0.6135 -0.1260
 3005TIP3    H230431   3.911   2.534   4.564 -1.4825  0.2429 -0.5945
 3006TIP3   OH230432   0.821   1.920  13.213  0.4668  0.3706 -0.0539
 3006TIP3    H130433   0.741   1.962  13.247  0.9364  1.0240  0.2663
 3006TIP3    H230434   0.882   1.993  13.199  1.8352 -0.3353  1.9840
 3007TIP3   OH230435   1.272   4.177  12.839  0.3557  0.1343  0.1603
 3007TIP3    H130436   1.302   4.133  12.760 -0.9846 -0.9014  0.2142
 3007TIP3    H230437   1.231   4.108  12.891  0.4887  0.9658  1.3864
 3008TIP3   OH230438   2.153   2.992   5.121 -0.1509  0.2624 -0.5541
 3008TIP3    H130439   2.108   3.073   5.147  0.0160 -0.3302  1.6926
 3008TIP3    H230440   2.149   2.936   5.199  0.0277 -1.7782 -1.9721
 3009TIP3   OH230441   6.347   1.844  12.101  0.0965 -0.5003 -0.5763
 3009TIP3    H130442   6.436   1.856  12.070  0.7061  0.4754  1.5026
 3009TIP3    H230443   6.292   1.880  12.032  1.3238 -0.6819 -1.6541
 3010TIP3   OH230444   5.696   4.249  14.599 -0.4129  0.0072 -0.1083
 3010TIP3    H130445   5.660   4.193  14.667 -0.9804 -1.5246 -1.6539
 3010TIP3    H230446   5.749   4.191  14.545 -1.9107  0.7122 -2.3878
 3011TIP3   OH230447   4.120   6.371   1.963 -0.4894 -0.0206  0.2899
 3011TIP3    H130448   4.041   6.420   1.985  0.2980  1.3979  0.0010
 3011TIP3    H230449   4.192   6.427   1.992  0.4118 -1.6897  1.3654
 3012TIP3   OH230450   0.428   3.230  14.550 -0.0299  0.0880  0.6899
 3012TIP3    H130451   0.335   3.221  14.527 -1.0076 -0.8385  4.5907
 3012TIP3    H230452   0.442   3.325  14.555 -0.8677  0.2242  0.5166
 3013TIP3   OH230453   1.869   0.611   2.853 -0.0382  0.0779  0.3300
 3013TIP3    H130454   1.950   0.560   2.856  0.4277  0.8942  3.2761
 3013TIP3    H230455   1.801   0.548   2.830  1.1799 -0.9831 -0.3802
 3014TIP3   OH230456   2.626   2.012  16.862 -0.5152  0.3025 -0.2303
 3014TIP3    H130457   2.567   1.950  16.907 -0.6450  0.4927 -0.1400
 3014TIP3    H230458   2.597   2.098  16.892 -0.7799  0.4465 -0.8875
 3015TIP3   OH230459   1.772   1.497   1.271  0.1574 -0.2998  0.6518
 3015TIP3    H130460   1.808   1.427   1.216 -1.1034  0.3930 -1.0882
 3015TIP3    H230461   1.678   1.479   1.274  0.3296 -1.0351  3.6350
 3016TIP3   OH230462   5.880   4.196   0.633 -0.9386 -0.5806  0.7823
 3016TIP3    H130463   5.911   4.109   0.656  0.2267 -0.5110 -0.4577
 3016TIP3    H230464   5.880   4.197   0.537 -1.7539  0.4934  0.7833
 3017TIP3   OH230465   2.220   3.162   0.787 -0.1653  0.6310  0.3587
 3017TIP3    H130466   2.224   3.252   0.820  1.0543  1.3035 -1.5855
 3017TIP3    H230467   2.171   3.114   0.855  0.5388  2.3995  2.1640
 3018TIP3   OH230468   1.726   5.270   0.672 -0.0903  0.1690 -0.3380
 3018TIP3    H130469   1.685   5.231   0.595 -1.7431 -0.6229  0.8999
 3018TIP3    H230470   1.652   5.292   0.729  0.9308  3.2225 -0.1125
 3019TIP3   OH230471   4.934   3.010   5.523 -0.3006 -0.6245 -0.0316
 3019TIP3    H130472   4.889   2.988   5.441 -0.9461  0.1891  0.0979
 3019TIP3    H230473   4.912   2.937   5.581  0.5522 -1.4481 -0.7232
 3020TIP3   OH230474   5.061   6.643  14.035 -0.4573 -0.0179 -0.3950
 3020TIP3    H130475   4.997   6.576  14.059 -1.2249 -0.1734 -2.7380
 3020TIP3    H230476   5.072   6.632  13.940  3.4309 -0.3295  0.0312
 3021TIP3   OH230477   1.879   5.782   4.732 -0.0714 -0.1831  0.0245
 3021TIP3    H130478   1.827   5.709   4.765  1.9650 -0.9085  1.7011
 3021TIP3    H230479   1.867   5.851   4.796 -1.3600  0.7120 -1.1544
 3022TIP3   OH230480   5.017   2.957   3.796 -0.5414  0.1249  0.2510
 3022TIP3    H130481   5.070   3.008   3.735 -0.4799  0.9943  1.0128
 3022TIP3    H230482   5.060   2.872   3.800 -1.3117 -0.3984 -1.9203
 3023TIP3   OH230483   4.361   0.669   4.471  0.2601 -0.1054  0.0081
 3023TIP3    H130484   4.439   0.697   4.423 -0.3728  0.4822 -0.6890
 3023TIP3    H230485   4.380   0.578   4.496  0.7637 -0.3062 -1.0375
 3024TIP3   OH230486   0.251   1.574   2.852  0.0996  0.5565  0.0078
 3024TIP3    H130487   0.163   1.574   2.813  0.7872  1.7158 -1.5791
 3024TIP3    H230488   0.259   1.487   2.891 -2.5278  1.1206  1.9559
 3025TIP3   OH230489   1.227   0.003  12.552 -0.1771 -0.1467 -0.0313
 3025TIP3    H130490   1.280   0.071  12.509  0.0748 -0.3486 -0.0364
 3025TIP3    H230491   1.197  -0.052  12.480 -2.2410  1.2460 -0.2848
 3026TIP3   OH230492   0.098   4.697  12.201  0.0505  0.4945 -0.2891
 3026TIP3    H130493   0.103   4.640  12.125 -2.4022  1.0251 -0.9028
 3026TIP3    H230494   0.067   4.781  12.166 -2.0503  0.4691  1.3786
 3027TIP3   OH230495   4.514   2.849  10.573  0.3380 -0.0942  0.2416
 3027TIP3    H130496   4.604   2.819  10.590  0.4505 -1.2605 -2.1164
 3027TIP3    H230497   4.518   2.944  10.584  1.7963 -0.1636  0.4890
 3028TIP3   OH230498   3.664   0.337  15.365  0.3965  0.4246 -0.8525
 3028TIP3    H130499   3.736   0.286  15.402 -1.3155 -0.6384  1.1149
 3028TIP3    H230500   3.699   0.426  15.358  1.3588  0.2868  1.7225
 3029TIP3   OH230501   2.268   4.791   5.393  0.4760 -0.8375 -0.7484
 3029TIP3    H130502   2.314   4.811   5.475  0.3503 -0.0239 -0.8788
 3029TIP3    H230503   2.176   4.808   5.413  0.2840 -1.9013 -0.6676
 3030TIP3   OH230504   2.968   0.378  11.862 -0.0574 -0.0798 -0.5196
 3030TIP3    H130505   2.900   0.312  11.873  0.6869 -0.8275 -0.3688
 3030TIP3    H230506   2.960   0.434  11.940 -0.1926 -0.4438 -0.2713
 3031TIP3   OH230507   5.232   3.727   4.418 -0.2342  0.2548 -0.6706
 3031TIP3    H130508   5.293   3.764   4.354  0.2685 -2.0325 -1.5316
 3031TIP3    H230509   5.266   3.640   4.437 -2.3009 -0.4163  0.1035
 3032TIP3   OH230510   4.457   5.519  15.487  0.2182 -0.0741 -0.0103
 3032TIP3    H130511   4.525   5.577  15.520  0.4682 -0.0920 -0.4849
 3032TIP3    H230512   4.487   5.495  15.399 -1.0872  1.0577 -0.7948
 3033TIP3   OH230513   0.225   0.691   1.522 -0.3915 -0.1914  0.5069
 3033TIP3    H130514   0.298   0.632   1.538 -1.2481 -0.8848  2.0520
 3033TIP3    H230515   0.149   0.633   1.512 -0.5820  0.4676 -2.0293
 3034TIP3   OH230516   0.837   0.148   1.658  0.4089 -0.2815 -0.0593
 3034TIP3    H130517   0.854   0.237   1.628  0.5717 -0.4038 -0.3416
 3034TIP3    H230518   0.890   0.138   1.737  2.0937 -0.8321 -1.2270
 3035TIP3   OH230519   0.281   4.090   3.232  0.2671  0.0823  0.5380
 3035TIP3    H130520   0.191   4.079   3.263 -0.3845  2.2612 -0.4436
 3035TIP3    H230521   0.302   4.007   3.190 -1.7001 -0.0822 -0.1847
 3036TIP3   OH230522   5.535   3.418   0.617 -0.3374  0.0507  0.0258
 3036TIP3    H130523   5.629   3.431   0.627 -0.2231 -0.1003 -0.8208
 3036TIP3    H230524   5.512   3.473   0.542 -0.6074 -1.3285 -0.9067
 3037TIP3   OH230525   5.681   0.618   5.540  0.4207 -0.1052  0.6251
 3037TIP3    H130526   5.695   0.534   5.497  0.5857  0.0858  0.3118
 3037TIP3    H230527   5.761   0.633   5.591  0.1216 -0.4548  1.2094
 3038TIP3   OH230528   5.007   5.448  14.096 -0.0104  0.2514  0.4627
 3038TIP3    H130529   5.026   5.431  14.003 -1.7894  1.3084 -0.1340
 3038TIP3    H230530   4.952   5.374  14.123 -1.2695  1.0215  0.0547
 3039TIP3   OH230531   3.481   5.311   4.805  0.5995 -0.0595 -0.8910
 3039TIP3    H130532   3.458   5.227   4.766 -0.8111  0.2944 -0.8516
 3039TIP3    H230533   3.562   5.293   4.852  0.7717 -1.1901 -1.5807
 3040TIP3   OH230534   5.336   0.924   5.417  0.9156 -0.0155  0.2428
 3040TIP3    H130535   5.421   0.892   5.388  0.0126  0.3584 -2.9773
 3040TIP3    H230536   5.274   0.855   5.392  0.2390 -0.3949  2.7599
 3041TIP3   OH230537   6.259   1.682   3.541 -0.0884  0.5214  0.4260
 3041TIP3    H130538   6.193   1.664   3.608  1.4485 -0.2898  1.7484
 3041TIP3    H230539   6.330   1.621   3.560  0.8317  1.0173 -1.3049
 3042TIP3   OH230540   3.123   3.490   6.288 -0.0860 -0.0115 -0.4558
 3042TIP3    H130541   3.044   3.526   6.247  0.9594  0.8678 -1.7594
 3042TIP3    H230542   3.148   3.555   6.354 -0.7754 -0.5777  0.3729
 3043TIP3   OH230543   1.743   5.474   2.499  0.2998  0.4911 -0.2060
 3043TIP3    H130544   1.735   5.452   2.592 -0.3497 -1.9020 -0.7854
 3043TIP3    H230545   1.662   5.439   2.460  0.9846  0.6733 -1.8137
 3044TIP3   OH230546   0.591   2.901  11.686 -0.7222 -0.1264 -0.0586
 3044TIP3    H130547   0.502   2.868  11.671 -0.1263 -1.6079 -0.4297
 3044TIP3    H230548   0.609   2.956  11.610 -0.6468 -1.3059 -0.9105
 3045TIP3   OH230549   1.161   0.038  14.525  0.3060 -0.0598  0.2264
 3045TIP3    H130550   1.134  -0.019  14.453  0.1335 -2.8853  2.4818
 3045TIP3    H230551   1.256   0.030  14.527  0.4443  1.0975 -0.4830
 3046TIP3   OH230552   5.005   6.595   4.278  0.1120  0.5405  0.3164
 3046TIP3    H130553   5.025   6.590   4.371  1.5281 -2.1936 -0.0848
 3046TIP3    H230554   5.090   6.608   4.236 -0.3379  0.3166 -0.6794
 3047TIP3   OH230555   1.772   5.070  10.734 -0.1129  0.0478  0.3230
 3047TIP3    H130556   1.855   5.085  10.688  0.1292  1.4523  1.1932
 3047TIP3    H230557   1.706   5.113  10.680  0.1025  1.2568  1.0043
 3048TIP3   OH230558   6.065   0.824  13.880  0.6657 -0.2671 -0.3560
 3048TIP3    H130559   6.040   0.870  13.800  1.1345 -0.4506 -0.6076
 3048TIP3    H230560   6.156   0.797  13.865  1.1005  0.5748  0.6295
 3049TIP3   OH230561   2.104   3.677  13.381  0.1517  0.3583  0.1071
 3049TIP3    H130562   2.195   3.658  13.405 -0.2568 -1.1522  0.5655
 3049TIP3    H230563   2.061   3.696  13.464 -0.7135 -2.4266  0.3620
 3050TIP3   OH230564   6.780   5.466  12.026 -0.7858 -0.0026  0.4745
 3050TIP3    H130565   6.715   5.524  11.987 -1.2357 -0.1814  0.9535
 3050TIP3    H230566   6.812   5.413  11.953 -2.7077 -1.3852  0.5965
 3051TIP3   OH230567   2.075   5.059  14.868  0.2511 -0.3645 -0.4290
 3051TIP3    H130568   2.145   5.033  14.809  0.5983  1.4331 -0.8284
 3051TIP3    H230569   2.027   5.127  14.821 -0.2756  0.1388  0.7979
 3052TIP3   OH230570   4.211   5.133  16.489  0.3346  0.2612 -0.4886
 3052TIP3    H130571   4.157   5.116  16.412  1.2314 -0.1665 -1.0287
 3052TIP3    H230572   4.156   5.108  16.563 -2.0860  4.4160 -0.7046
 3053TIP3   OH230573   4.112   4.751   4.365 -0.1302 -0.0639  0.1009
 3053TIP3    H130574   4.164   4.670   4.367 -0.4707 -0.3156 -0.8127
 3053TIP3    H230575   4.114   4.783   4.454  2.7193  0.6356 -0.1827
 3054TIP3   OH230576   5.318   1.563   1.592 -0.1455  0.1069 -0.0371
 3054TIP3    H130577   5.250   1.600   1.536  1.7238  1.8698 -1.1581
 3054TIP3    H230578   5.275   1.552   1.677 -2.2189 -0.0859 -1.0789
 3055TIP3   OH230579   2.750   0.310   0.083  0.3080  0.3383  0.2415
 3055TIP3    H130580   2.673   0.256   0.097  0.8083 -0.5029 -0.2208
 3055TIP3    H230581   2.812   0.282   0.150  1.0550 -0.6002 -0.8161
 3056TIP3   OH230582   1.182   2.596  16.039  0.5521 -0.5631 -0.5885
 3056TIP3    H130583   1.230   2.623  15.961 -0.1780 -1.5546 -1.3857
 3056TIP3    H230584   1.096   2.569  16.007  0.3447 -1.2551  0.5268
 3057TIP3   OH230585   5.362   3.873   6.012 -0.0738 -0.3778  0.0660
 3057TIP3    H130586   5.276   3.833   6.007  0.0561 -0.7443  0.6635
 3057TIP3    H230587   5.374   3.894   6.104 -0.8513  2.6550 -0.4975
 3058TIP3   OH230588   1.940   1.745   0.035  0.6518 -0.5788 -0.7397
 3058TIP3    H130589   2.010   1.761  -0.029 -0.2861  0.5223 -1.5165
 3058TIP3    H230590   1.864   1.721  -0.019  0.1159 -0.5972  0.0231
 3059TIP3   OH230591   4.215   1.136  12.600 -0.1128  0.2635  0.2331
 3059TIP3    H130592   4.249   1.145  12.689 -2.2056 -1.5565  1.2764
 3059TIP3    H230593   4.131   1.181  12.602 -0.4183 -0.2581 -0.6725
 3060TIP3   OH230594   4.340   4.504   0.738 -0.0617 -0.2867 -0.0230
 3060TIP3    H130595   4.384   4.505   0.653  0.1438 -0.7838  0.0727
 3060TIP3    H230596   4.399   4.553   0.796 -1.4961  2.4098 -0.7735
 3061TIP3   OH230597   3.635   2.893  12.242  0.7056 -0.2420  0.1419
 3061TIP3    H130598   3.682   2.973  12.269  0.6315 -0.4790  0.9979
 3061TIP3    H230599   3.701   2.841  12.196  1.5077 -0.9236  2.0235
 3062TIP3   OH230600   3.980   4.176  14.443  0.3340 -0.4460 -0.5195
 3062TIP3    H130601   4.053   4.142  14.390 -0.3164 -0.9738 -1.0847
 3062TIP3    H230602   3.917   4.208  14.379  0.3202  0.5475 -0.0111
 3063TIP3   OH230603   5.683   6.594  14.135  0.2781 -0.2597  0.2702
 3063TIP3    H130604   5.605   6.564  14.088 -0.7410  0.4176  1.5070
 3063TIP3    H230605   5.693   6.532  14.207  0.9944 -0.4373  0.0270
 3064TIP3   OH230606   2.545   4.853   0.080  0.8844 -0.0235  0.4806
 3064TIP3    H130607   2.473   4.840   0.018  0.3168 -0.1829  1.1701
 3064TIP3    H230608   2.580   4.765   0.094 -0.2700 -0.2747  1.9157
 3065TIP3   OH230609   4.507   2.614   5.081  0.1540  0.0644 -0.1633
 3065TIP3    H130610   4.540   2.681   5.021  1.6880 -0.1154  0.4674
 3065TIP3    H230611   4.576   2.548   5.083  0.1558  0.1088  1.8788
 3066TIP3   OH230612   1.457   4.957  10.363 -0.4334  0.5191  0.3612
 3066TIP3    H130613   1.432   5.019  10.295  0.6258 -1.4281 -1.8654
 3066TIP3    H230614   1.392   4.970  10.432  0.0631  4.4380  0.2076
 3067TIP3   OH230615   3.241   5.156   2.818 -0.0575  0.2742  0.2936
 3067TIP3    H130616   3.208   5.068   2.800  1.3027 -0.5194  1.5544
 3067TIP3    H230617   3.335   5.150   2.802 -0.0538  1.6874 -0.2719
 3068TIP3   OH230618   2.980   4.808   4.471  0.3718 -0.2272  0.4536
 3068TIP3    H130619   2.968   4.860   4.392  1.6356  1.0494  1.0831
 3068TIP3    H230620   2.902   4.753   4.475 -1.4691  2.2823  0.2711
 3069TIP3   OH230621   1.370   6.677   3.866 -0.2689 -0.6709  0.2551
 3069TIP3    H130622   1.411   6.593   3.885 -1.8608 -1.7440 -0.9278
 3069TIP3    H230623   1.415   6.709   3.788  0.2671 -0.4759  0.6440
 3070TIP3   OH230624   6.712   2.536  12.003 -0.2400 -0.3925 -0.0950
 3070TIP3    H130625   6.735   2.547  11.911  1.2250 -0.4706  0.2593
 3070TIP3    H230626   6.751   2.610  12.048 -1.8875  0.2513  0.3302
 3071TIP3   OH230627   4.083   0.875  13.065  0.1243 -0.1419  0.1233
 3071TIP3    H130628   4.153   0.886  13.129  0.3379 -2.2634  0.2844
 3071TIP3    H230629   4.127   0.861  12.982 -0.0795 -1.2925  0.1928
 3072TIP3   OH230630   3.138   4.141   5.009 -0.8638 -0.4862 -0.4547
 3072TIP3    H130631   3.106   4.215   5.061 -0.7512 -0.5295 -0.3251
 3072TIP3    H230632   3.206   4.179   4.953 -0.5493 -0.5645 -0.1282
 3073TIP3   OH230633   5.513   1.540  12.739  0.1127 -0.3482 -0.5845
 3073TIP3    H130634   5.443   1.583  12.789 -1.6644 -2.8079 -0.8535
 3073TIP3    H230635   5.496   1.565  12.648  2.5320  3.0054 -0.1998
 3074TIP3   OH230636   3.571   1.692  12.480 -0.2539 -0.2015 -0.4955
 3074TIP3    H130637   3.569   1.696  12.575 -0.5976 -0.3289 -0.4984
 3074TIP3    H230638   3.486   1.726  12.452 -0.1507 -0.1558 -0.7564
 3075TIP3   OH230639   0.866   0.293  10.438 -0.0565  0.6918 -0.6802
 3075TIP3    H130640   0.786   0.268  10.393  0.7401 -0.0691 -1.6979
 3075TIP3    H230641   0.870   0.388  10.427 -2.0775  1.0654  1.5147
 3076TIP3   OH230642   0.588   6.164   5.561  1.0749  0.4868 -0.1348
 3076TIP3    H130643   0.502   6.131   5.533  0.6831  1.0507  0.3783
 3076TIP3    H230644   0.628   6.090   5.606  1.2429 -0.0674 -1.1872
 3077TIP3   OH230645   0.002   0.192   2.000 -0.1279  0.2938  0.1520
 3077TIP3    H130646  -0.014   0.272   1.950  0.1570  0.3121  0.0915
 3077TIP3    H230647   0.071   0.215   2.062 -0.6233  0.3258  0.6927
 3078TIP3   OH230648   5.555   2.455   4.008 -0.3676 -0.1843 -0.2632
 3078TIP3    H130649   5.531   2.363   4.021  0.5063 -0.3315  0.3807
 3078TIP3    H230650   5.637   2.465   4.056 -0.4347  0.9268 -0.3720
 3079TIP3   OH230651   2.876   5.611   2.968 -0.0362  0.2355  0.4895
 3079TIP3    H130652   2.829   5.531   2.994  0.4935 -0.9680 -2.1606
 3079TIP3    H230653   2.967   5.595   2.995 -0.4603  1.1911  2.5966
 3080TIP3   OH230654   6.407   5.870   2.779  0.5143  0.0315  0.1966
 3080TIP3    H130655   6.498   5.842   2.777  0.0339 -1.5605 -2.5832
 3080TIP3    H230656   6.405   5.949   2.724  0.0882 -0.3993 -0.4123
 3081TIP3   OH230657   4.883   6.138  13.032  0.1792  0.0388 -0.8770
 3081TIP3    H130658   4.918   6.062  13.079  1.3177  0.1789 -1.4841
 3081TIP3    H230659   4.941   6.149  12.957 -1.2724  0.1956 -2.0034
 3082TIP3   OH230660   5.209   2.735   0.716  0.0645  0.1994 -0.0037
 3082TIP3    H130661   5.293   2.776   0.739  0.6055 -0.8485 -0.0604
 3082TIP3    H230662   5.217   2.645   0.749 -1.1379  0.1631  0.1995
 3083TIP3   OH230663   1.242   2.098   4.998 -0.1146  0.0111  0.0030
 3083TIP3    H130664   1.209   2.079   4.910  0.6486 -1.1647 -0.0381
 3083TIP3    H230665   1.310   2.033   5.013 -0.7815 -0.3258  1.7825
 3084TIP3   OH230666   2.367   5.194   3.231  0.3819  0.2720 -0.5274
 3084TIP3    H130667   2.332   5.223   3.316  0.0029 -0.9810 -0.2387
 3084TIP3    H230668   2.392   5.103   3.246  0.4477  0.0915 -1.7293
 3085TIP3   OH230669   4.978   3.812   5.682  0.3588  0.2642  0.0968
 3085TIP3    H130670   4.904   3.775   5.634  1.3105  0.7770 -1.8433
 3085TIP3    H230671   4.976   3.769   5.767 -3.6131  2.0708  1.0194
 3086TIP3   OH230672   5.630   4.091  12.756  0.2404  0.0717  0.4937
 3086TIP3    H130673   5.708   4.063  12.707  1.5577  2.9198  0.8781
 3086TIP3    H230674   5.665   4.133  12.834 -1.7790 -0.7430  1.8600
 3087TIP3   OH230675   1.325   4.244   0.341  0.3658 -0.0034  0.3297
 3087TIP3    H130676   1.255   4.214   0.282  1.0520 -2.0561  0.5211
 3087TIP3    H230677   1.298   4.332   0.366 -0.8413  0.2331 -1.6552
 3088TIP3   OH230678   4.866   0.486   1.562  0.0527  0.0980  0.2596
 3088TIP3    H130679   4.819   0.407   1.590  1.3528 -1.3008 -1.3822
 3088TIP3    H230680   4.802   0.535   1.510 -0.4041 -0.4968  0.2532
 3089TIP3   OH230681   1.327   3.747   6.484 -0.7030 -0.3572  0.3279
 3089TIP3    H130682   1.377   3.754   6.403 -0.7036 -0.0507  0.3516
 3089TIP3    H230683   1.385   3.700   6.544 -1.7180 -2.9591 -0.6610
 3090TIP3   OH230684   3.979   1.367   1.511 -0.0027 -0.1276 -0.4392
 3090TIP3    H130685   3.960   1.293   1.569 -1.5578  0.1251 -0.5975
 3090TIP3    H230686   3.959   1.334   1.423  0.3079  0.1436 -0.6102
 3091TIP3   OH230687   4.699   2.471  14.276 -0.7778 -0.9559  0.1294
 3091TIP3    H130688   4.647   2.550  14.290 -0.0053 -0.6025  1.0394
 3091TIP3    H230689   4.635   2.404  14.254 -1.4449 -0.0951 -0.5865
 3092TIP3   OH230690   6.547   5.311  15.909  0.1073  0.1946  0.1234
 3092TIP3    H130691   6.488   5.382  15.934  0.7749  0.4445  1.0092
 3092TIP3    H230692   6.605   5.350  15.843 -0.8782 -0.1278 -0.9516
 3093TIP3   OH230693   3.168   2.278   4.387 -0.1914  0.2760  0.1496
 3093TIP3    H130694   3.199   2.306   4.473 -0.8003  0.9190  0.1742
 3093TIP3    H230695   3.247   2.258   4.338  0.1564 -0.2042  0.8980
 3094TIP3   OH230696   6.140   3.528   2.776  0.0911  0.3353  0.5720
 3094TIP3    H130697   6.151   3.441   2.816 -2.3797 -0.1558  0.2863
 3094TIP3    H230698   6.203   3.529   2.704  1.0418 -0.7204  1.3623
 3095TIP3   OH230699   2.769   0.026  16.947 -0.0341 -0.1158 -0.7136
 3095TIP3    H130700   2.822   0.064  16.876 -0.4972  0.8440 -0.5552
 3095TIP3    H230701   2.833  -0.011  17.008  0.4140  0.0843 -1.0608
 3096TIP3   OH230702   1.573   0.335  13.076  0.4044 -0.6495 -0.6897
 3096TIP3    H130703   1.622   0.301  13.001 -1.7674 -3.1120 -1.0881
 3096TIP3    H230704   1.485   0.352  13.041 -0.1736 -0.2376  0.9068
 3097TIP3   OH230705   2.856   5.702  10.659  0.1421 -0.2823 -0.8799
 3097TIP3    H130706   2.900   5.639  10.602  0.2820 -0.4978 -0.5301
 3097TIP3    H230707   2.904   5.698  10.742 -1.7380 -1.9338  0.1674
 3098TIP3   OH230708   1.942   2.170  16.588 -0.0877 -0.1453 -0.0532
 3098TIP3    H130709   1.996   2.242  16.557 -0.5496  1.1901  2.0858
 3098TIP3    H230710   1.866   2.170  16.530  0.7069 -0.0110 -1.1059
 3099TIP3   OH230711   1.609   1.868  16.222  0.1381 -0.9524  0.2036
 3099TIP3    H130712   1.703   1.858  16.239 -0.1603 -1.3192  1.7189
 3099TIP3    H230713   1.604   1.936  16.155  1.4712 -0.7283  0.3137
 3100TIP3   OH230714   6.419   1.474   4.862 -0.9968  0.2070  0.3240
 3100TIP3    H130715   6.351   1.479   4.929 -1.0660  2.1068  0.1242
 3100TIP3    H230716   6.403   1.549   4.805  1.9609  1.4074  0.9612
 3101TIP3   OH230717   3.550   4.061  14.041 -0.2622 -0.1982  0.2665
 3101TIP3    H130718   3.548   4.056  13.945 -3.0199 -3.1181  0.4005
 3101TIP3    H230719   3.597   3.982  14.067 -0.7834 -0.1559  1.3348
 3102TIP3   OH230720   2.026   6.072  17.237  0.1485  0.2508 -0.3129
 3102TIP3    H130721   2.067   5.987  17.254  0.9064  1.1079  2.4517
 3102TIP3    H230722   1.933   6.058  17.257  0.4494  0.3326  1.1775
 3103TIP3   OH230723   4.476   2.802  12.945  0.1372  0.3395  0.0385
 3103TIP3    H130724   4.473   2.898  12.947  0.7118  0.3428  3.2377
 3103TIP3    H230725   4.534   2.778  13.018  0.8177 -2.4292 -1.3326
 3104TIP3   OH230726   0.769   1.397  13.607 -0.3795 -0.5459 -0.1174
 3104TIP3    H130727   0.751   1.430  13.695 -0.0859 -0.2780 -0.1554
 3104TIP3    H230728   0.750   1.304  13.611 -1.2266 -0.3756 -0.0053
 3105TIP3   OH230729   3.503   4.573  12.984 -0.3127 -0.2965  0.2814
 3105TIP3    H130730   3.556   4.612  13.054 -0.0407 -2.2218  1.1736
 3105TIP3    H230731   3.413   4.590  13.010 -0.1890  1.9054 -0.6110
 3106TIP3   OH230732   3.939   5.567   3.431  0.4986  0.6048 -0.2143
 3106TIP3    H130733   3.949   5.492   3.373  0.0525 -0.0947  0.6092
 3106TIP3    H230734   4.029   5.589   3.457  0.6030  0.1280 -0.1641
 3107TIP3   OH230735   4.139   2.508   0.328 -0.1380  0.1958  0.7000
 3107TIP3    H130736   4.054   2.504   0.284 -1.0739 -0.4071  2.5166
 3107TIP3    H230737   4.198   2.462   0.269 -0.2715  3.5215 -2.2319
 3108TIP3   OH230738   2.387   5.824   6.618 -0.9227 -0.0070 -0.3954
 3108TIP3    H130739   2.475   5.797   6.593 -1.9329 -1.9414 -2.0057
 3108TIP3    H230740   2.357   5.878   6.544 -1.4713 -0.2159 -0.3286
 3109TIP3   OH230741   1.958   0.505  13.659 -0.1269 -0.6846 -0.0718
 3109TIP3    H130742   1.981   0.598  13.654  0.1657 -0.8235 -1.5064
 3109TIP3    H230743   2.027   0.466  13.712 -1.2599  0.2223  2.1410
 3110TIP3   OH230744   4.997   0.271   5.382  0.2204  0.2931 -0.5857
 3110TIP3    H130745   4.986   0.365   5.371 -0.5442  0.5661  2.3457
 3110TIP3    H230746   4.911   0.239   5.408  0.7387 -1.0740 -0.5027
 3111TIP3   OH230747   0.167   3.607   5.338  0.0565  0.1027  0.2632
 3111TIP3    H130748   0.107   3.625   5.265 -2.0559  0.5280  2.0569
 3111TIP3    H230749   0.255   3.613   5.299 -0.9573  2.2135 -1.8328
 3112TIP3   OH230750   4.997   0.009  12.632 -0.0855 -0.1301 -0.1478
 3112TIP3    H130751   5.058   0.036  12.700 -0.1957  1.4913 -0.6738
 3112TIP3    H230752   4.925   0.072  12.638 -1.4104 -1.6584  0.0630
 3113TIP3   OH230753   5.775   1.219  14.776 -0.1526 -0.1231 -0.4743
 3113TIP3    H130754   5.768   1.150  14.842 -4.8508 -0.0203 -0.6952
 3113TIP3    H230755   5.771   1.174  14.692  3.4582 -0.0347 -0.7966
 3114TIP3   OH230756   4.916   5.261  12.809 -0.4132  0.6905  0.6077
 3114TIP3    H130757   4.961   5.288  12.729  0.6174 -0.6529  0.7171
 3114TIP3    H230758   4.985   5.254  12.875 -0.5555 -2.3569  0.5281
 3115TIP3   OH230759   4.267   0.149  14.300 -0.2858  0.3619 -0.4035
 3115TIP3    H130760   4.186   0.179  14.259 -0.9694  0.1839  0.8058
 3115TIP3    H230761   4.238   0.091  14.371  0.9415 -1.2356 -1.1742
 3116TIP3   OH230762   4.960   1.939   0.267  0.1651  0.0636  0.2152
 3116TIP3    H130763   5.045   1.897   0.279 -0.7089 -1.1819  2.3241
 3116TIP3    H230764   4.902   1.869   0.240 -0.4887  0.6553  0.0697
 3117TIP3   OH230765   0.571   4.957  10.827 -0.1354  0.0657 -0.6437
 3117TIP3    H130766   0.604   4.869  10.843 -1.7397 -0.4904 -0.3600
 3117TIP3    H230767   0.642   5.001  10.780  1.6258 -0.6391  1.2532
 3118TIP3   OH230768   4.999   2.510   6.313 -0.2273 -0.2399  0.4093
 3118TIP3    H130769   4.957   2.438   6.266  0.9808 -0.2677 -0.6513
 3118TIP3    H230770   5.060   2.467   6.373  0.2615 -0.1087  0.0048
 3119TIP3   OH230771   1.360   4.833   4.799  0.3716 -0.1547  0.2164
 3119TIP3    H130772   1.282   4.814   4.747  0.5625  1.6305 -0.7563
 3119TIP3    H230773   1.344   4.919   4.837  0.7375 -0.9387  2.1954
 3120TIP3   OH230774   0.029   5.812   1.224  0.0795  0.3209  0.1995
 3120TIP3    H130775   0.021   5.727   1.266 -1.3984  0.7595  0.8397
 3120TIP3    H230776   0.007   5.796   1.132 -2.4548  0.4205  0.7735
 3121TIP3   OH230777   6.083   0.489  11.257  0.5925  0.3077 -0.3133
 3121TIP3    H130778   6.114   0.426  11.192 -0.3932  1.2324 -1.7067
 3121TIP3    H230779   6.136   0.472  11.335  2.1649 -0.4520 -1.5358
 3122TIP3   OH230780   5.834   5.923  10.865 -0.7586  0.1032 -0.0695
 3122TIP3    H130781   5.920   5.919  10.909  0.3028  0.9797 -2.0037
 3122TIP3    H230782   5.830   5.842  10.815 -0.9682  0.1783 -0.1715
 3123TIP3   OH230783   0.334   4.324  12.138 -0.2087  0.0788  0.4552
 3123TIP3    H130784   0.391   4.376  12.081 -0.3931  1.2369  1.2945
 3123TIP3    H230785   0.267   4.289  12.080 -0.2439  1.0387 -0.0970
 3124TIP3   OH230786   1.505   0.764   4.554  0.7795 -0.5086  0.3625
 3124TIP3    H130787   1.478   0.804   4.636  1.4346 -1.6274  1.1231
 3124TIP3    H230788   1.559   0.831   4.511 -0.1360  0.3361  0.5039
 3125TIP3   OH230789   5.538   2.282  16.019  0.2585 -0.1371 -0.9115
 3125TIP3    H130790   5.511   2.191  16.029  1.0157 -0.2832 -0.1901
 3125TIP3    H230791   5.535   2.298  15.925  0.6047 -1.0458 -1.0792
 3126TIP3   OH230792   1.151   6.317   4.193  0.2823 -0.4598 -0.7580
 3126TIP3    H130793   1.152   6.335   4.287  1.0244  0.3816 -0.9204
 3126TIP3    H230794   1.243   6.322   4.167 -0.1061  1.1722 -1.8696
 3127TIP3   OH230795   2.855   4.377   1.585  0.1856  0.4328 -0.1059
 3127TIP3    H130796   2.808   4.328   1.652  0.2559 -1.4685 -1.4144
 3127TIP3    H230797   2.808   4.460   1.578 -1.6561 -0.5797  0.1128
 3128TIP3   OH230798   0.808   4.709   3.576  0.5229 -0.2195  0.3695
 3128TIP3    H130799   0.891   4.709   3.625  0.7320  0.0638  0.0132
 3128TIP3    H230800   0.817   4.638   3.513 -0.6773 -2.1832  2.3020
 3129TIP3   OH230801   6.234   0.849   5.284 -0.0346 -0.3130  0.6894
 3129TIP3    H130802   6.204   0.787   5.349  0.0417 -0.3730  0.6682
 3129TIP3    H230803   6.296   0.799   5.230 -0.3861 -0.3707  0.3375
 3130TIP3   OH230804   3.842   4.712  13.670 -0.0968  0.5684 -0.4945
 3130TIP3    H130805   3.929   4.670  13.670  0.1422  0.9934  1.4967
 3130TIP3    H230806   3.814   4.710  13.579  1.9500  0.2729 -1.1443
 3131TIP3   OH230807   3.531   2.424  10.337  0.5210  0.0642  0.6638
 3131TIP3    H130808   3.445   2.406  10.375  0.7234 -0.4573  0.8788
 3131TIP3    H230809   3.519   2.507  10.290  0.3002  0.7745  1.9430
 3132TIP3   OH230810   4.897   6.719   1.910  0.1532  0.5457  0.3319
 3132TIP3    H130811   4.986   6.753   1.908  0.6127 -0.6054  0.7405
 3132TIP3    H230812   4.907   6.626   1.928 -1.1651  0.5686  1.2862
 3133TIP3   OH230813   0.649   5.055  15.863 -0.2535 -0.3632 -0.1724
 3133TIP3    H130814   0.686   5.132  15.822 -0.0046 -1.6014 -2.3180
 3133TIP3    H230815   0.580   5.026  15.804 -1.0789 -1.1735  1.1399
 3134TIP3   OH230816   0.489   4.877  14.495  0.2891  0.1312 -0.1973
 3134TIP3    H130817   0.485   4.966  14.528  0.8230  0.4608 -1.0103
 3134TIP3    H230818   0.579   4.866  14.465 -0.0228 -0.3534 -0.9867
 3135TIP3   OH230819   5.470   5.998  11.993 -0.1759  0.1105  0.2605
 3135TIP3    H130820   5.455   6.087  12.023  0.0468  1.0317 -2.2200
 3135TIP3    H230821   5.565   5.992  11.981 -0.2300 -0.2893 -0.0193
 3136TIP3   OH230822   5.360   4.462  17.173  0.2808  0.0066  0.1168
 3136TIP3    H130823   5.427   4.531  17.170 -0.9033  1.2006  0.2302
 3136TIP3    H230824   5.402   4.385  17.136  0.9384  1.3962 -2.0814
 3137TIP3   OH230825   2.798   1.737  15.923 -0.3741  0.6826  0.2973
 3137TIP3    H130826   2.771   1.646  15.933  0.3321  0.3702 -0.5719
 3137TIP3    H230827   2.747   1.785  15.989 -2.2487 -0.0388 -0.5876
 3138TIP3   OH230828   5.242   2.450   3.345 -0.0613 -0.1986 -0.0591
 3138TIP3    H130829   5.252   2.381   3.279 -2.0727  1.0865 -1.7347
 3138TIP3    H230830   5.149   2.470   3.346  0.2743  1.4206  1.5303
 3139TIP3   OH230831   1.877   0.765   5.348  0.6026  0.6415 -0.3934
 3139TIP3    H130832   1.889   0.741   5.256  1.3737  2.1126 -0.6864
 3139TIP3    H230833   1.787   0.797   5.353  0.0975 -0.7510 -0.3328
 3140TIP3   OH230834   1.837   4.373   2.170  0.0670 -0.5155  0.0628
 3140TIP3    H130835   1.843   4.383   2.265 -1.0421  1.4377 -0.0464
 3140TIP3    H230836   1.802   4.457   2.139  0.1383 -1.2296 -2.0414
 3141TIP3   OH230837   2.906   1.349   1.224 -0.2692  0.2199 -0.2753
 3141TIP3    H130838   2.930   1.431   1.182 -1.9021  0.1270 -1.4244
 3141TIP3    H230839   2.875   1.375   1.311  0.1807  0.7254 -0.2693
 3142TIP3   OH230840   1.793   4.713  16.095  0.1221  0.4157  0.0481
 3142TIP3    H130841   1.847   4.777  16.049  2.5273 -0.8529  0.9789
 3142TIP3    H230842   1.762   4.654  16.027 -0.8693  1.6757 -0.6105
 3143TIP3   OH230843   1.965   5.855  11.382 -0.1038 -0.2326  0.1004
 3143TIP3    H130844   2.025   5.927  11.401  0.6108 -0.3546 -1.6120
 3143TIP3    H230845   2.004   5.780  11.428  0.8285 -0.2095 -0.6349
 3144TIP3   OH230846   5.351   2.123  14.828 -0.6265 -0.1112  0.4078
 3144TIP3    H130847   5.415   2.192  14.846 -2.3533  1.4104  0.9021
 3144TIP3    H230848   5.381   2.048  14.879  1.9823 -0.1640 -1.1051
 3145TIP3   OH230849   0.140   2.852  12.495  0.2703 -0.2865  0.3105
 3145TIP3    H130850   0.087   2.818  12.424  0.5784 -2.3643  1.0429
 3145TIP3    H230851   0.185   2.775  12.531  1.4121  0.9692  1.6591
 3146TIP3   OH230852   4.373   4.504   5.675 -0.0111 -0.0851  0.8513
 3146TIP3    H130853   4.329   4.568   5.619 -2.0539 -0.7452  1.6711
 3146TIP3    H230854   4.302   4.458   5.719  1.4814 -2.0012  1.2906
 3147TIP3   OH230855   3.029   3.139   3.227 -0.2247  0.0602  0.0741
 3147TIP3    H130856   3.024   3.056   3.274 -1.3039 -0.5039 -0.9959
 3147TIP3    H230857   2.937   3.164   3.213  0.0661  0.2553 -1.6387
 3148TIP3   OH230858   0.606   2.067  11.626 -0.1448  0.4159  0.0281
 3148TIP3    H130859   0.572   2.119  11.554  1.2458  1.3137 -0.0054
 3148TIP3    H230860   0.597   1.977  11.598 -0.2013  0.7406 -0.9986
 3149TIP3   OH230861   2.335   5.121   0.296 -0.3537  0.0085 -0.2513
 3149TIP3    H130862   2.300   5.032   0.300 -1.1203  0.2473 -1.4940
 3149TIP3    H230863   2.258   5.177   0.305  0.0567  0.5480 -0.1180
 3150TIP3   OH230864   6.202   2.594  16.350  0.0176  0.0905  0.6768
 3150TIP3    H130865   6.235   2.620  16.436  0.4842  0.0035  0.5266
 3150TIP3    H230866   6.109   2.576  16.364  0.5717 -2.1624  1.6514
 3151TIP3   OH230867   4.716   6.078   3.760 -0.2526  0.2718  0.5289
 3151TIP3    H130868   4.800   6.122   3.748  0.8369 -2.1080 -0.9960
 3151TIP3    H230869   4.666   6.100   3.681 -1.3454  2.2331  1.7433
 3152TIP3   OH230870   5.839   0.107  16.172 -0.0190  0.3843  0.5611
 3152TIP3    H130871   5.841   0.110  16.077 -2.0998 -0.4590  0.4629
 3152TIP3    H230872   5.885   0.186  16.200  0.1564  0.8946 -1.1345
 3153TIP3   OH230873   3.172   5.863  13.640 -0.2997  0.0879 -0.3197
 3153TIP3    H130874   3.188   5.916  13.561 -0.1345 -0.4886 -0.6767
 3153TIP3    H230875   3.247   5.804  13.644 -0.4412 -0.0591  0.1301
 3154TIP3   OH230876   6.416   3.859  11.433 -0.3589 -0.4308  0.0337
 3154TIP3    H130877   6.357   3.860  11.358 -0.3443 -1.6997 -0.0080
 3154TIP3    H230878   6.475   3.785  11.416  0.4226  0.0337  0.6993
 3155TIP3   OH230879   1.426   6.670  11.744 -0.6370  0.1651  0.5833
 3155TIP3    H130880   1.364   6.705  11.681 -0.7186  1.4085  1.3416
 3155TIP3    H230881   1.493   6.737  11.752  1.1141 -1.4007 -0.6307
 3156TIP3   OH230882   3.332   6.007   0.244 -0.3214 -0.2486 -0.5463
 3156TIP3    H130883   3.323   5.946   0.170  0.1366 -1.0624  0.0645
 3156TIP3    H230884   3.302   5.957   0.320  1.1103 -0.0753  0.1382
 3157TIP3   OH230885   2.657   1.974  11.780 -0.4952  0.4973  0.3167
 3157TIP3    H130886   2.743   2.009  11.756  0.0398 -2.8771 -3.3943
 3157TIP3    H230887   2.598   2.006  11.711 -1.6876  0.7485  1.4341
 3158TIP3   OH230888   6.515   3.962   3.867  0.1786  0.4689 -0.3158
 3158TIP3    H130889   6.496   3.934   3.956  0.6351  0.3715 -0.2492
 3158TIP3    H230890   6.518   3.881   3.816 -0.7252  0.5747 -0.5420
 3159TIP3   OH230891   6.274   2.133  14.116  0.3547 -0.3018  0.2855
 3159TIP3    H130892   6.199   2.109  14.171 -0.5006 -0.0267 -0.7413
 3159TIP3    H230893   6.336   2.173  14.176 -0.8002  0.4892  0.9600
 3160TIP3   OH230894   3.882   0.340  11.449  0.4925  0.1829 -0.6047
 3160TIP3    H130895   3.842   0.420  11.484 -0.3668 -0.2021 -0.6838
 3160TIP3    H230896   3.953   0.371  11.393  1.8669  0.7999  1.4612
 3161TIP3   OH230897   2.773   0.484  16.545 -0.5365 -0.2771 -0.4383
 3161TIP3    H130898   2.755   0.525  16.460  1.8127 -0.6817 -1.1900
 3161TIP3    H230899   2.766   0.390  16.528  0.0534 -0.3621 -0.2261
 3162TIP3   OH230900   1.750   3.510  11.562  0.3006  0.6118 -0.1524
 3162TIP3    H130901   1.679   3.452  11.592 -1.1261  1.1123 -2.4411
 3162TIP3    H230902   1.712   3.598  11.566  1.9228  1.2634  1.7646
 3163TIP3   OH230903   2.689   4.654  15.680  0.0092  0.5507 -0.1335
 3163TIP3    H130904   2.643   4.729  15.719  3.2126  2.6777 -0.1911
 3163TIP3    H230905   2.625   4.614  15.622 -2.1182  2.6900  0.6443
 3164TIP3   OH230906   2.972   0.203  12.939  0.7867 -0.4889  0.7063
 3164TIP3    H130907   3.044   0.148  12.968  2.0666  1.6353  1.6759
 3164TIP3    H230908   2.902   0.188  13.003 -0.5418 -4.2331 -1.4655
 3165TIP3   OH230909   5.162   1.173  14.250 -0.1365 -0.7070 -0.0825
 3165TIP3    H130910   5.212   1.253  14.236 -0.3962 -0.5574 -0.1661
 3165TIP3    H230911   5.126   1.183  14.339  0.1245 -0.8913  0.0409
 3166TIP3   OH230912   0.537   4.619  15.147 -0.7768 -0.4173  0.0894
 3166TIP3    H130913   0.605   4.666  15.196 -1.7539 -0.4565  1.5184
 3166TIP3    H230914   0.481   4.689  15.111  0.4552 -0.3586 -1.7580
 3167TIP3   OH230915   6.779   5.918   0.084  0.1521 -0.4990  0.2054
 3167TIP3    H130916   6.775   6.010   0.058  1.4757 -0.0817  1.4227
 3167TIP3    H230917   6.798   5.872   0.003  0.9383  0.4532 -0.1642
 3168TIP3   OH230918   6.533   4.742   4.969 -0.5230  0.3647  0.1631
 3168TIP3    H130919   6.491   4.766   4.886 -0.4813  1.4835  0.4555
 3168TIP3    H230920   6.507   4.651   4.983 -0.9866  0.3359 -0.7946
 3169TIP3   OH230921   3.475   4.149  14.575  0.0863  0.7582 -0.4326
 3169TIP3    H130922   3.538   4.077  14.572  0.2071  0.7914  1.1290
 3169TIP3    H230923   3.527   4.227  14.555  0.6239  0.8357  1.2401
 3170TIP3   OH230924   5.278   4.914  13.461  0.1468 -0.0488  0.2515
 3170TIP3    H130925   5.277   4.934  13.367 -1.5177 -0.9766  0.0374
 3170TIP3    H230926   5.330   4.984  13.500 -0.5101  1.2873 -1.1819
 3171TIP3   OH230927   1.519   2.903   2.706  0.6246 -0.6355 -0.0270
 3171TIP3    H130928   1.449   2.872   2.648  1.4144 -1.8974 -0.3152
 3171TIP3    H230929   1.473   2.951   2.775 -0.5173 -1.3996 -0.2440
 3172TIP3   OH230930   5.271   0.752   4.751 -0.2215 -0.3736 -0.0289
 3172TIP3    H130931   5.309   0.829   4.710  0.4324 -0.7739 -0.1913
 3172TIP3    H230932   5.177   0.761   4.738 -0.1969  0.7049  0.4986
 3173TIP3   OH230933   6.074   6.509  12.296 -0.1632  0.3855 -0.7876
 3173TIP3    H130934   6.030   6.525  12.379 -0.6813 -0.3529 -0.9145
 3173TIP3    H230935   6.068   6.592  12.249  0.1185  0.8005 -0.0983
 3174TIP3   OH230936   4.595   6.257  13.350 -0.5491 -0.1193  0.2161
 3174TIP3    H130937   4.574   6.254  13.444  0.4374 -1.2216  0.3979
 3174TIP3    H230938   4.672   6.314  13.345  0.4875 -1.5077  0.2733
 3175TIP3   OH230939   2.541   4.633  16.440 -0.1347  0.4172 -0.1169
 3175TIP3    H130940   2.582   4.600  16.360  2.4627  2.0145  0.4863
 3175TIP3    H230941   2.548   4.729  16.433 -2.6469  0.7029  0.6453
 3176TIP3   OH230942   1.452   3.012  10.296  0.3689  0.0374  0.2640
 3176TIP3    H130943   1.403   2.944  10.250  1.8864 -0.0811 -1.1980
 3176TIP3    H230944   1.468   2.975  10.383 -0.8307 -0.5163  0.2625
 3177TIP3   OH230945   5.526   0.353   4.049  0.1622  0.1221 -0.0934
 3177TIP3    H130946   5.614   0.333   4.015  0.9246 -1.4574  2.6994
 3177TIP3    H230947   5.538   0.433   4.100 -0.4747  1.0373 -1.3341
 3178TIP3   OH230948   3.935   2.911  13.816  0.3573  0.1456 -0.3048
 3178TIP3    H130949   4.000   2.876  13.877 -0.3174  0.1741  0.4419
 3178TIP3    H230950   3.884   2.835  13.788 -0.7961  0.4384  0.9413
 3179TIP3   OH230951   6.530   4.832   1.077 -0.2795 -0.1926  0.3356
 3179TIP3    H130952   6.620   4.850   1.051  0.2312 -0.7453  1.6627
 3179TIP3    H230953   6.476   4.879   1.014  0.9537  1.5802  0.5920
 3180TIP3   OH230954   0.862   3.898  12.949 -0.3083 -0.1604 -0.4075
 3180TIP3    H130955   0.853   3.843  13.026  1.9951  0.0268  0.0173
 3180TIP3    H230956   0.951   3.882  12.918 -0.7422  0.8015 -2.2239
 3181TIP3   OH230957   2.156   6.569  16.244 -0.2648 -0.1079  0.0497
 3181TIP3    H130958   2.169   6.518  16.164 -1.2705 -0.8992  0.3781
 3181TIP3    H230959   2.218   6.642  16.236  0.4825 -0.8275 -0.8880
 3182TIP3   OH230960   2.330   0.366   3.665 -0.4550 -0.2393 -0.0785
 3182TIP3    H130961   2.258   0.365   3.727 -0.2830 -1.6018  0.1085
 3182TIP3    H230962   2.408   0.347   3.718 -0.4350 -2.4431 -0.8449
 3183TIP3   OH230963   3.179   2.228  10.211 -0.2581  0.5333  0.2515
 3183TIP3    H130964   3.229   2.275  10.144 -1.7406  1.0185 -0.5303
 3183TIP3    H230965   3.211   2.264  10.294 -1.1868  2.7719 -0.3318
 3184TIP3   OH230966   2.916   5.180  10.666 -0.1876 -0.6591  0.0832
 3184TIP3    H130967   2.861   5.143  10.736  2.3258 -1.3254  1.7802
 3184TIP3    H230968   2.982   5.113  10.650  1.0185  0.7439 -0.8844
 3185TIP3   OH230969   1.001   6.745   4.572  0.1499  0.0820  0.1436
 3185TIP3    H130970   0.928   6.785   4.619 -0.3850  1.0387 -1.4696
 3185TIP3    H230971   1.080   6.784   4.611 -0.3387  2.0455 -0.7772
 3186TIP3   OH230972   2.768   4.816  16.102 -0.1132  0.3965 -0.6600
 3186TIP3    H130973   2.796   4.907  16.099  2.4543 -0.3075  0.2503
 3186TIP3    H230974   2.774   4.792  16.194  0.1704 -0.9308 -1.0106
 3187TIP3   OH230975   0.730   4.142   3.620  0.5980  0.2565 -0.1094
 3187TIP3    H130976   0.719   4.073   3.555  2.5130  0.0705 -0.2711
 3187TIP3    H230977   0.737   4.222   3.568  0.4198  0.3167 -0.0394
 3188TIP3   OH230978   2.992   6.692   1.925  0.1815 -0.1488 -0.2023
 3188TIP3    H130979   2.966   6.677   1.835  1.7837  0.8862 -0.8559
 3188TIP3    H230980   2.981   6.786   1.938  0.1988 -0.2519  0.6170
 3189TIP3   OH230981   4.122   2.561   1.690  0.2549 -0.6249  0.0290
 3189TIP3    H130982   4.180   2.485   1.686  2.9393  1.4530 -1.8032
 3189TIP3    H230983   4.098   2.578   1.599  1.0844  1.7664  0.2328
 3190TIP3   OH230984   6.290   2.269   3.066  1.0832  0.3665  0.3114
 3190TIP3    H130985   6.295   2.333   2.995  2.6428 -0.5091 -0.3617
 3190TIP3    H230986   6.369   2.216   3.058  0.2879 -1.0417  1.4698
 3191TIP3   OH230987   1.961   5.691  15.440 -0.8105  0.2327 -0.1728
 3191TIP3    H130988   1.992   5.716  15.527 -1.4584  1.4431 -0.2791
 3191TIP3    H230989   1.888   5.751  15.422 -0.1841  0.5273 -1.8631
 3192TIP3   OH230990   0.909   0.493  13.677 -0.1266 -0.3952  0.0612
 3192TIP3    H130991   0.933   0.489  13.584 -1.4062 -1.4246 -0.2340
 3192TIP3    H230992   0.954   0.418  13.716 -0.5582 -0.6630  0.0439
 3193TIP3   OH230993   3.858   3.206  13.690  0.3024  0.2361  0.2389
 3193TIP3    H130994   3.887   3.261  13.617 -1.7605 -0.5263 -1.2025
 3193TIP3    H230995   3.882   3.117  13.664 -2.5932 -0.3330 -0.6867
 3194TIP3   OH230996   1.435   1.087   2.648  0.5992  0.6936  0.0859
 3194TIP3    H130997   1.375   1.042   2.707 -0.2122  1.1851 -0.3540
 3194TIP3    H230998   1.496   1.019   2.619  0.8688  0.4010  1.3063
 3195TIP3   OH230999   6.009   4.525   5.532 -0.3018  0.0671  0.2441
 3195TIP3    H131000   5.994   4.486   5.446 -0.1152 -0.7081  0.5617
 3195TIP3    H231001   6.090   4.576   5.522 -0.4313  0.2018 -0.1105
 3196TIP3   OH231002   5.902   0.306   2.894  0.3787  0.0867  0.2743
 3196TIP3    H131003   5.978   0.325   2.839 -0.2123  1.2486 -0.1672
 3196TIP3    H231004   5.938   0.261   2.971  1.3014 -0.8438 -0.6906
 3197TIP3   OH231005   3.723   5.365  13.448  0.8723  0.2450 -0.3219
 3197TIP3    H131006   3.682   5.340  13.366  0.9753  3.4762 -1.4071
 3197TIP3    H231007   3.718   5.460  13.450 -0.4647  0.2014  4.1199
 3198TIP3   OH231008   1.917   6.591  15.199 -0.2262 -0.3284 -0.5658
 3198TIP3    H131009   1.857   6.523  15.229  0.5663 -1.6818 -1.9542
 3198TIP3    H231010   1.952   6.557  15.116  1.2792  1.1109 -0.5511
 3199TIP3   OH231011   0.649   0.100  16.407  0.8870 -0.1774  0.7424
 3199TIP3    H131012   0.665   0.192  16.423  2.0261  0.1882 -2.0764
 3199TIP3    H231013   0.735   0.065  16.382  0.0941 -1.5189 -0.1967
 3200TIP3   OH231014   3.561   6.641  13.617 -0.2304  0.2109  0.2547
 3200TIP3    H131015   3.535   6.646  13.525 -0.1162 -1.4550  0.1073
 3200TIP3    H231016   3.478   6.631  13.665 -0.3090  1.3171  0.3736
 3201TIP3   OH231017   5.257   2.379   1.348 -0.1913 -0.2281 -0.0555
 3201TIP3    H131018   5.261   2.305   1.408  1.4925 -1.6637 -1.8509
 3201TIP3    H231019   5.310   2.447   1.389  2.5339 -1.8556 -0.7001
 3202TIP3   OH231020   0.752   0.815  16.986  0.2114 -0.5783 -0.0787
 3202TIP3    H131021   0.774   0.725  17.012  0.1353 -0.6021 -0.0974
 3202TIP3    H231022   0.660   0.810  16.960  0.0712 -0.3928  0.3851
 3203TIP3   OH231023   2.933   5.620  14.077  0.4222 -0.0876 -0.2682
 3203TIP3    H131024   3.012   5.667  14.049 -0.2599  0.2756 -1.5989
 3203TIP3    H231025   2.860   5.676  14.051 -0.2879 -0.1969  1.3986
 3204TIP3   OH231026   3.272   5.655   6.186  0.0499 -0.7480 -0.5502
 3204TIP3    H131027   3.348   5.608   6.219  1.2388 -0.2676 -2.5730
 3204TIP3    H231028   3.294   5.748   6.197  1.3132 -0.5172 -4.4416
 3205TIP3   OH231029   2.318   4.186   2.259 -0.4938 -0.0797 -0.4173
 3205TIP3    H131030   2.311   4.280   2.244  1.4485 -0.3251 -3.3357
 3205TIP3    H231031   2.247   4.148   2.207 -0.1163 -0.3388 -0.7449
 3206TIP3   OH231032   0.771   6.673  12.264  0.2746  0.4647  0.2775
 3206TIP3    H131033   0.740   6.632  12.183 -0.3222  1.0571  0.2030
 3206TIP3    H231034   0.713   6.748  12.276 -1.1023 -0.8991  2.4690
 3207TIP3   OH231035   6.682   0.850   4.233 -0.1069 -0.0012  0.3351
 3207TIP3    H131036   6.629   0.924   4.204 -0.5079  0.8118  3.0447
 3207TIP3    H231037   6.772   0.875   4.213 -0.4498 -0.0752 -1.4376
 3208TIP3   OH231038   1.960   2.857  14.788  0.4119  0.3112 -0.2025
 3208TIP3    H131039   2.007   2.895  14.714  0.9564 -0.0426 -0.0437
 3208TIP3    H231040   1.868   2.877  14.772  0.4257 -0.6158 -1.4850
 3209TIP3   OH231041   2.530   2.756   0.713  0.5121  0.1302  0.1997
 3209TIP3    H131042   2.587   2.703   0.768  0.5959  0.2958  0.2737
 3209TIP3    H231043   2.499   2.696   0.645  1.9106  0.3809 -0.6872
 3210TIP3   OH231044   2.037   0.218  16.221  0.9430 -0.5579  0.1641
 3210TIP3    H131045   2.047   0.169  16.139 -2.8875 -0.2608 -0.5684
 3210TIP3    H231046   2.104   0.181  16.279  1.4735 -3.1501 -1.9939
 3211TIP3   OH231047   2.123   6.282  17.046 -0.5753 -0.6403 -0.4132
 3211TIP3    H131048   2.047   6.247  17.092  0.2146 -1.0233  0.6280
 3211TIP3    H231049   2.139   6.366  17.087 -2.0504  0.6782 -2.4565
 3212TIP3   OH231050   3.406   2.193   6.328 -0.1777 -0.3435  0.2063
 3212TIP3    H131051   3.468   2.165   6.261 -1.2419 -1.0646 -0.4967
 3212TIP3    H231052   3.395   2.287   6.313 -1.4105 -0.7382 -1.4882
 3213TIP3   OH231053   4.725   0.136   1.439  0.1819 -0.2203 -0.0387
 3213TIP3    H131054   4.769   0.194   1.377  0.5002  1.0472  1.3259
 3213TIP3    H231055   4.634   0.167   1.440  0.5999  1.0596  1.5451
 3214TIP3   OH231056   5.194   3.173   0.835  0.4232  0.1205 -0.3246
 3214TIP3    H131057   5.288   3.177   0.819  0.4233  0.3889 -0.2488
 3214TIP3    H231058   5.155   3.220   0.762  0.3195 -0.4173 -0.6218
 3215TIP3   OH231059   0.127   0.015   6.157 -0.0677  0.0162 -0.2073
 3215TIP3    H131060   0.034  -0.007   6.166 -0.1728  1.1344  1.5220
 3215TIP3    H231061   0.142   0.086   6.219  1.5911  0.9507 -1.6122
 3216TIP3   OH231062   0.673   0.776  14.086  0.0761  0.0294 -0.0105
 3216TIP3    H131063   0.748   0.720  14.106  0.9161  1.0109 -0.3847
 3216TIP3    H231064   0.676   0.845  14.153 -1.2046 -0.5895  0.7113
 3217TIP3   OH231065   2.875   2.018  14.703  0.0879  0.1782 -0.9555
 3217TIP3    H131066   2.807   2.066  14.655  0.2655  1.1242 -0.2871
 3217TIP3    H231067   2.956   2.039  14.657  0.1847  0.6471 -0.5783
 3218TIP3   OH231068   0.203   4.466  11.377 -0.0292 -0.4154 -0.1463
 3218TIP3    H131069   0.168   4.551  11.401 -0.9998 -0.5988 -0.8908
 3218TIP3    H231070   0.126   4.409  11.373  0.5724 -1.2451  0.0117
 3219TIP3   OH231071   3.675   5.992  12.631 -0.1767 -0.3812  0.0052
 3219TIP3    H131072   3.698   5.929  12.562  0.3056  1.5518 -1.6740
 3219TIP3    H231073   3.580   6.000  12.625 -0.2281 -0.9037  0.1636
 3220TIP3   OH231074   4.254   3.934  16.925  0.2635  0.2919  0.6744
 3220TIP3    H131075   4.285   3.848  16.898  0.2832  0.3367  0.5565
 3220TIP3    H231076   4.253   3.930  17.021  2.1901  0.8129  0.7423
 3221TIP3   OH231077   4.190   5.779   3.560  0.1630 -0.0902  0.2693
 3221TIP3    H131078   4.285   5.794   3.560  0.3637 -1.2129  2.9072
 3221TIP3    H231079   4.180   5.685   3.573 -1.3446  0.2275  1.4593
 3222TIP3   OH231080   3.169   4.563   2.751 -0.3672 -0.3571 -0.4766
 3222TIP3    H131081   3.074   4.562   2.752 -0.3660 -0.4438 -0.4738
 3222TIP3    H231082   3.192   4.656   2.748 -0.4360 -0.2821  0.8964
 3223TIP3   OH231083   6.498   6.608  10.700  0.1126 -0.3708  0.4720
 3223TIP3    H131084   6.409   6.583  10.673 -0.3278 -0.0639  1.6120
 3223TIP3    H231085   6.541   6.524  10.718 -0.8935 -0.4388  2.8117
 3224TIP3   OH231086   1.755   0.398   1.171  0.0187  0.1986  0.1362
 3224TIP3    H131087   1.683   0.422   1.230  1.1105  2.9625  0.4100
 3224TIP3    H231088   1.800   0.481   1.153  1.7695 -1.1420 -1.8528
 3225TIP3   OH231089   1.016   4.820   5.465 -0.4748  0.0567  0.7555
 3225TIP3    H131090   0.985   4.838   5.553 -2.1978 -1.6412  0.5324
 3225TIP3    H231091   1.062   4.736   5.472 -0.9139 -0.2560 -0.0056
 3226TIP3   OH231092   1.297   2.037   2.920  0.2332 -0.0316 -0.0911
 3226TIP3    H131093   1.225   2.042   2.984  2.2469 -0.9499  2.3239
 3226TIP3    H231094   1.268   2.093   2.847 -2.3290  0.6998  1.4205
 3227TIP3   OH231095   1.986   3.566   3.573 -0.6393  0.0207  0.0751
 3227TIP3    H131096   2.047   3.492   3.575  0.9024  1.2613  0.3314
 3227TIP3    H231097   1.985   3.595   3.482 -2.1421 -1.0376 -0.2490
 3228TIP3   OH231098   6.006   0.375   3.640 -0.1042  0.4767  0.0076
 3228TIP3    H131099   6.034   0.312   3.573 -1.8965  0.0612 -0.3788
 3228TIP3    H231100   6.013   0.326   3.723 -0.1448  0.2247 -0.1374
 3229TIP3   OH231101   4.926   3.339   0.508 -0.2241  0.1492  0.0419
 3229TIP3    H131102   5.006   3.306   0.550  0.0175  2.1399  1.2236
 3229TIP3    H231103   4.856   3.316   0.568 -0.2228  0.5632  0.2043
 3230TIP3   OH231104   0.306   1.029  16.859  0.4217  0.2146  0.2500
 3230TIP3    H131105   0.235   1.088  16.883  0.5064  1.2205 -1.8236
 3230TIP3    H231106   0.385   1.072  16.891  0.3139  0.2739  0.4388
 3231TIP3   OH231107   4.912   3.104  15.299 -0.5347 -0.4608 -0.2093
 3231TIP3    H131108   4.927   3.197  15.311  0.1498 -0.4884 -0.8355
 3231TIP3    H231109   4.833   3.085  15.351 -1.2023  0.6371 -0.8189
 3232TIP3   OH231110   4.494   5.502   6.093  0.0144  0.1636  0.7092
 3232TIP3    H131111   4.429   5.432   6.086 -0.7024  0.6715  2.0666
 3232TIP3    H231112   4.551   5.474   6.165  0.5208  0.3362  0.3713
 3233TIP3   OH231113   5.944   4.675  11.346  0.5919 -0.5970 -0.0042
 3233TIP3    H131114   5.979   4.614  11.410 -0.4285  0.1374  1.2729
 3233TIP3    H231115   5.966   4.762  11.380 -1.7141 -0.1416  0.4047
 3234TIP3   OH231116   4.828   1.146  16.949  0.0920 -0.4314  0.0272
 3234TIP3    H131117   4.866   1.155  16.861 -0.7672 -0.6582 -0.3677
 3234TIP3    H231118   4.767   1.073  16.942 -0.0398 -0.4014  0.7985
 3235TIP3   OH231119   5.249   4.917  15.463 -0.3326  0.3242 -0.5550
 3235TIP3    H131120   5.216   4.843  15.515 -2.7647  1.3993 -0.4897
 3235TIP3    H231121   5.213   4.904  15.376 -0.5630  1.2776 -0.6133
 3236TIP3   OH231122   5.473   4.371   3.016  0.4662  0.2267 -0.4164
 3236TIP3    H131123   5.474   4.296   2.957 -2.1660 -0.6734  0.6311
 3236TIP3    H231124   5.398   4.356   3.073  2.0476  1.8400  2.1838
 3237TIP3   OH231125   0.882   1.885   1.047 -0.1815  0.4634  0.0676
 3237TIP3    H131126   0.948   1.818   1.029  0.0573  0.4099  1.1293
 3237TIP3    H231127   0.892   1.948   0.975  0.3555 -0.0473 -0.3122
 3238TIP3   OH231128   6.463   2.600   5.214 -0.2259 -0.2256 -0.4588
 3238TIP3    H131129   6.449   2.694   5.225  0.9949  0.1438 -1.8555
 3238TIP3    H231130   6.558   2.589   5.223 -0.4098 -1.4212  0.2708
 3239TIP3   OH231131   2.228   3.148  16.233 -0.9719  0.0115 -0.1882
 3239TIP3    H131132   2.170   3.139  16.157 -1.5911  1.7041  0.0764
 3239TIP3    H231133   2.272   3.232  16.220  1.0177 -0.9722 -0.0977
 3240TIP3   OH231134   5.845   0.881  14.625  0.0686  0.2295 -0.2634
 3240TIP3    H131135   5.890   0.869  14.708 -1.3087 -0.0231  0.4618
 3240TIP3    H231136   5.763   0.833  14.635  0.2620 -0.5461 -2.0810
 3241TIP3   OH231137   6.282   1.586  12.008 -0.1215 -0.3092  0.1511
 3241TIP3    H131138   6.253   1.596  11.917  0.3888  0.2225  0.0435
 3241TIP3    H231139   6.302   1.675  12.037 -2.2118 -0.2027  1.4420
 3242TIP3   OH231140   0.744   5.725  10.818 -0.0603  0.2894 -0.7051
 3242TIP3    H131141   0.785   5.731  10.904  1.2626 -2.9337 -1.0868
 3242TIP3    H231142   0.737   5.816  10.789  1.7927  1.2432  1.7007
 3243TIP3   OH231143   3.394   1.006   5.568  0.1266 -0.0434 -0.0939
 3243TIP3    H131144   3.323   1.041   5.623 -0.9222 -1.5844 -0.4341
 3243TIP3    H231145   3.362   1.015   5.478  1.0750  0.7816 -0.3633
 3244TIP3   OH231146   4.342   1.699  13.993  0.1542 -0.5451  0.2111
 3244TIP3    H131147   4.390   1.616  13.991  1.6710  0.2404  2.2485
 3244TIP3    H231148   4.251   1.674  13.977  1.0204 -2.2094 -2.4845
 3245TIP3   OH231149   2.204   1.309  15.838 -0.0687  0.0267  0.3000
 3245TIP3    H131150   2.258   1.327  15.915  0.4480 -1.2037  0.2409
 3245TIP3    H231151   2.191   1.395  15.797  0.8937  0.4894  0.9491
 3246TIP3   OH231152   4.556   4.491  12.675  0.4232 -0.2456 -0.4200
 3246TIP3    H131153   4.472   4.534  12.691  0.2058 -1.0971  0.7747
 3246TIP3    H231154   4.620   4.547  12.718  0.6550  1.1223 -2.4591
 3247TIP3   OH231155   3.762   6.058   3.327  0.0042 -0.1857  0.5804
 3247TIP3    H131156   3.808   6.025   3.404  0.1313  0.1126  0.6350
 3247TIP3    H231157   3.768   6.153   3.334 -1.4784 -0.1131  1.1066
 3248TIP3   OH231158   5.840   3.821   2.493 -0.5643  0.3673  0.1168
 3248TIP3    H131159   5.935   3.826   2.495 -0.6217  1.3841  0.7041
 3248TIP3    H231160   5.812   3.902   2.451 -1.1702 -0.0772 -0.3686
 3249TIP3   OH231161   5.676   2.361   2.603  0.0050 -0.1227  0.3386
 3249TIP3    H131162   5.739   2.392   2.668  0.1972 -0.6237  0.3917
 3249TIP3    H231163   5.720   2.289   2.559 -0.0976  0.2560 -0.4046
 3250TIP3   OH231164   0.634   0.257   6.079  0.8682  0.5291 -0.3844
 3250TIP3    H131165   0.544   0.253   6.048 -0.2218  0.4493  2.5603
 3250TIP3    H231166   0.636   0.197   6.154  2.4825  2.9512  1.6226
 3251TIP3   OH231167   1.429   3.634  13.973 -0.2343  0.2785  0.0591
 3251TIP3    H131168   1.380   3.556  14.000  0.1538  0.0719  0.1770
 3251TIP3    H231169   1.498   3.600  13.916 -0.6771  0.6450 -0.7007
 3252TIP3   OH231170   4.558   1.450   1.108  0.4610 -0.4653  0.1785
 3252TIP3    H131171   4.508   1.398   1.171 -0.1637 -1.2843 -0.9714
 3252TIP3    H231172   4.507   1.531   1.098 -0.5595 -1.2269 -0.8627
 3253TIP3   OH231173   4.491   6.565  16.549  0.4742 -0.2271 -0.5256
 3253TIP3    H131174   4.583   6.552  16.526  0.9323 -0.6718  1.4563
 3253TIP3    H231175   4.492   6.639  16.610 -0.2909 -1.1298  0.6063
 3254TIP3   OH231176   1.764   1.569  16.181  0.8059 -1.0380  0.0706
 3254TIP3    H131177   1.822   1.533  16.113  0.7196  0.0978 -0.6041
 3254TIP3    H231178   1.823   1.588  16.254  1.0523 -1.2980 -0.0570
 3255TIP3   OH231179   0.865   3.907   4.215  0.3671  0.0167 -0.0299
 3255TIP3    H131180   0.916   3.938   4.140  0.8476 -0.2175  0.1979
 3255TIP3    H231181   0.789   3.863   4.177 -0.0865  1.0590 -0.3698
 3256TIP3   OH231182   5.202   5.079   4.675 -0.1757  0.3491 -0.0658
 3256TIP3    H131183   5.257   5.017   4.723  0.3769  1.8233  1.2529
 3256TIP3    H231184   5.264   5.136   4.630 -0.6650  0.4873 -0.5656
 3257TIP3   OH231185   3.406   3.047   2.531 -1.0145  0.1493 -0.1061
 3257TIP3    H131186   3.392   3.010   2.618  0.0103 -1.9494 -0.7882
 3257TIP3    H231187   3.351   2.993   2.474 -0.3808  0.4345 -0.9872
 3258TIP3   OH231188   3.821   2.263   0.385 -0.1003 -0.1395 -0.4492
 3258TIP3    H131189   3.909   2.227   0.384  0.4120  1.0944 -0.6544
 3258TIP3    H231190   3.789   2.246   0.474  1.1182  1.2255  0.2662
 3259TIP3   OH231191   5.498   6.043  14.585  0.2537 -0.7426  0.1106
 3259TIP3    H131192   5.561   6.092  14.638  1.4225  0.2776 -2.1328
 3259TIP3    H231193   5.545   5.964  14.559  0.4288 -0.2398 -1.1221
 3260TIP3   OH231194   3.893   2.189  16.651  0.0038 -0.2764  0.2864
 3260TIP3    H131195   3.807   2.219  16.679 -0.0355 -0.3358  0.2320
 3260TIP3    H231196   3.888   2.188  16.556  0.5301  1.0519  0.2505
 3261TIP3   OH231197   1.565   0.578   2.084  0.3250 -0.0171  1.3439
 3261TIP3    H131198   1.623   0.651   2.108 -1.3504  1.8013  0.0084
 3261TIP3    H231199   1.569   0.574   1.989 -2.4640  0.7921  1.1498
 3262TIP3   OH231200   4.099   4.318  12.830 -0.4045 -0.6234  0.1602
 3262TIP3    H131201   4.171   4.324  12.892 -0.8960 -1.9570  0.8601
 3262TIP3    H231202   4.140   4.334  12.745  0.4882 -0.0859  0.6834
 3263TIP3   OH231203   6.368   0.568  16.307  0.5263  0.0558 -0.5071
 3263TIP3    H131204   6.425   0.569  16.230  1.9813  1.2396  0.5776
 3263TIP3    H231205   6.424   0.593  16.380 -1.0078 -0.3487  0.8494
 3264TIP3   OH231206   6.421   4.880  11.724 -1.2256 -0.3522  0.7599
 3264TIP3    H131207   6.391   4.829  11.799  0.6329 -1.3184  0.8721
 3264TIP3    H231208   6.508   4.910  11.748 -0.2717 -1.3426 -1.3038
 3265TIP3   OH231209   5.875   4.255   0.355  0.2136 -0.3426 -0.0818
 3265TIP3    H131210   5.845   4.317   0.289  0.3678 -0.5069 -0.3053
 3265TIP3    H231211   5.963   4.229   0.327  1.5943  2.0158  1.8970
 3266TIP3   OH231212   5.751   5.108  11.594  0.2873  0.0553  0.2023
 3266TIP3    H131213   5.785   5.048  11.528  0.1304 -0.2030  0.3575
 3266TIP3    H231214   5.789   5.193  11.571  2.9511 -0.6809  1.7625
 3267TIP3   OH231215   4.135   1.843  11.170  0.6147 -0.2737  0.1132
 3267TIP3    H131216   4.119   1.933  11.198  2.4250 -0.3510  1.4484
 3267TIP3    H231217   4.208   1.849  11.109 -0.0740 -0.7004 -0.7587
 3268TIP3   OH231218   0.343   4.904   1.031  0.2719 -0.0828 -0.1721
 3268TIP3    H131219   0.423   4.947   1.000 -0.0726 -0.8457 -2.1564
 3268TIP3    H231220   0.332   4.829   0.973 -0.4477 -1.5186  1.7525
 3269TIP3   OH231221   3.237   2.931  11.846 -0.0158  0.5088 -0.2509
 3269TIP3    H131222   3.223   2.841  11.876 -2.1247  1.3642  1.4878
 3269TIP3    H231223   3.296   2.970  11.910  0.4146  0.5418 -0.6663
 3270TIP3   OH231224   0.170   4.754   3.978 -0.2188 -0.2581  0.2624
 3270TIP3    H131225   0.209   4.841   3.972  0.0436 -0.3701  0.3402
 3270TIP3    H231226   0.233   4.696   3.935 -1.1633 -0.1673 -1.2912
 3271TIP3   OH231227   2.627   0.644  12.071 -0.5534  0.0641  0.5434
 3271TIP3    H131228   2.585   0.631  12.156  0.1957 -0.1683  0.8839
 3271TIP3    H231229   2.570   0.599  12.009 -0.5931 -0.5937  1.0553
 3272TIP3   OH231230   5.915   3.625   0.824 -0.0565  0.0537  0.1376
 3272TIP3    H131231   5.884   3.551   0.771  0.1959  0.3221 -0.3851
 3272TIP3    H231232   5.882   3.703   0.780 -0.3979  0.2547  0.7396
 3273TIP3   OH231233   4.378   5.127   5.655  0.3376 -0.3399  0.1530
 3273TIP3    H131234   4.447   5.079   5.701 -0.4692 -3.0544 -1.4148
 3273TIP3    H231235   4.409   5.134   5.565  0.0631  1.3985  0.1792
 3274TIP3   OH231236   3.167   5.357  16.005 -0.2281 -0.4193 -0.2327
 3274TIP3    H131237   3.088   5.404  16.029 -0.2066 -0.2333 -0.5162
 3274TIP3    H231238   3.229   5.374  16.076 -0.7509 -1.3383  0.4537
 3275TIP3   OH231239   4.695   4.025   4.975  0.0846 -0.0094 -0.2754
 3275TIP3    H131240   4.695   3.985   4.888  0.3781 -0.3205 -0.1302
 3275TIP3    H231241   4.631   3.974   5.025  2.0296 -1.6759  0.5521
 3276TIP3   OH231242   4.651   0.236  12.839 -0.5488 -0.1659 -0.1052
 3276TIP3    H131243   4.726   0.249  12.897 -0.7901 -1.9281  0.6288
 3276TIP3    H231244   4.577   0.221  12.898 -1.2189  0.1861 -0.8440
 3277TIP3   OH231245   3.717   1.710  15.162  0.2834  0.4733  0.0845
 3277TIP3    H131246   3.804   1.676  15.140  0.2500  1.0056 -0.9497
 3277TIP3    H231247   3.668   1.634  15.192  0.8092 -0.0186 -0.2837
 3278TIP3   OH231248   1.621   2.859   1.315  0.2419 -0.2856 -0.1668
 3278TIP3    H131249   1.532   2.828   1.295  0.1265 -0.6966  0.9243
 3278TIP3    H231250   1.652   2.897   1.233 -0.6247 -0.9019 -0.7975
 3279TIP3   OH231251   1.950   3.385   4.246  0.1933 -0.3900 -0.7113
 3279TIP3    H131252   2.010   3.310   4.241  0.2430 -0.4200  0.2678
 3279TIP3    H231253   2.000   3.458   4.209  1.3964 -0.0835  1.4295
 3280TIP3   OH231254   5.855   2.449   3.649 -0.0386  0.0819  0.1522
 3280TIP3    H131255   5.764   2.454   3.679 -0.4281 -0.4279 -0.9099
 3280TIP3    H231256   5.874   2.355   3.645  0.0775  0.1374 -0.9340
 3281TIP3   OH231257   2.711   1.540  15.502  0.4482  0.0040 -0.2452
 3281TIP3    H131258   2.754   1.520  15.585 -1.5394 -1.0750  0.5425
 3281TIP3    H231259   2.721   1.459  15.451  0.4321  0.1838 -0.5332
 3282TIP3   OH231260   3.129   0.396  15.549 -0.0241  0.2289 -0.0365
 3282TIP3    H131261   3.036   0.378  15.563 -0.0407  2.2473  2.7060
 3282TIP3    H231262   3.132   0.450  15.470 -1.4372  2.2623  1.2707
 3283TIP3   OH231263   0.414   3.484  11.771 -0.4417 -0.1189 -0.2570
 3283TIP3    H131264   0.323   3.483  11.799 -0.3116 -0.2595  0.1561
 3283TIP3    H231265   0.453   3.558  11.817  0.1376 -1.2395  1.0938
 3284TIP3   OH231266   6.513   3.781   3.644  0.4591  0.5735  0.3602
 3284TIP3    H131267   6.431   3.785   3.594  1.6597  2.0112 -1.5505
 3284TIP3    H231268   6.522   3.689   3.668 -1.6604  0.3775  0.5447
 3285TIP3   OH231269   4.102   6.600   0.923  0.5107  0.2351 -0.4529
 3285TIP3    H131270   4.124   6.554   0.842  0.8563  0.8114 -0.6830
 3285TIP3    H231271   4.044   6.671   0.896 -2.3012 -1.6855  0.2204
 3286TIP3   OH231272   3.424   3.882  16.357  0.3754 -0.2200 -0.0182
 3286TIP3    H131273   3.507   3.916  16.322  0.3595 -0.8221 -0.6477
 3286TIP3    H231274   3.373   3.859  16.279  0.7486 -2.5621  0.3971
 3287TIP3   OH231275   2.885   2.304   5.551  0.5862 -0.3427 -0.0331
 3287TIP3    H131276   2.943   2.240   5.593 -0.1479 -1.4505 -0.6861
 3287TIP3    H231277   2.845   2.257   5.478 -1.0572  0.4331  0.3309
 3288TIP3   OH231278   3.017   0.419  12.779 -0.1081  0.3191  0.7369
 3288TIP3    H131279   2.983   0.355  12.842 -0.8737  0.4689  0.4779
 3288TIP3    H231280   3.103   0.442  12.813 -1.3037  1.8789  2.8191
 3289TIP3   OH231281   5.161   0.193  12.156 -0.0288  0.5292 -0.4554
 3289TIP3    H131282   5.145   0.278  12.115  0.0750 -0.1930 -2.0695
 3289TIP3    H231283   5.074   0.154  12.163  0.0082  0.4470 -0.4537
 3290TIP3   OH231284   0.400   0.770   3.820 -0.0484  0.0820  0.4450
 3290TIP3    H131285   0.441   0.687   3.843 -0.8702 -0.3560  0.3592
 3290TIP3    H231286   0.306   0.754   3.831 -0.2873  0.6364 -0.7210
 3291TIP3   OH231287   3.386   4.321   1.260 -0.5549  0.2223  0.4951
 3291TIP3    H131288   3.433   4.280   1.187  0.2411 -1.5328  1.9224
 3291TIP3    H231289   3.455   4.352   1.318 -1.1738  0.7334  0.9643
 3292TIP3   OH231290   2.009   6.445   0.948  0.5813 -0.0981 -0.2160
 3292TIP3    H131291   1.938   6.438   1.012  1.2419  0.2683  0.5537
 3292TIP3    H231292   2.038   6.354   0.934  0.4442 -0.1757  0.0030
 3293TIP3   OH231293   3.635   5.571   1.975  0.2748  0.3973  0.8050
 3293TIP3    H131294   3.637   5.629   2.051  0.8222  0.9239  0.3937
 3293TIP3    H231295   3.589   5.492   2.006  1.3780  0.1906  1.9663
 3294TIP3   OH231296   2.071   4.671  15.932  0.4609 -0.2418  0.6781
 3294TIP3    H131297   2.099   4.662  16.023 -0.1739 -0.6048  0.8364
 3294TIP3    H231298   2.095   4.760  15.908 -0.2217  0.1702  1.5029
 3295TIP3   OH231299   2.949   2.402  14.485 -0.0187  0.3704 -0.2920
 3295TIP3    H131300   2.900   2.483  14.471 -0.0328  0.3055 -0.6263
 3295TIP3    H231301   2.902   2.337  14.432 -0.2200  0.0652  0.2588
 3296TIP3   OH231302   1.269   4.656   5.519 -0.0149 -0.0594 -0.1438
 3296TIP3    H131303   1.246   4.578   5.469 -1.9335  0.1197  0.4274
 3296TIP3    H231304   1.357   4.680   5.487 -0.1802 -1.3618 -1.6338
 3297TIP3   OH231305   0.600   3.790  15.645  0.7490 -0.4288  0.2569
 3297TIP3    H131306   0.615   3.884  15.653 -0.2355 -0.2955  0.5399
 3297TIP3    H231307   0.625   3.754  15.730  1.9563 -0.5422 -0.1308
 3298TIP3   OH231308   2.434   3.095   5.208 -0.4948  0.1108  0.1047
 3298TIP3    H131309   2.348   3.130   5.186 -0.8053  0.7511  2.1925
 3298TIP3    H231310   2.426   3.001   5.196 -0.8707  0.3569 -1.6582
 3299TIP3   OH231311   2.970   0.297  12.549 -0.7188 -0.7362 -0.4652
 3299TIP3    H131312   2.981   0.205  12.574  2.3231 -0.6233 -1.1367
 3299TIP3    H231313   2.969   0.343  12.633  2.7589 -0.9893 -0.1805
 3300TIP3   OH231314   0.704   3.303   2.152  0.2952  0.0988 -0.5180
 3300TIP3    H131315   0.687   3.210   2.139 -3.2514  0.6882 -0.5719
 3300TIP3    H231316   0.703   3.315   2.247 -0.5320  0.2542 -0.5368
 3301TIP3   OH231317   3.029   4.135   4.110 -0.2594  0.5914  0.4174
 3301TIP3    H131318   3.061   4.045   4.122 -0.7450  0.5654  1.6059
 3301TIP3    H231319   3.096   4.190   4.151 -0.3144  0.7199  0.3331
 3302TIP3   OH231320   0.983   3.177  15.787  0.0853  0.6586 -0.3471
 3302TIP3    H131321   0.980   3.157  15.881 -0.6709 -2.0128 -0.9047
 3302TIP3    H231322   0.893   3.200  15.764 -0.1184 -0.4826 -0.7525
 3303TIP3   OH231323   4.918   5.004   4.907 -0.2854 -0.0804 -0.0639
 3303TIP3    H131324   4.971   5.080   4.930  0.5042  0.0895 -2.3552
 3303TIP3    H231325   4.878   5.026   4.823  0.1016 -2.2716 -0.8718
 3304TIP3   OH231326   1.260   0.764   1.040  0.2917  0.1358 -0.8181
 3304TIP3    H131327   1.347   0.730   1.018  0.0133 -0.4528 -1.0154
 3304TIP3    H231328   1.237   0.820   0.966 -0.0492 -0.7346 -1.3673
 3305TIP3   OH231329   0.869   2.202  13.822  0.0661 -0.0778  0.6096
 3305TIP3    H131330   0.963   2.191  13.809 -0.0153 -0.7516  0.6029
 3305TIP3    H231331   0.857   2.193  13.917 -0.0729 -0.5929  0.5430
 3306TIP3   OH231332   4.041   6.109  15.007 -0.3943  0.1637 -0.2009
 3306TIP3    H131333   4.047   6.014  14.995  0.5356  0.0357  1.0986
 3306TIP3    H231334   3.964   6.135  14.957 -0.9420 -1.3568 -0.1750
 3307TIP3   OH231335   0.877   6.347  12.956 -0.1243  0.2489 -0.4752
 3307TIP3    H131336   0.878   6.414  13.025 -2.0264  0.0925 -0.2748
 3307TIP3    H231337   0.940   6.282  12.985 -0.7502  0.2878  1.0280
 3308TIP3   OH231338   2.692   5.285   0.022  0.0401  0.4969  0.1052
 3308TIP3    H131339   2.754   5.214   0.003  0.1947  0.4126  0.9242
 3308TIP3    H231340   2.679   5.281   0.116  1.0653  2.4105  0.3411
 3309TIP3   OH231341   4.186   5.198   1.164  0.4582 -0.1323  0.2128
 3309TIP3    H131342   4.145   5.185   1.249 -1.4197  1.5625 -0.4161
 3309TIP3    H231343   4.130   5.152   1.102 -0.3478  1.9027 -0.6063
 3310TIP3   OH231344   1.028   2.322  14.811  0.2759 -0.3500 -0.3092
 3310TIP3    H131345   0.978   2.324  14.730 -0.6895  0.7510  0.3028
 3310TIP3    H231346   1.109   2.276  14.788  0.0771  0.0727 -1.9228
 3311TIP3   OH231347   3.268   4.946   6.009  0.6584 -0.3537 -0.4070
 3311TIP3    H131348   3.285   4.863   5.965  2.6260 -0.0586 -0.2147
 3311TIP3    H231349   3.240   4.921   6.097 -1.4483 -0.8771 -1.1862
 3312TIP3   OH231350   2.119   1.361  14.029 -0.0999 -0.0276 -0.8491
 3312TIP3    H131351   2.157   1.395  13.948  2.6619 -2.0842 -0.4940
 3312TIP3    H231352   2.087   1.274  14.005 -1.8202  0.4646 -0.3852
 3313TIP3   OH231353   3.675   1.401  14.110 -0.2257 -0.3687 -0.3367
 3313TIP3    H131354   3.755   1.424  14.157  0.5361  0.4927 -1.9804
 3313TIP3    H231355   3.604   1.417  14.172  0.7108  1.2694  0.3356
 3314TIP3   OH231356   1.135   3.726  12.179  0.0945  0.4843 -0.0759
 3314TIP3    H131357   1.066   3.659  12.173  0.1506  0.4548 -0.3957
 3314TIP3    H231358   1.087   3.809  12.181  0.0085  0.4227  0.6831
 3315TIP3   OH231359   0.636   0.574  10.698  0.1689 -0.0884 -0.8062
 3315TIP3    H131360   0.541   0.567  10.695  0.0522  0.2049  1.3713
 3315TIP3    H231361   0.653   0.665  10.721  0.9199 -0.4929  0.3171
 3316TIP3   OH231362   5.245   1.295  11.599 -0.5088 -0.0855 -0.3191
 3316TIP3    H131363   5.266   1.349  11.675  0.3123  0.2859 -0.8106
 3316TIP3    H231364   5.154   1.268  11.614 -0.6081  0.6294  0.4049
 3317TIP3   OH231365   0.083   2.056  16.085  0.4143  0.1054 -0.6547
 3317TIP3    H131366   0.064   1.964  16.066  0.8478  0.2442 -1.8095
 3317TIP3    H231367   0.044   2.071  16.171 -1.3621 -0.6377 -1.2932
 3318TIP3   OH231368   2.989   5.233  12.142  0.0116 -0.0693 -0.0157
 3318TIP3    H131369   3.008   5.302  12.206  1.4186 -1.6830  1.3425
 3318TIP3    H231370   3.075   5.196  12.120 -0.6031 -0.5498 -1.7100
 3319TIP3   OH231371   4.154   6.265   5.409 -0.1941  0.4381  0.0508
 3319TIP3    H131372   4.110   6.291   5.329 -1.6916  0.8449  0.9841
 3319TIP3    H231373   4.083   6.234   5.466  1.0671 -1.8306  0.4624
 3320TIP3   OH231374   4.685   6.348  11.149  0.1686  0.1787 -0.2593
 3320TIP3    H131375   4.701   6.258  11.118  0.9072  0.5619 -1.0097
 3320TIP3    H231376   4.721   6.404  11.080 -0.3502  1.0582  0.1772
 3321TIP3   OH231377   4.659   0.966   3.625 -0.4841 -0.2654 -0.0556
 3321TIP3    H131378   4.716   1.016   3.567  0.5633 -0.6206  0.6509
 3321TIP3    H231379   4.602   0.916   3.566 -1.1526  1.2927 -0.7664
 3322TIP3   OH231380   2.781   6.196  12.885  0.6497 -0.6876  0.4046
 3322TIP3    H131381   2.863   6.213  12.838  0.3483  0.6649  0.3374
 3322TIP3    H231382   2.713   6.230  12.827  0.2515  0.7603  1.6839
 3323TIP3   OH231383   5.608   4.759   0.260  0.4016 -0.1778 -0.0496
 3323TIP3    H131384   5.527   4.722   0.296 -0.6123  0.6327 -1.4404
 3323TIP3    H231385   5.675   4.694   0.280 -0.9954 -1.8875 -0.7461
 3324TIP3   OH231386   2.694   5.934   5.901  0.6856  0.6833  0.9878
 3324TIP3    H131387   2.703   5.871   5.972  2.7738  0.4990  0.5870
 3324TIP3    H231388   2.777   5.982   5.900  1.2580 -0.2577 -2.2195
 3325TIP3   OH231389   6.160   6.699   3.106  0.3987 -0.4395  0.3277
 3325TIP3    H131390   6.157   6.604   3.113  0.3307 -0.3810  1.0858
 3325TIP3    H231391   6.211   6.728   3.181 -0.9681  0.2257  1.0163
 3326TIP3   OH231392   6.283   6.289  13.486  0.2513  0.2327 -0.0167
 3326TIP3    H131393   6.375   6.270  13.468  1.1117  1.3320  2.9705
 3326TIP3    H231394   6.277   6.288  13.582 -2.8611  0.1633 -0.1759
 3327TIP3   OH231395   1.565   5.001  13.301 -0.0178 -0.1658 -0.2912
 3327TIP3    H131396   1.483   4.955  13.290 -0.2287  0.4318 -1.2128
 3327TIP3    H231397   1.544   5.073  13.361 -0.5035  0.8321 -1.6333
 3328TIP3   OH231398   1.636   4.775  10.220 -0.1426  0.4224 -0.2589
 3328TIP3    H131399   1.667   4.838  10.285  0.7879  0.7172 -0.9845
 3328TIP3    H231400   1.541   4.772  10.233 -0.1082  1.4197  0.2584
 3329TIP3   OH231401   1.114   0.035  12.126 -0.4428  0.7347  0.1544
 3329TIP3    H131402   1.081  -0.055  12.137 -1.7524  1.2133  0.2286
 3329TIP3    H231403   1.042   0.082  12.084  1.3193  1.0548 -2.6740
 3330TIP3   OH231404   4.920   4.727   2.613 -0.4141  0.0704  0.1745
 3330TIP3    H131405   4.913   4.719   2.708  0.2532  2.6244  0.4727
 3330TIP3    H231406   4.971   4.650   2.586  3.2154  1.5313  2.4487
 3331TIP3   OH231407   6.296   2.163  11.514  0.0756 -0.1862  0.3074
 3331TIP3    H131408   6.258   2.175  11.427 -0.0917  0.6480  0.4848
 3331TIP3    H231409   6.355   2.238  11.525 -0.2734 -0.0191  1.1037
 3332TIP3   OH231410   1.082   0.191  14.296 -0.3819 -0.5160  0.2362
 3332TIP3    H131411   1.106   0.147  14.378  1.7020 -0.5599 -0.3747
 3332TIP3    H231412   0.991   0.165  14.281  0.7795 -4.6763 -0.1163
 3333TIP3   OH231413   2.385   3.266   0.255 -0.0868 -0.1480 -0.3521
 3333TIP3    H131414   2.369   3.357   0.281  1.9503 -0.2471  1.4140
 3333TIP3    H231415   2.345   3.258   0.168 -0.6757  2.2892 -0.3411
 3334TIP3   OH231416   6.460   3.186  14.506 -0.5139  0.6610 -0.3252
 3334TIP3    H131417   6.444   3.197  14.600  0.2551 -0.1790 -0.0958
 3334TIP3    H231418   6.393   3.241  14.464  0.5706  2.8791  0.7408
 3335TIP3   OH231419   5.482   3.230  12.941 -0.7770 -0.1118 -0.2901
 3335TIP3    H131420   5.389   3.219  12.960 -1.0688  0.9608 -1.0293
 3335TIP3    H231421   5.497   3.324  12.947  0.0491 -0.1826 -1.1093
 3336TIP3   OH231422   2.978   2.352  12.781 -0.4800 -0.3060  0.1790
 3336TIP3    H131423   2.971   2.271  12.731  1.5664 -0.5070  0.1648
 3336TIP3    H231424   3.015   2.415  12.719 -0.5997  0.2118  0.6279
 3337TIP3   OH231425   3.437   1.316   2.508 -0.4399 -0.3819  0.3257
 3337TIP3    H131426   3.371   1.379   2.483  1.5266  2.5003  2.0608
 3337TIP3    H231427   3.515   1.341   2.459  0.1242 -2.0308  0.3332
 3338TIP3   OH231428   5.272   2.555  14.486  0.1316  0.0365 -0.1708
 3338TIP3    H131429   5.186   2.565  14.527 -0.0817 -1.1982 -0.3070
 3338TIP3    H231430   5.332   2.543  14.560  0.4171  2.3270  0.0098
 3339TIP3   OH231431   1.639   0.879  14.381 -0.0922 -0.3369 -0.3272
 3339TIP3    H131432   1.669   0.949  14.439 -0.7017  0.1291 -0.5612
 3339TIP3    H231433   1.711   0.865  14.320  0.1009 -0.0336 -0.1675
 3340TIP3   OH231434   4.040   2.138  13.793  0.3073  0.5502  0.3644
 3340TIP3    H131435   3.974   2.147  13.724  1.7550 -0.3121 -1.1920
 3340TIP3    H231436   4.087   2.058  13.770  1.4299  0.7596  1.8567
 3341TIP3   OH231437   4.556   2.673   0.228  0.8188  0.3988 -0.2444
 3341TIP3    H131438   4.648   2.652   0.213  0.9015  0.2316  0.4760
 3341TIP3    H231439   4.546   2.668   0.323 -0.3398 -1.2965 -0.4434
 3342TIP3   OH231440   1.972   3.873   4.019 -0.4845  0.0706  0.4172
 3342TIP3    H131441   1.923   3.839   3.944 -0.6226  0.8624  0.1448
 3342TIP3    H231442   2.012   3.796   4.059 -1.5309 -0.5223  0.3352
 3343TIP3   OH231443   2.411   2.129  11.854 -0.4560  1.0871  0.3828
 3343TIP3    H131444   2.400   2.093  11.942  0.5825  2.1162  0.9337
 3343TIP3    H231445   2.326   2.113  11.812 -0.5966 -0.4171  1.1771
 3344TIP3   OH231446   3.305   2.964  13.649  0.2258 -0.0660  1.0505
 3344TIP3    H131447   3.259   2.968  13.733  1.3384 -0.0967  1.6659
 3344TIP3    H231448   3.396   2.983  13.670  0.6222 -0.6535 -0.0713
 3345TIP3   OH231449   5.297   4.020   5.773  0.6121 -0.2061 -0.0572
 3345TIP3    H131450   5.329   3.977   5.852 -1.2724 -1.9894 -0.2059
 3345TIP3    H231451   5.317   3.959   5.702 -0.9547 -0.3003 -0.4475
 3346TIP3   OH231452   0.973   4.290  15.815 -0.6649 -0.2773  0.6312
 3346TIP3    H131453   1.051   4.306  15.868  0.4783 -0.8479 -0.8476
 3346TIP3    H231454   0.908   4.352  15.849  0.8289  1.1095  1.0411
 3347TIP3   OH231455   5.379   0.463   3.768  0.4396  0.6100 -0.0410
 3347TIP3    H131456   5.469   0.447   3.796  0.2972 -2.2488 -1.1007
 3347TIP3    H231457   5.388   0.515   3.688  1.1993 -0.3331 -0.5866
 3348TIP3   OH231458   0.408   2.194  11.404 -0.6727  0.2190  0.3364
 3348TIP3    H131459   0.335   2.255  11.400 -0.1297  0.8574  0.1014
 3348TIP3    H231460   0.475   2.232  11.348  0.5089  0.5453  1.9421
 3349TIP3   OH231461   3.291   4.949   0.033  0.5512 -0.7165  0.4994
 3349TIP3    H131462   3.320   4.999   0.110  0.3153  0.6220 -0.2729
 3349TIP3    H231463   3.368   4.943  -0.023  0.3993 -0.6301  0.2805
 3350TIP3   OH231464   1.249   2.187  11.301  0.4167 -0.4555  0.4326
 3350TIP3    H131465   1.317   2.122  11.321 -0.0639 -1.5899 -1.4417
 3350TIP3    H231466   1.266   2.212  11.210  1.0680  2.6813  1.3654
 3351TIP3   OH231467   0.249   2.474   2.682 -0.0442  0.6279  0.5703
 3351TIP3    H131468   0.212   2.552   2.642 -1.2396  0.8666  2.0768
 3351TIP3    H231469   0.182   2.407   2.672  1.2563 -0.4232 -1.3341
 3352TIP3   OH231470   0.499   4.205   2.882  0.3576  0.1319 -0.6254
 3352TIP3    H131471   0.407   4.192   2.906  0.6842 -1.4265 -0.1864
 3352TIP3    H231472   0.515   4.298   2.897 -0.6157  0.0277  1.1337
 3353TIP3   OH231473   0.170   3.449   0.386 -0.2433 -0.0985  0.3526
 3353TIP3    H131474   0.212   3.530   0.415  1.4811 -0.6683 -0.4688
 3353TIP3    H231475   0.182   3.449   0.291  0.0374 -1.4515  0.3767
 3354TIP3   OH231476   0.448   2.578  12.200  0.3539  0.2926 -0.7074
 3354TIP3    H131477   0.373   2.550  12.252  2.7601 -2.1127  1.6201
 3354TIP3    H231478   0.493   2.642  12.256  0.3308  1.3969 -1.9076
 3355TIP3   OH231479   3.082   1.624  14.475 -0.2887  0.3121  0.1637
 3355TIP3    H131480   3.102   1.655  14.563  1.2579 -0.0960 -0.0279
 3355TIP3    H231481   2.989   1.642  14.464 -0.1463  1.8317  1.2775
 3356TIP3   OH231482   2.150   5.712  12.794 -0.3163  0.0627 -0.0805
 3356TIP3    H131483   2.122   5.678  12.709  0.0071 -0.1265 -0.1129
 3356TIP3    H231484   2.202   5.789  12.773  0.9391 -0.7812 -0.1313
 3357TIP3   OH231485   2.146   2.167  12.068  0.1648  0.6274 -0.2158
 3357TIP3    H131486   2.098   2.249  12.052 -1.7211 -0.4280 -0.0990
 3357TIP3    H231487   2.152   2.126  11.982  1.5860  1.1339 -0.3661
 3358TIP3   OH231488   2.156   2.338  14.397  0.0581 -0.6148 -0.4031
 3358TIP3    H131489   2.224   2.345  14.330 -0.7819 -0.4151 -1.2407
 3358TIP3    H231490   2.135   2.429  14.419 -0.0825 -0.6726 -0.3024
 3359TIP3   OH231491   5.250   1.851  13.162 -0.0250 -0.0695  1.0730
 3359TIP3    H131492   5.277   1.937  13.193 -0.9739  0.5787  0.0830
 3359TIP3    H231493   5.155   1.853  13.162 -0.0491 -0.8722  0.3523
 3360TIP3   OH231494   3.295   4.356  12.343 -0.2993 -0.1735  0.0009
 3360TIP3    H131495   3.354   4.283  12.328  0.5026  0.6161 -0.7676
 3360TIP3    H231496   3.247   4.367  12.261 -1.3107 -0.6137  0.5178
 3361TIP3   OH231497   6.061   2.328   3.231  0.0710 -0.0158 -0.1773
 3361TIP3    H131498   6.155   2.336   3.217  0.3564 -0.6600  1.3014
 3361TIP3    H231499   6.049   2.345   3.324 -1.0877 -1.5261 -0.0341
 3362TIP3   OH231500   1.674   0.426   6.119 -0.7091  0.8797  0.2853
 3362TIP3    H131501   1.624   0.359   6.166 -0.5517  1.5656  1.4503
 3362TIP3    H231502   1.653   0.410   6.026  1.2107 -2.2719  0.3219
 3363TIP3   OH231503   4.593   5.902  15.947 -0.0057  0.1380  0.5684
 3363TIP3    H131504   4.605   5.975  15.886 -0.7426 -0.6607 -0.5506
 3363TIP3    H231505   4.674   5.851  15.939  1.0147  1.4602  2.2368
 3364TIP3   OH231506   0.074   4.944  16.841 -0.3268  0.1594 -0.6429
 3364TIP3    H131507   0.164   4.977  16.844 -0.4523  0.4731 -0.3752
 3364TIP3    H231508   0.084   4.850  16.827  0.0318  0.2846 -1.2305
 3365TIP3   OH231509   5.200   6.195   4.189  0.6747 -0.4531 -0.0546
 3365TIP3    H131510   5.260   6.270   4.187  2.2230 -1.6983 -1.1482
 3365TIP3    H231511   5.257   6.118   4.189 -0.9219 -1.6642 -0.5350
 3366TIP3   OH231512   6.625   2.067  16.801  0.5921  0.4663  0.0522
 3366TIP3    H131513   6.590   2.017  16.874  0.0102  3.2451  1.7825
 3366TIP3    H231514   6.718   2.042  16.796  0.2849 -0.8344  0.7823
 3367TIP3   OH231515   2.508   0.938  12.287  0.0234  0.0743 -0.1231
 3367TIP3    H131516   2.489   0.966  12.376  1.2482  0.7853 -0.0760
 3367TIP3    H231517   2.498   0.843  12.289  0.9278 -0.0043  1.0009
 3368TIP3   OH231518   0.785   0.765   2.201 -0.3277  0.5347 -0.3297
 3368TIP3    H131519   0.747   0.793   2.284 -2.1908 -0.5739 -0.7531
 3368TIP3    H231520   0.865   0.720   2.225 -1.0275 -0.0846  0.9181
 3369TIP3   OH231521   0.731   6.159  14.743  0.6092 -0.1708 -0.1770
 3369TIP3    H131522   0.813   6.159  14.793  0.0187  2.0038  0.8288
 3369TIP3    H231523   0.693   6.073  14.760  0.5112  0.4581  3.0132
 3370TIP3   OH231524   4.921   5.757   1.632  0.3361 -0.1203 -0.3497
 3370TIP3    H131525   5.013   5.733   1.621  0.1929  0.0728 -2.0953
 3370TIP3    H231526   4.875   5.674   1.641  0.5660 -0.2681 -0.5234
 3371TIP3   OH231527   2.967   4.343  16.399 -0.2276 -0.2252 -0.0131
 3371TIP3    H131528   2.965   4.419  16.457 -1.6870  0.0826 -0.4412
 3371TIP3    H231529   3.058   4.313  16.402 -0.3421 -0.3921  2.6221
 3372TIP3   OH231530   5.005   1.535  13.357 -0.6666  0.2261 -0.0799
 3372TIP3    H131531   5.100   1.524  13.363 -0.7359 -0.9408 -1.0331
 3372TIP3    H231532   4.984   1.599  13.425  0.6150 -0.5473  1.0553
 3373TIP3   OH231533   0.610   2.922   5.063 -0.4920 -0.1000  0.0301
 3373TIP3    H131534   0.701   2.939   5.040  0.0336 -0.2753  1.9057
 3373TIP3    H231535   0.561   2.996   5.028  0.6664  1.0698  0.8600
 3374TIP3   OH231536   6.563   3.079  11.557 -0.5164 -0.4303  0.0271
 3374TIP3    H131537   6.575   3.020  11.483  0.2488 -2.3681  1.6638
 3374TIP3    H231538   6.470   3.102  11.555 -0.7875 -1.5706 -0.7163
 3375TIP3   OH231539   6.196   3.474   6.137 -0.3111  0.5189 -0.0599
 3375TIP3    H131540   6.103   3.454   6.143  0.1006 -1.7899 -0.9068
 3375TIP3    H231541   6.210   3.541   6.204 -2.0697 -1.0183  1.9146
 3376TIP3   OH231542   5.418   3.393  16.285  0.4667 -0.1786  0.3708
 3376TIP3    H131543   5.385   3.308  16.313  1.3086 -0.7197 -0.2596
 3376TIP3    H231544   5.513   3.388  16.296  0.3631  1.4437  2.3710
 3377TIP3   OH231545   5.075   6.373  10.693  0.0023 -0.2887  0.9018
 3377TIP3    H131546   5.005   6.430  10.726 -0.3159  0.5892 -1.2145
 3377TIP3    H231547   5.153   6.430  10.691  0.2836 -0.6603  1.2047
 3378TIP3   OH231548   0.537   3.390   4.066  0.7666  0.1118 -0.1011
 3378TIP3    H131549   0.444   3.406   4.078  1.0205  1.8272 -0.4009
 3378TIP3    H231550   0.572   3.470   4.027  1.8506 -1.5313 -2.7201
 3379TIP3   OH231551   5.455   5.638  14.607 -0.0604 -0.5980 -0.0482
 3379TIP3    H131552   5.507   5.571  14.651  1.0215  0.4368  0.2589
 3379TIP3    H231553   5.507   5.664  14.531 -0.2957  0.1674  0.0478
 3380TIP3   OH231554   2.257   2.795   1.336 -0.3618 -0.1624  0.6413
 3380TIP3    H131555   2.298   2.766   1.418  0.7323 -1.4248 -0.3171
 3380TIP3    H231556   2.326   2.784   1.270 -1.1127  1.1951 -0.3910
 3381TIP3   OH231557   0.621   1.343   5.034 -0.2604  0.0872 -0.7477
 3381TIP3    H131558   0.557   1.399   4.990  0.2108  2.4666  1.4970
 3381TIP3    H231559   0.688   1.327   4.967  0.1928  3.2387 -1.1569
 3382TIP3   OH231560   0.083   2.383  10.762 -0.4355 -0.0146 -0.3162
 3382TIP3    H131561   0.060   2.451  10.699  0.4879  0.3265 -0.2864
 3382TIP3    H231562   0.076   2.301  10.713  0.7522  0.2834 -1.0117
 3383TIP3   OH231563   2.151   6.405   4.734  0.1959  0.6824  0.6715
 3383TIP3    H131564   2.198   6.484   4.706  1.6641 -0.2834  0.3526
 3383TIP3    H231565   2.170   6.397   4.827  0.4248  0.4578  0.6065
 3384TIP3   OH231566   2.196   2.238   1.852 -0.1875 -0.2438  0.2736
 3384TIP3    H131567   2.227   2.148   1.853  1.1876  0.1936 -0.8956
 3384TIP3    H231568   2.108   2.233   1.816  0.0465 -1.0695 -0.1937
 3385TIP3   OH231569   0.498   2.499   6.236  0.1333  0.2822  0.2281
 3385TIP3    H131570   0.510   2.407   6.263 -1.2573 -0.1179 -0.4595
 3385TIP3    H231571   0.443   2.537   6.305 -0.3967  0.2337 -0.1638
 3386TIP3   OH231572   3.950   2.978  12.846  0.1345  0.0698 -0.0365
 3386TIP3    H131573   3.988   3.037  12.911  0.1996 -0.0974  0.0785
 3386TIP3    H231574   3.855   2.991  12.854  0.1389 -0.0058  0.1459
 3387TIP3   OH231575   1.763   3.826   6.046 -0.7388  0.4799  0.1472
 3387TIP3    H131576   1.733   3.915   6.067  0.3735  0.9491 -0.2282
 3387TIP3    H231577   1.804   3.795   6.127 -0.1050  0.7460 -0.0681
 3388TIP3   OH231578   4.628   3.589  11.525  0.1882  0.4507  1.0211
 3388TIP3    H131579   4.581   3.662  11.566 -0.0339  1.0118 -0.1830
 3388TIP3    H231580   4.697   3.631  11.474  0.1405 -0.1776  0.4192
 3389TIP3   OH231581   3.174   4.370   5.816  0.0076  0.1343 -0.1233
 3389TIP3    H131582   3.212   4.456   5.802  0.4890 -0.1815 -0.7995
 3389TIP3    H231583   3.095   4.369   5.761  0.5527 -0.2126 -0.9165
 3390TIP3   OH231584   2.068   6.416  16.703 -0.6658 -0.0428  0.5812
 3390TIP3    H131585   2.095   6.507  16.719 -2.4193  0.4049  1.1488
 3390TIP3    H231586   2.026   6.419  16.617  2.5273 -1.0681 -1.0637
 3391TIP3   OH231587   6.777   2.394  15.342  0.0481  0.5941  0.1457
 3391TIP3    H131588   6.756   2.373  15.433 -0.7111 -0.1558 -0.1866
 3391TIP3    H231589   6.694   2.427  15.305  0.1194  0.0868 -0.4906
 3392TIP3   OH231590   3.346   0.026   5.106 -0.5165 -0.1816  0.0729
 3392TIP3    H131591   3.369   0.051   5.016 -0.1774 -1.3264 -0.1684
 3392TIP3    H231592   3.419   0.057   5.159 -0.4901  0.0756 -0.1126
 3393TIP3   OH231593   2.716   3.456   5.237  0.2240 -0.1980 -0.2314
 3393TIP3    H131594   2.797   3.444   5.287 -0.2199  0.0532  0.5588
 3393TIP3    H231595   2.664   3.377   5.256 -1.3127  1.3663  2.3295
 3394TIP3   OH231596   4.250   1.012   3.634 -0.2885 -0.7575 -0.0894
 3394TIP3    H131597   4.321   1.040   3.691 -0.3996 -0.9747  0.1595
 3394TIP3    H231598   4.225   0.926   3.668 -0.7899 -0.6038 -0.0625
 3395TIP3   OH231599   4.760   4.305  14.749  0.2334  0.1294 -0.6086
 3395TIP3    H131600   4.665   4.300  14.739  0.0742  2.3428 -0.5030
 3395TIP3    H231601   4.786   4.382  14.698  1.7305  0.6054  0.8029
 3396TIP3   OH231602   4.028   3.399  12.337 -0.0337 -0.0040  0.1870
 3396TIP3    H131603   3.934   3.397  12.355 -0.3400 -0.5569 -1.4285
 3396TIP3    H231604   4.065   3.445  12.412 -1.6982  1.0805  0.3688
 3397TIP3   OH231605   1.944   3.389  15.756 -0.8661 -0.3775 -0.1485
 3397TIP3    H131606   1.896   3.306  15.758  0.2984 -1.1064 -1.6717
 3397TIP3    H231607   1.878   3.455  15.776 -2.1397 -1.5288 -0.4666
 3398TIP3   OH231608   5.007   6.269  12.430 -0.2919  0.4826 -0.3446
 3398TIP3    H131609   4.932   6.326  12.450  0.5220  1.8030 -0.9544
 3398TIP3    H231610   4.969   6.182  12.419 -1.7368  1.1247 -0.5822
 3399TIP3   OH231611   2.510   1.046   1.030  0.0142 -0.0806  0.1538
 3399TIP3    H131612   2.545   0.957   1.029 -0.2320 -0.1875  0.6479
 3399TIP3    H231613   2.529   1.078   1.119 -0.5860  0.0758  0.2311
 3400TIP3   OH231614   6.278   5.314   0.565  0.4298 -0.2982 -0.6591
 3400TIP3    H131615   6.299   5.344   0.653 -0.3707  1.3417 -0.9959
 3400TIP3    H231616   6.251   5.223   0.576 -0.4955  0.1518  0.9211
 3401TIP3   OH231617   6.187   4.220  15.460  0.1583  0.0814  0.5200
 3401TIP3    H131618   6.189   4.306  15.418  1.2880  0.2366  0.8574
 3401TIP3    H231619   6.117   4.226  15.524  1.6444  1.5111  2.0757
 3402TIP3   OH231620   0.623   6.080   1.528  0.3109 -0.4493 -0.3026
 3402TIP3    H131621   0.544   6.121   1.492  1.2381  0.1402 -1.7234
 3402TIP3    H231622   0.606   5.986   1.519 -0.0306 -0.3260 -1.0901
 3403TIP3   OH231623   4.784   1.949   0.717  0.1316 -0.3543  0.1713
 3403TIP3    H131624   4.794   1.868   0.666  0.5977  0.9435 -1.8412
 3403TIP3    H231625   4.739   1.921   0.796 -1.1256 -2.3428 -1.1924
 3404TIP3   OH231626   5.438   0.447   2.070 -0.1001  0.1206  0.3110
 3404TIP3    H131627   5.394   0.466   2.153 -0.1927 -0.7350  0.4557
 3404TIP3    H231628   5.486   0.366   2.086 -0.6784 -0.4235 -0.6862
 3405TIP3   OH231629   6.764   4.357   0.980 -0.5579 -0.3189  0.5624
 3405TIP3    H131630   6.853   4.347   1.014 -0.2906  0.7387  0.2026
 3405TIP3    H231631   6.734   4.441   1.015 -1.5709 -0.8688  1.0177
 3406TIP3   OH231632   4.233   6.091   6.125 -0.1368 -0.0720  0.2695
 3406TIP3    H131633   4.265   6.181   6.119 -1.1163  0.2447 -0.2240
 3406TIP3    H231634   4.299   6.046   6.178  0.8464  0.7012 -0.2760
 3407TIP3   OH231635   3.315   2.530  12.561 -0.6178 -0.1638 -0.4396
 3407TIP3    H131636   3.338   2.618  12.533  2.1405 -0.7664 -0.2449
 3407TIP3    H231637   3.237   2.541  12.615  0.6245  2.3954  0.9386
 3408TIP3   OH231638   1.916   0.771   3.986  0.0004 -0.5584 -0.3122
 3408TIP3    H131639   1.837   0.719   4.003  0.3301 -1.1683 -0.6060
 3408TIP3    H231640   1.985   0.723   4.032 -0.2713  1.5139  2.3660
 3409TIP3   OH231641   1.957   3.619  16.668 -0.1590  0.3898 -0.0746
 3409TIP3    H131642   2.012   3.671  16.610  1.2797 -1.4007 -0.3587
 3409TIP3    H231643   1.868   3.633  16.636  0.4273  1.0063 -1.4565
 3410TIP3   OH231644   1.813   3.593   1.147 -0.3897  0.5725  0.0812
 3410TIP3    H131645   1.896   3.617   1.187  0.8939 -2.8606 -0.3632
 3410TIP3    H231646   1.752   3.585   1.220 -0.0378  1.9124  0.5291
 3411TIP3   OH231647   0.892   4.409   5.213 -0.1665  0.7696 -0.0586
 3411TIP3    H131648   0.853   4.412   5.126 -1.1235  0.0020  0.3395
 3411TIP3    H231649   0.938   4.325   5.216 -2.2034 -0.3601  1.0274
 3412TIP3   OH231650   2.274   4.977  16.598 -0.1604  0.2959  0.2122
 3412TIP3    H131651   2.232   5.062  16.611 -0.0129  0.0651  2.2461
 3412TIP3    H231652   2.242   4.923  16.670  1.7784 -0.5891  0.4363
 3413TIP3   OH231653   1.968   5.394  15.341 -0.2641  0.0938 -0.0687
 3413TIP3    H131654   1.880   5.395  15.305 -0.9331  1.5784  1.5211
 3413TIP3    H231655   1.956   5.410  15.435  1.7080  0.6588  0.1218
 3414TIP3   OH231656   6.621   4.440   5.708 -0.0206  0.2924  0.4575
 3414TIP3    H131657   6.577   4.483   5.781 -2.8075  1.6411 -1.8777
 3414TIP3    H231658   6.569   4.464   5.631  1.0329 -3.4836 -1.6016
 3415TIP3   OH231659   0.640   6.653   1.412  0.5869 -0.2219 -0.6918
 3415TIP3    H131660   0.734   6.662   1.427  0.5585 -1.6846  0.4549
 3415TIP3    H231661   0.633   6.607   1.329  0.9492 -2.4932  0.5031
 3416TIP3   OH231662   2.072   3.731  15.254  0.2361 -0.3584  0.6817
 3416TIP3    H131663   2.053   3.734  15.347  0.8916 -1.9288  0.8830
 3416TIP3    H231664   2.077   3.637  15.233  1.1318 -0.0246 -0.7073
 3417TIP3   OH231665   1.655   4.599   2.302  0.2023 -0.5063  0.4491
 3417TIP3    H131666   1.638   4.505   2.308  0.7141 -0.7816 -2.0397
 3417TIP3    H231667   1.609   4.627   2.223 -0.9029  1.5910  1.7715
 3418TIP3   OH231668   5.920   6.162  13.015 -0.0533 -0.1888  0.5612
 3418TIP3    H131669   6.012   6.160  12.988  1.2572 -0.2715  4.6730
 3418TIP3    H231670   5.904   6.076  13.053 -1.3686  0.3471  1.2653
 3419TIP3   OH231671   5.531   5.388  13.375  0.4671 -0.1683 -0.6099
 3419TIP3    H131672   5.583   5.430  13.306  0.7193 -0.0540 -0.3503
 3419TIP3    H231673   5.570   5.301  13.384  1.3203  0.3048  0.3497
 3420TIP3   OH231674   1.991   4.947  10.569  0.2228  0.3191 -0.3881
 3420TIP3    H131675   2.067   4.928  10.624  0.9425  3.9405  0.0117
 3420TIP3    H231676   2.030   4.976  10.486 -0.6768  1.5887 -0.3878
 3421TIP3   OH231677   4.307   0.424   4.139  0.2279 -0.5999 -0.0123
 3421TIP3    H131678   4.356   0.361   4.191  0.8407  0.5890  0.8628
 3421TIP3    H231679   4.218   0.419   4.173  0.6107  0.1283  1.1433
 3422TIP3   OH231680   0.423   1.019  12.142  0.3018 -0.6750 -0.2929
 3422TIP3    H131681   0.441   1.101  12.187 -1.4463 -2.0401  3.0053
 3422TIP3    H231682   0.331   1.023  12.119  0.4571 -1.2867 -1.0730
 3423TIP3   OH231683   4.130   5.546   5.305 -0.6057 -0.3410  0.5819
 3423TIP3    H131684   4.222   5.552   5.278  0.2346 -3.5804  2.4698
 3423TIP3    H231685   4.130   5.573   5.397 -1.0366 -2.9158  1.3800
 3424TIP3   OH231686   5.451   4.335  13.014 -0.4742  0.0299  0.0596
 3424TIP3    H131687   5.499   4.264  13.056  0.3924 -0.4389 -1.6873
 3424TIP3    H231688   5.503   4.358  12.937 -1.5997  1.4350 -0.3172
 3425TIP3   OH231689   3.430   2.289  12.570 -0.3608  0.0271 -0.0293
 3425TIP3    H131690   3.361   2.353  12.557 -0.1397 -0.2100 -2.5877
 3425TIP3    H231691   3.451   2.295  12.663 -2.2356  1.7003  0.3165
 3426TIP3   OH231692   0.582   6.615  13.495 -0.5722 -0.3657 -0.3437
 3426TIP3    H131693   0.554   6.706  13.503 -0.0495 -0.1856 -0.5663
 3426TIP3    H231694   0.508   6.565  13.530  0.1301  0.2383  2.1462
 3427TIP3   OH231695   3.501   5.524   4.525 -0.3878  0.0118 -0.0215
 3427TIP3    H131696   3.588   5.547   4.557 -0.6507  1.6495 -0.4673
 3427TIP3    H231697   3.472   5.454   4.584  1.0673 -0.2925  0.3534
 3428TIP3   OH231698   1.538   0.645   3.486 -0.0387 -0.0150  0.2695
 3428TIP3    H131699   1.557   0.684   3.571 -0.8949  0.6686  0.1563
 3428TIP3    H231700   1.460   0.591   3.502  0.4575 -0.7668  0.1674
 3429TIP3   OH231701   0.856   2.823  12.762  0.6821 -0.4445 -0.2270
 3429TIP3    H131702   0.942   2.816  12.805  0.2909 -1.1093  0.4648
 3429TIP3    H231703   0.876   2.841  12.670  1.5410  0.7400  0.1901
 3430TIP3   OH231704   1.695   4.652  11.783  0.2496  0.7151 -0.2844
 3430TIP3    H131705   1.767   4.589  11.773  0.0774 -0.0203  2.5722
 3430TIP3    H231706   1.721   4.727  11.729  3.7730  0.9638  1.5867
 3431TIP3   OH231707   1.519   6.315  15.130  0.2623  0.6938 -0.1467
 3431TIP3    H131708   1.429   6.285  15.116  0.6179 -0.7914  0.6842
 3431TIP3    H231709   1.548   6.345  15.044 -0.8421  0.6857 -0.5316
 3432TIP3   OH231710   1.880   0.070  12.040 -0.0247  0.0489  0.2857
 3432TIP3    H131711   1.967   0.046  12.073 -0.4658  0.3271  1.6592
 3432TIP3    H231712   1.882   0.166  12.035  0.2368 -0.0107 -1.0837
 3433TIP3   OH231713   2.432   2.704   4.139  0.6001  0.1815  0.7206
 3433TIP3    H131714   2.517   2.737   4.168  1.6845 -0.3279 -1.8153
 3433TIP3    H231715   2.446   2.676   4.049 -2.5334  1.0689 -0.0985
 3434TIP3   OH231716   6.447   6.545   4.082 -0.0763  0.0576 -0.0704
 3434TIP3    H131717   6.377   6.603   4.114 -0.0679 -0.2972  0.6023
 3434TIP3    H231718   6.527   6.583   4.118  0.1917  1.0124 -1.6207
 3435TIP3   OH231719   1.424   6.705   0.951 -0.0386  0.2095 -0.6529
 3435TIP3    H131720   1.343   6.702   0.900 -0.1866  1.8927 -0.5426
 3435TIP3    H231721   1.449   6.797   0.951  1.6325 -0.2232 -0.2812
 3436TIP3   OH231722   2.272   1.295   2.262 -0.4616 -0.0907 -0.0165
 3436TIP3    H131723   2.227   1.356   2.320  0.1742 -1.0693  1.5086
 3436TIP3    H231724   2.207   1.227   2.244 -0.5899  0.1046 -0.3056
 3437TIP3   OH231725   4.657   5.914  14.167  0.4766 -0.0959 -0.3102
 3437TIP3    H131726   4.734   5.856  14.168  2.2336  2.1983  0.8122
 3437TIP3    H231727   4.664   5.964  14.248 -1.7165  0.8378 -0.6743
 3438TIP3   OH231728   1.444   2.073  11.727  0.1659  0.3775  0.0383
 3438TIP3    H131729   1.428   1.992  11.775 -0.0023 -0.7224 -1.7910
 3438TIP3    H231730   1.406   2.056  11.640 -0.3407  2.6172 -0.2031
 3439TIP3   OH231731   2.876   6.222   1.006 -0.2654 -0.2191 -0.1931
 3439TIP3    H131732   2.811   6.153   0.995 -0.6421 -0.0605  0.9403
 3439TIP3    H231733   2.824   6.301   1.024  0.2162  0.0030  0.2355
 3440TIP3   OH231734   0.803   0.011   3.773  0.5386  0.2337  0.0088
 3440TIP3    H131735   0.790   0.093   3.726  1.8635 -0.6813 -1.9894
 3440TIP3    H231736   0.882   0.027   3.826 -0.4250  0.9381  1.2932
 3441TIP3   OH231737   2.096   1.146  12.802  0.9450 -0.1879  0.0421
 3441TIP3    H131738   2.128   1.144  12.893 -0.2872 -0.6017  0.4695
 3441TIP3    H231739   2.030   1.215  12.802 -0.9106 -1.9240  0.0941
 3442TIP3   OH231740   4.666   4.881  13.893 -0.4411  0.7631  0.0324
 3442TIP3    H131741   4.617   4.847  13.819 -1.6796  2.4126  0.0927
 3442TIP3    H231742   4.733   4.814  13.909  0.4534  0.8219 -3.1415
 3443TIP3   OH231743   3.029   0.095  11.684  0.2760 -0.2668  0.0728
 3443TIP3    H131744   3.061   0.183  11.705  0.1318 -0.0768 -0.4945
 3443TIP3    H231745   3.039   0.088  11.589  1.5168 -1.3554  0.2597
 3444TIP3   OH231746   1.137   5.961  14.609 -0.1564 -0.3359  0.2350
 3444TIP3    H131747   1.198   5.888  14.627  2.0928  1.1449 -1.2072
 3444TIP3    H231748   1.051   5.927  14.635  0.9335 -3.3012  0.1445
 3445TIP3   OH231749   1.610   3.113   6.113 -0.4592 -0.5110 -0.4339
 3445TIP3    H131750   1.688   3.119   6.168 -1.8785  1.1072  1.5009
 3445TIP3    H231751   1.644   3.112   6.024  1.7814  0.5118  0.3595
 3446TIP3   OH231752   4.645   2.797  11.827 -0.3146  0.5459  0.0407
 3446TIP3    H131753   4.603   2.811  11.742  1.1980 -1.2417 -1.0564
 3446TIP3    H231754   4.651   2.884  11.866 -0.0041  1.5580 -2.2014
 3447TIP3   OH231755   6.714   1.789   5.706 -0.3174  0.0785 -0.2048
 3447TIP3    H131756   6.777   1.722   5.731 -0.7554 -0.2065  0.1445
 3447TIP3    H231757   6.629   1.750   5.724 -0.5686  0.9079  0.4732
 3448TIP3   OH231758   5.768   6.669   5.239 -0.4326  0.8811 -0.2748
 3448TIP3    H131759   5.688   6.720   5.225 -0.5913  0.6636 -0.1517
 3448TIP3    H231760   5.805   6.705   5.320 -0.0078  1.4987 -0.7335
 3449TIP3   OH231761   0.777   0.130  10.921  0.5224 -0.0496  0.3741
 3449TIP3    H131762   0.873   0.133  10.925  0.6392 -0.6129 -1.4983
 3449TIP3    H231763   0.753   0.212  10.877  0.4279 -1.6891 -2.7684
 3450TIP3   OH231764   6.170   1.067   4.673  0.3385 -0.3876 -0.4677
 3450TIP3    H131765   6.116   1.103   4.603 -0.0917 -1.7540 -0.8566
 3450TIP3    H231766   6.258   1.064   4.636  0.0615 -1.4004 -1.0983
 3451TIP3   OH231767   0.880   1.050  12.406 -0.7031  0.3177 -0.1321
 3451TIP3    H131768   0.848   1.125  12.356 -1.9235  0.5956  1.0461
 3451TIP3    H231769   0.820   0.979  12.383  2.1867 -1.1507 -3.5381
 3452TIP3   OH231770   6.230   4.016   2.956 -0.4103 -0.2503 -0.4736
 3452TIP3    H131771   6.254   4.031   3.047 -0.3646 -1.0673 -0.3521
 3452TIP3    H231772   6.137   4.040   2.951  0.1355  1.8999 -0.7098
 3453TIP3   OH231773   4.907   4.226  14.965  0.0266  0.2460 -0.4814
 3453TIP3    H131774   4.859   4.147  14.992 -0.1606  0.2735 -0.7347
 3453TIP3    H231775   4.848   4.271  14.905 -0.0484  0.8043  0.0002
 3454TIP3   OH231776   2.073   0.675   0.356  0.3980 -0.0883  0.0771
 3454TIP3    H131777   2.134   0.613   0.396 -1.0334 -0.7920  1.1537
 3454TIP3    H231778   2.006   0.621   0.315  1.6010  0.6076 -3.0215
 3455TIP3   OH231779   2.283   1.900  12.720 -0.4550  0.4097  0.2714
 3455TIP3    H131780   2.195   1.863  12.725 -0.6892  0.4860 -2.3031
 3455TIP3    H231781   2.270   1.994  12.728 -0.7753  0.5209 -1.3763
 3456TIP3   OH231782   0.194   1.425   1.887 -0.7365 -0.0655  0.0025
 3456TIP3    H131783   0.235   1.457   1.807  1.4739 -0.9818  0.7063
 3456TIP3    H231784   0.102   1.449   1.879 -0.3428  0.7884 -2.3147
 3457TIP3   OH231785   3.361   4.805   1.250 -0.1999  0.1313 -0.2818
 3457TIP3    H131786   3.442   4.825   1.204  0.5508  0.9752  1.3427
 3457TIP3    H231787   3.331   4.723   1.211 -0.6205  1.7559 -3.5506
 3458TIP3   OH231788   5.103   5.613  13.225 -0.0099  0.3837 -0.3177
 3458TIP3    H131789   5.114   5.588  13.134 -0.3543 -0.5991 -0.1052
 3458TIP3    H231790   5.045   5.545  13.261  0.6458  0.3988  0.7819
 3459TIP3   OH231791   4.699   0.445  12.514 -0.1431 -0.0858  0.0176
 3459TIP3    H131792   4.717   0.506  12.443  1.1730 -0.6128 -0.1170
 3459TIP3    H231793   4.610   0.466  12.542 -0.4580  0.5164 -1.3931
 3460TIP3   OH231794   3.476   0.986  15.818  0.4530 -0.2453 -0.0988
 3460TIP3    H131795   3.512   0.953  15.900 -0.2501  1.3614  0.8654
 3460TIP3    H231796   3.381   0.987  15.832  0.3496  0.3840 -0.7976
 3461TIP3   OH231797   6.466   1.283   1.673  0.2610  0.2384 -0.1952
 3461TIP3    H131798   6.372   1.300   1.665  0.0651 -0.7329 -0.0911
 3461TIP3    H231799   6.508   1.352   1.621 -0.5068  0.6849 -0.2314
 3462TIP3   OH231800   4.589   3.370  11.668 -0.4995  0.3357  0.1050
 3462TIP3    H131801   4.579   3.412  11.754  2.0297 -0.5513  0.8756
 3462TIP3    H231802   4.609   3.443  11.608 -0.1224  0.7124  0.6841
 3463TIP3   OH231803   5.665   6.343  12.634 -0.6827  0.3709  0.0593
 3463TIP3    H131804   5.673   6.357  12.540 -1.5621 -0.0385 -0.0903
 3463TIP3    H231805   5.680   6.429  12.673  0.6764  0.3467 -0.3812
 3464TIP3   OH231806   2.574   1.334   1.198  0.2685  0.0652  0.1151
 3464TIP3    H131807   2.593   1.416   1.244 -0.9443  1.4507 -1.7845
 3464TIP3    H231808   2.655   1.316   1.150 -0.4465  1.8022 -1.8319
 3465TIP3   OH231809   5.303   4.015   4.092 -0.3334  0.0990 -0.5517
 3465TIP3    H131810   5.324   4.016   3.999 -0.4435  0.2980 -0.5726
 3465TIP3    H231811   5.356   4.085   4.130  0.4281 -0.5932 -0.3141
 3466TIP3   OH231812   5.034   0.839  14.347  0.1030  0.1041  0.0456
 3466TIP3    H131813   5.108   0.856  14.405 -0.2858  1.0873  0.2646
 3466TIP3    H231814   5.062   0.871  14.262  0.3247 -0.4844 -0.1008
 3467TIP3   OH231815   3.555   4.229   2.070  0.8545 -0.2449 -0.0226
 3467TIP3    H131816   3.557   4.181   1.987 -0.2293 -0.9437  0.3403
 3467TIP3    H231817   3.646   4.231   2.098  1.4273  1.1597 -1.8744
 3468TIP3   OH231818   3.322   3.382  13.604 -0.3996 -0.2346  0.5844
 3468TIP3    H131819   3.362   3.295  13.609 -1.7039 -0.9712 -1.0479
 3468TIP3    H231820   3.276   3.382  13.520 -2.2740  1.2370  1.5708
 3469TIP3   OH231821   6.034   0.359   1.408 -0.0241  0.1214 -0.2862
 3469TIP3    H131822   6.010   0.308   1.330 -1.6975  1.2908 -0.5628
 3469TIP3    H231823   6.039   0.449   1.376 -0.3027  0.5534  0.8884
 3470TIP3   OH231824   6.098   1.524  16.571  0.3918 -0.4656 -0.1001
 3470TIP3    H131825   6.193   1.527  16.562  0.3503 -2.9515 -1.6760
 3470TIP3    H231826   6.068   1.610  16.542  2.2353  0.9069  1.8982
 3471TIP3   OH231827   6.299   1.164   5.548 -0.2983 -0.2340 -0.4227
 3471TIP3    H131828   6.308   1.078   5.589  1.6389 -0.8898 -2.1530
 3471TIP3    H231829   6.260   1.146   5.463  0.3076  0.5848 -0.8752
 3472TIP3   OH231830   0.247   0.297   0.665 -0.6782  0.7178 -0.0154
 3472TIP3    H131831   0.168   0.301   0.718 -0.6965  2.0483 -0.1403
 3472TIP3    H231832   0.216   0.270   0.579 -0.8455  0.0976  0.2356
 3473TIP3   OH231833   4.135   5.417  12.906  0.3673 -0.2564 -0.0848
 3473TIP3    H131834   4.216   5.375  12.879  0.2520  0.7927 -2.1584
 3473TIP3    H231835   4.151   5.511  12.894 -1.0858 -0.0301 -0.3528
 3474TIP3   OH231836   0.328   1.774   0.668  0.1288 -0.2562  0.2665
 3474TIP3    H131837   0.380   1.753   0.746  1.1275  1.5358  0.1344
 3474TIP3    H231838   0.266   1.840   0.699 -0.0350 -0.1660 -0.2545
 3475TIP3   OH231839   3.632   4.977  13.023 -0.0159 -0.0353 -0.4623
 3475TIP3    H131840   3.616   5.067  12.994 -0.3930  0.1597  0.3394
 3475TIP3    H231841   3.577   4.923  12.967  0.9261  0.1511 -1.5813
 3476TIP3   OH231842   3.114   5.026  11.641 -0.0632  0.0535 -0.3280
 3476TIP3    H131843   3.075   5.064  11.720 -1.4959 -0.4080 -0.8006
 3476TIP3    H231844   3.208   5.039  11.652 -0.3101  0.7251  1.0746
 3477TIP3   OH231845   2.438   2.325   1.715 -0.4261 -0.4179 -0.5945
 3477TIP3    H131846   2.432   2.420   1.721  0.5506 -0.5169  2.8795
 3477TIP3    H231847   2.355   2.293   1.751 -0.4598 -0.9157 -1.0951
 3478TIP3   OH231848   1.026   0.591  16.221 -0.2990 -0.1999  0.7471
 3478TIP3    H131849   1.090   0.644  16.268 -0.3021 -0.7988  1.4277
 3478TIP3    H231850   0.973   0.655  16.173 -0.5914  0.4476  1.9252
 3479TIP3   OH231851   6.541   6.118   0.699 -0.4407 -1.0357 -0.5756
 3479TIP3    H131852   6.584   6.049   0.648 -0.3168 -1.3503 -0.0513
 3479TIP3    H231853   6.598   6.194   0.689  2.4354 -2.4881  3.3092
 3480TIP3   OH231854   6.085   6.448   3.253 -0.8002  0.5888 -0.0985
 3480TIP3    H131855   6.021   6.473   3.187 -0.6158 -0.3911 -0.6723
 3480TIP3    H231856   6.043   6.467   3.337 -2.9232 -2.4278 -0.3750
 3481TIP3   OH231857   2.619   6.388  15.974 -0.3866 -0.0576 -0.1033
 3481TIP3    H131858   2.690   6.403  15.912 -0.4407 -0.8288 -0.3682
 3481TIP3    H231859   2.582   6.304  15.947  0.7538 -1.3172  2.0940
 3482TIP3   OH231860   5.128   5.831   5.184  0.2058  0.3054 -0.1969
 3482TIP3    H131861   5.065   5.834   5.256 -0.1120  0.8781 -0.5009
 3482TIP3    H231862   5.210   5.804   5.225 -0.5899 -2.0104 -0.0480
 3483TIP3   OH231863   3.679   4.523  14.338 -0.7994  0.2103 -0.5103
 3483TIP3    H131864   3.618   4.594  14.321 -0.7725  0.4957  0.5389
 3483TIP3    H231865   3.631   4.443  14.317 -1.5595  0.4285  0.3820
 3484TIP3   OH231866   2.750   3.596   2.152 -0.5060  0.5741 -0.0771
 3484TIP3    H131867   2.775   3.646   2.230 -2.0353  1.3831 -0.0839
 3484TIP3    H231868   2.657   3.577   2.164 -0.1986 -1.3626 -0.5986
 3485TIP3   OH231869   2.181   2.639   2.266  0.0094 -0.1727 -0.7001
 3485TIP3    H131870   2.226   2.614   2.185 -0.1782 -2.8446 -0.0137
 3485TIP3    H231871   2.161   2.732   2.254  1.0110 -0.2369 -3.2260
 3486TIP3   OH231872   0.347   2.374   2.315  0.0040 -0.2935  0.1571
 3486TIP3    H131873   0.298   2.435   2.370 -2.6474 -2.0920 -0.0861
 3486TIP3    H231874   0.306   2.381   2.229 -1.0328 -3.0653  0.3692
 3487TIP3   OH231875   0.212   0.661   4.152  0.0442 -0.5501  0.3780
 3487TIP3    H131876   0.280   0.648   4.217 -1.4468 -0.9703  1.8859
 3487TIP3    H231877   0.188   0.753   4.160  1.5145 -0.0036 -1.2534
 3488TIP3   OH231878   0.233   4.712  16.415  0.2275 -0.4903 -0.1868
 3488TIP3    H131879   0.265   4.631  16.374  2.6026  0.3396 -0.0380
 3488TIP3    H231880   0.168   4.746  16.354  0.3643 -1.6831 -1.0106
 3489TIP3   OH231881   5.016   1.703   0.741 -0.8744 -0.3831 -0.4956
 3489TIP3    H131882   5.092   1.690   0.685 -0.1890 -0.7192  0.4972
 3489TIP3    H231883   5.053   1.730   0.825 -1.8146 -1.3991  0.2487
 3490TIP3   OH231884   5.877   0.806   1.852  0.0485 -0.4944  0.1474
 3490TIP3    H131885   5.885   0.711   1.842  1.8830 -0.3677  0.2427
 3490TIP3    H231886   5.931   0.827   1.928 -0.9986  0.5344  0.6248
 3491TIP3   OH231887   3.458   2.996  15.862 -0.8212 -0.1472  0.5363
 3491TIP3    H131888   3.497   2.945  15.933 -0.3480 -0.8257 -0.1969
 3491TIP3    H231889   3.409   2.932  15.810  0.8941 -0.1397 -1.1691
 3492TIP3   OH231890   3.257   1.517   0.818 -0.2998 -0.1224 -0.3036
 3492TIP3    H131891   3.310   1.439   0.806 -1.3948 -1.3761  2.6274
 3492TIP3    H231892   3.167   1.486   0.817 -0.6947  0.7582  2.7406
 3493TIP3   OH231893   3.152   1.452   4.851  0.5717 -0.0852 -0.2154
 3493TIP3    H131894   3.147   1.495   4.765  0.9682  1.1336  0.3570
 3493TIP3    H231895   3.232   1.400   4.847 -0.5313 -1.7388 -1.3373
 3494TIP3   OH231896   1.010   0.223  11.622  0.2363 -0.3440  0.0831
 3494TIP3    H131897   0.976   0.134  11.623 -0.1630 -0.2010 -0.4481
 3494TIP3    H231898   0.957   0.268  11.556  1.1350  0.0145 -0.3927
 3495TIP3   OH231899   3.756   6.050   6.279 -0.1061 -0.6669  0.1106
 3495TIP3    H131900   3.687   6.006   6.228 -0.7014 -2.3633  2.2919
 3495TIP3    H231901   3.828   6.059   6.217 -1.5089 -0.8038 -1.6216
 3496TIP3   OH231902   0.943   4.140  12.382 -0.1265 -0.0279  0.3365
 3496TIP3    H131903   0.971   4.095  12.461 -1.8892  0.0764  1.0249
 3496TIP3    H231904   0.874   4.085  12.345  0.1019  0.3449 -0.6894
 3497TIP3   OH231905   3.327   0.485   2.694  0.2713  0.0457  0.1409
 3497TIP3    H131906   3.254   0.504   2.635 -0.6063  0.4411  1.3367
 3497TIP3    H231907   3.306   0.398   2.730 -0.1391  0.6035  1.2613
 3498TIP3   OH231908   3.896   1.362   3.245 -0.2800 -0.0312  1.1285
 3498TIP3    H131909   3.802   1.352   3.253 -0.4134  0.6988  0.6180
 3498TIP3    H231910   3.924   1.289   3.190 -0.8797  1.0100 -0.5976
 3499TIP3   OH231911   2.901   5.830  13.363 -0.4857 -0.7595 -0.1612
 3499TIP3    H131912   2.818   5.812  13.319 -0.1918  0.8202 -1.4616
 3499TIP3    H231913   2.967   5.817  13.295  0.0639  0.8220  0.0273
 3500TIP3   OH231914   3.390   6.481  10.733  0.5165 -0.0218  0.0701
 3500TIP3    H131915   3.469   6.526  10.763  1.5475 -1.5441 -0.2694
 3500TIP3    H231916   3.320   6.545  10.743  1.9436  1.6591 -0.4715
 3501TIP3   OH231917   6.102   1.436   5.005  0.4445 -0.2896 -0.3506
 3501TIP3    H131918   6.030   1.494   4.983  1.2901  0.5965 -0.8134
 3501TIP3    H231919   6.076   1.350   4.970 -0.7483 -0.1744  0.2336
 3502TIP3   OH231920   3.873   3.570   2.460  0.1447  0.0748  0.7109
 3502TIP3    H131921   3.832   3.608   2.538  1.4181  0.0686  1.3934
 3502TIP3    H231922   3.849   3.631   2.389  0.7933  1.2618  1.4964
 3503TIP3   OH231923   5.049   3.513  11.618  0.2736 -0.4216  0.1603
 3503TIP3    H131924   5.006   3.477  11.541  0.5998  0.8515 -0.6293
 3503TIP3    H231925   5.132   3.465  11.624  0.4288 -0.2314 -0.5108
 3504TIP3   OH231926   2.267   6.285  12.468 -0.1030  0.3372  0.1336
 3504TIP3    H131927   2.307   6.344  12.405 -1.6669  1.0949 -0.1684
 3504TIP3    H231928   2.241   6.208  12.416 -0.6651  0.6153  0.0041
 3505TIP3   OH231929   2.499   6.773  13.348  0.7013  0.1644  0.0061
 3505TIP3    H131930   2.556   6.756  13.423 -0.7025 -0.7547  0.8935
 3505TIP3    H231931   2.461   6.688  13.328 -0.6174  0.8292 -0.3457
 3506TIP3   OH231932   5.087   0.817   5.345 -0.0258 -0.1950  0.0869
 3506TIP3    H131933   5.042   0.785   5.266  0.7630 -0.9975 -0.0414
 3506TIP3    H231934   5.079   0.912   5.339 -2.2259 -0.3435  0.3776
 3507TIP3   OH231935   4.268   4.969   0.024  0.3098  0.1089  0.0816
 3507TIP3    H131936   4.180   4.935   0.041  1.4145 -1.2538  3.4050
 3507TIP3    H231937   4.311   4.899  -0.026  0.2998 -0.3235  0.6743
 3508TIP3   OH231938   2.572   3.291  11.651 -0.1200 -0.5836 -0.6336
 3508TIP3    H131939   2.645   3.353  11.644 -1.8686  1.8014  1.4745
 3508TIP3    H231940   2.565   3.252  11.563  2.7733  0.1374 -1.2400
 3509TIP3   OH231941   5.008   6.208   0.885 -0.0061  0.0382  0.0340
 3509TIP3    H131942   4.937   6.263   0.917 -0.7088 -0.8894  0.0820
 3509TIP3    H231943   4.966   6.126   0.859  0.9204 -0.1979 -0.7657
 3510TIP3   OH231944   6.392   4.824  17.120 -0.4329 -0.6639 -0.3462
 3510TIP3    H131945   6.362   4.898  17.173 -0.6338 -2.1282  1.6750
 3510TIP3    H231946   6.479   4.803  17.155  1.3432  1.0421 -3.5110
 3511TIP3   OH231947   1.210   2.647  12.933 -0.2327  0.2722 -0.2856
 3511TIP3    H131948   1.143   2.716  12.940  0.0129  0.4492  0.3230
 3511TIP3    H231949   1.223   2.637  12.839  0.6612  1.9792 -0.3755
 3512TIP3   OH231950   2.319   2.786   5.658 -0.3911  0.0972 -0.1248
 3512TIP3    H131951   2.316   2.694   5.629  1.0506 -0.1566  0.5103
 3512TIP3    H231952   2.286   2.784   5.748 -0.2251  0.1790 -0.0624
 3513TIP3   OH231953   5.225   3.097   5.223 -0.5157  0.2701  0.1755
 3513TIP3    H131954   5.286   3.086   5.296 -0.8155  1.9488  0.7029
 3513TIP3    H231955   5.142   3.119   5.266 -1.7098 -2.6911 -0.4859
 3514TIP3   OH231956   3.907   0.177   2.062  0.3612 -0.0675  0.4151
 3514TIP3    H131957   3.968   0.245   2.091  1.1865  0.0848 -1.6375
 3514TIP3    H231958   3.897   0.191   1.968 -0.8033 -1.7283  0.2591
 3515TIP3   OH231959   1.433   5.591   1.054  0.4336  0.1185  0.0877
 3515TIP3    H131960   1.392   5.608   0.969 -0.4053 -0.6887  0.3219
 3515TIP3    H231961   1.518   5.554   1.034  0.0988 -0.3824 -0.3960
 3516TIP3   OH231962   5.335   5.823  14.252 -0.0903  0.4293 -0.4107
 3516TIP3    H131963   5.427   5.826  14.278  0.1198  1.2024 -1.2196
 3516TIP3    H231964   5.323   5.735  14.215  0.6107  0.7279 -1.3505
 3517TIP3   OH231965   0.074   4.681  16.802  0.6318  0.3172  0.2416
 3517TIP3    H131966  -0.009   4.662  16.758  0.3843 -0.8087  1.1786
 3517TIP3    H231967   0.096   4.599  16.847  0.8495  1.4785  2.2687
 3518TIP3   OH231968   0.231   5.316  15.711  0.2481 -0.1332  0.0949
 3518TIP3    H131969   0.244   5.310  15.806  0.3122 -0.5417  0.0607
 3518TIP3    H231970   0.274   5.238  15.676 -1.5035 -1.0210 -0.1003
 3519TIP3   OH231971   3.418   2.106   1.357  0.6804  0.3222  0.4176
 3519TIP3    H131972   3.323   2.099   1.356  0.7025 -0.8004  2.3618
 3519TIP3    H231973   3.443   2.078   1.445  2.8117  0.5725 -0.0710
 3520TIP3   OH231974   5.045   4.117  11.252  0.6547 -0.2984 -0.3793
 3520TIP3    H131975   5.132   4.080  11.266  0.2396 -1.2886 -0.3801
 3520TIP3    H231976   5.061   4.200  11.209  1.8473  1.5014  3.3285
 3521TIP3   OH231977   5.057   3.669   3.088 -0.5892  0.5580 -0.0627
 3521TIP3    H131978   5.122   3.673   3.018  0.7749  1.6833  1.2180
 3521TIP3    H231979   5.021   3.581   3.083  1.6547 -0.3877 -0.2664
 3522TIP3   OH231980   6.535   3.568   1.744  0.2655  0.1667  0.3925
 3522TIP3    H131981   6.532   3.490   1.800 -0.5731  0.0243  0.1629
 3522TIP3    H231982   6.599   3.546   1.676  1.4023  0.4038  1.3819
 3523TIP3   OH231983   0.284   4.114  17.237 -0.5527  0.1216  0.3519
 3523TIP3    H131984   0.253   4.051  17.172  1.0147  0.1290 -0.4311
 3523TIP3    H231985   0.335   4.062  17.299  1.1459  0.6768 -0.5609
 3524TIP3   OH231986   2.155   1.428   0.027 -0.1222 -0.4019  0.2539
 3524TIP3    H131987   2.155   1.449  -0.066  1.9717 -0.2129  0.2791
 3524TIP3    H231988   2.201   1.344   0.032 -1.1241 -0.9211  1.0349
 3525TIP3   OH231989   4.641   4.175  12.130 -0.3053  0.3195 -0.2876
 3525TIP3    H131990   4.685   4.249  12.171  0.5372 -0.4226  0.1827
 3525TIP3    H231991   4.663   4.181  12.038  2.9180 -1.4513  0.3033
 3526TIP3   OH231992   0.793   4.022   1.256  0.2794  0.1028  0.2666
 3526TIP3    H131993   0.852   4.077   1.307  1.2001  0.9176 -1.6184
 3526TIP3    H231994   0.781   3.944   1.309 -1.3677  2.2498  3.1817
 3527TIP3   OH231995   1.681   6.217  15.572  0.0011  0.5933 -0.1821
 3527TIP3    H131996   1.772   6.237  15.591  0.0010  0.0578  0.3668
 3527TIP3    H231997   1.660   6.141  15.626 -0.5788  0.3043 -0.8001
 3528TIP3   OH231998   3.365   5.735  16.066 -0.5254 -0.2604 -0.2017
 3528TIP3    H131999   3.435   5.709  16.006  1.1188  1.1463  1.0557
 3528TIP3    H232000   3.338   5.821  16.035  0.4804  0.5688  1.1806
 3529TIP3   OH232001   4.267   4.050   2.558  0.6582 -0.5478 -0.0167
 3529TIP3    H132002   4.175   4.041   2.581  0.9248 -1.0765  0.8454
 3529TIP3    H232003   4.274   4.008   2.472  0.0479 -0.2422 -0.2235
 3530TIP3   OH232004   2.266   5.605   5.621  0.5446 -0.1362 -0.0562
 3530TIP3    H132005   2.206   5.647   5.682  1.2817  0.2243  0.4198
 3530TIP3    H232006   2.260   5.658   5.541 -0.5081 -0.6796 -0.3564
 3531TIP3   OH232007   4.328   2.155  11.229  0.0247 -0.0688  0.4029
 3531TIP3    H132008   4.408   2.199  11.258  0.5668 -0.0446 -1.0735
 3531TIP3    H232009   4.306   2.096  11.301  1.9692 -0.8471  0.4053
 3532TIP3   OH232010   1.470   5.814  16.543 -0.0683 -0.3196 -0.0714
 3532TIP3    H132011   1.387   5.850  16.513 -0.2983 -0.5688  0.2761
 3532TIP3    H232012   1.519   5.890  16.575 -0.0658 -0.1399 -0.4935
 3533TIP3   OH232013   6.666   2.573   2.674  0.1924 -0.3920  0.7523
 3533TIP3    H132014   6.712   2.510   2.618 -3.0183 -2.4970  0.3384
 3533TIP3    H232015   6.645   2.646   2.616  2.5590  0.3901  0.8439
 3534TIP3   OH232016   5.152   3.841   3.265 -0.0817  0.0615  0.5809
 3534TIP3    H132017   5.246   3.829   3.255 -0.0998 -0.0148  0.4994
 3534TIP3    H232018   5.113   3.761   3.228 -0.2299  0.8113 -0.9176
 3535TIP3   OH232019   0.772   2.592  14.058 -0.1545 -0.1462  0.1705
 3535TIP3    H132020   0.727   2.669  14.094  0.6020  0.1445  0.4994
 3535TIP3    H232021   0.785   2.613  13.965  1.2215  0.6724  0.5498
 3536TIP3   OH232022   5.382   0.304   3.096 -0.3087  0.4309  0.7297
 3536TIP3    H132023   5.296   0.344   3.083 -0.2433  1.0259  1.9996
 3536TIP3    H232024   5.444   0.375   3.082 -0.0925  0.3151  1.0898
 3537TIP3   OH232025   1.725   1.627  17.137 -0.2486  0.1532  0.8329
 3537TIP3    H132026   1.666   1.695  17.104 -1.4836 -1.4972 -0.4391
 3537TIP3    H232027   1.673   1.582  17.204 -0.6108 -1.5608 -0.5664
 3538TIP3   OH232028   3.560   0.421  13.945 -0.1682  0.3251 -0.4029
 3538TIP3    H132029   3.586   0.501  13.992  1.1619 -0.2058 -0.1917
 3538TIP3    H232030   3.550   0.355  14.014  1.3736 -0.3520 -0.7928
 3539TIP3   OH232031   0.790   6.068   0.944 -0.2525 -0.2352 -0.1421
 3539TIP3    H132032   0.758   6.111   0.865 -1.2618  1.8049  1.3148
 3539TIP3    H232033   0.885   6.077   0.941 -0.1741 -1.4591 -1.8116
 3540TIP3   OH232034   1.908   6.413   4.208  0.1372 -0.4337  0.2395
 3540TIP3    H132035   1.911   6.455   4.122 -0.3391 -2.3397 -0.7549
 3540TIP3    H232036   1.904   6.485   4.271  2.5662  1.0309 -1.2304
 3541TIP3   OH232037   2.400   1.344  14.710  0.4136 -0.2509 -0.2665
 3541TIP3    H132038   2.348   1.417  14.675  2.3604  1.0242 -0.6080
 3541TIP3    H232039   2.443   1.306  14.634  0.9803 -0.4686  0.1547
 3542TIP3   OH232040   3.014   1.041  16.267 -0.1926  0.1964  0.2015
 3542TIP3    H132041   3.048   1.116  16.218  1.2603  1.3016  2.7955
 3542TIP3    H232042   2.927   1.069  16.296 -0.1015  0.4630  0.2201
 3543TIP3   OH232043   3.012   5.955   2.989 -0.4326 -0.5687  0.1099
 3543TIP3    H132044   3.061   5.902   3.053  0.8197  1.9518  1.2901
 3543TIP3    H232045   3.064   6.034   2.979 -4.0774  2.0885  1.1538
 3544TIP3   OH232046   5.117   4.377  11.548 -0.1814 -0.1994  0.1500
 3544TIP3    H132047   5.135   4.389  11.455 -0.6907  3.5559  0.4612
 3544TIP3    H232048   5.023   4.364  11.553 -0.0307 -1.3600  0.0747
 3545TIP3   OH232049   0.277   4.881  15.438 -0.0644  0.4295  0.0025
 3545TIP3    H132050   0.361   4.922  15.417  0.8679 -1.8582 -0.8062
 3545TIP3    H232051   0.233   4.945  15.494  2.6663  1.1781  1.3692
 3546TIP3   OH232052   6.602   2.020   4.301  0.0136 -0.3921  0.2061
 3546TIP3    H132053   6.548   2.057   4.231  0.3616  0.4202  0.3578
 3546TIP3    H232054   6.571   2.062   4.381  0.4825 -0.3520  0.3703
 3547TIP3   OH232055   5.916   5.040  14.790  0.4550  0.0565 -0.0408
 3547TIP3    H132056   5.886   5.098  14.860 -0.3544 -0.7961  0.3319
 3547TIP3    H232057   5.975   4.979  14.834  0.3982 -0.1175 -0.2064
 3548TIP3   OH232058   0.884   5.884  12.041 -0.5988 -0.0716  0.6587
 3548TIP3    H132059   0.944   5.958  12.030 -1.0586 -0.0222 -1.6671
 3548TIP3    H232060   0.847   5.869  11.954 -1.0355 -2.6034  1.2329
 3549TIP3   OH232061   1.965   0.076   5.807  0.0148 -0.3886  0.0709
 3549TIP3    H132062   1.983   0.169   5.814 -1.7705  0.2072 -2.2704
 3549TIP3    H232063   1.892   0.060   5.867 -2.7649  0.7552 -2.8418
 3550TIP3   OH232064   0.966   3.553  14.560  0.2543 -0.1054  0.2323
 3550TIP3    H132065   0.886   3.504  14.579 -0.4665  1.6663  1.9127
 3550TIP3    H232066   0.942   3.611  14.487 -0.5183  1.5750  1.7746
 3551TIP3   OH232067   5.315   3.461   0.777 -0.3871 -0.0782 -0.1678
 3551TIP3    H132068   5.247   3.449   0.710 -0.7502  0.2883  0.1318
 3551TIP3    H232069   5.397   3.451   0.729 -0.6433  0.3306 -0.7031
 3552TIP3   OH232070   4.193   0.982   5.171 -0.3995  0.5844  0.1640
 3552TIP3    H132071   4.259   1.016   5.110 -0.4340 -0.9151 -0.7240
 3552TIP3    H232072   4.226   1.008   5.257  1.0481  0.3993 -0.3081
 3553TIP3   OH232073   3.443   0.875   3.632  0.2020 -0.3913  0.2066
 3553TIP3    H132074   3.358   0.919   3.637  0.5434  0.2293  0.6533
 3553TIP3    H232075   3.430   0.792   3.679 -0.5854 -1.0106 -1.0740
 3554TIP3   OH232076   0.376   3.923   1.612  0.1216 -0.2314  0.0539
 3554TIP3    H132077   0.423   3.843   1.590  0.9324  0.7675 -2.0367
 3554TIP3    H232078   0.433   3.994   1.581 -1.3119  1.0986  0.3709
 3555TIP3   OH232079   5.494   6.374   4.123 -0.1653 -0.4341 -0.1854
 3555TIP3    H132080   5.516   6.467   4.112 -0.7337 -0.4612 -1.6259
 3555TIP3    H232081   5.561   6.340   4.182  0.8509  0.5820 -0.7503
 3556TIP3   OH232082   0.838   2.912   4.645  0.1486  0.3909  0.5265
 3556TIP3    H132083   0.856   2.819   4.632  1.4003  0.7424 -0.3574
 3556TIP3    H232084   0.835   2.948   4.556 -4.0848  0.5491  0.6453
 3557TIP3   OH232085   2.856   4.961  13.444  0.5080 -0.0177 -0.6479
 3557TIP3    H132086   2.884   4.934  13.356  0.6511  1.0472 -0.9299
 3557TIP3    H232087   2.792   5.030  13.429 -0.9456 -1.1979  0.0548
 3558TIP3   OH232088   0.789   1.256   2.911 -0.2717  0.9911 -0.1529
 3558TIP3    H132089   0.701   1.247   2.949  0.4081  0.8939  1.4412
 3558TIP3    H232090   0.787   1.199   2.834 -2.4792  3.1160 -1.7860
 3559TIP3   OH232091   6.545   0.150   5.592 -0.6274  0.9073 -0.4521
 3559TIP3    H132092   6.483   0.189   5.531 -2.5742 -0.4736  0.5967
 3559TIP3    H232093   6.552   0.058   5.564  1.1759  1.1074 -0.7284
 3560TIP3   OH232094   2.201   1.355   5.266 -0.9326  0.1163 -0.5069
 3560TIP3    H132095   2.280   1.391   5.305 -0.5625 -2.0969  0.8897
 3560TIP3    H232096   2.134   1.421   5.281  0.0807  0.9088  0.5549
 3561TIP3   OH232097   3.191   3.284  10.511 -0.4834  0.4091  0.4324
 3561TIP3    H132098   3.128   3.237  10.458 -0.9683  1.6902 -0.1327
 3561TIP3    H232099   3.209   3.225  10.585  0.3278 -1.4493 -1.2140
 3562TIP3   OH232100   4.828   5.141  15.470  0.6428  0.0416 -0.1257
 3562TIP3    H132101   4.874   5.103  15.544  0.2098 -0.2634 -0.0119
 3562TIP3    H232102   4.760   5.196  15.509 -1.2673 -2.1328 -0.2651
 3563TIP3   OH232103   3.716   4.702   2.376  0.0210 -0.6243 -0.2357
 3563TIP3    H132104   3.750   4.791   2.372  1.2106 -1.1374 -2.3954
 3563TIP3    H232105   3.651   4.704   2.446  0.4877  1.7747  0.1654
 3564TIP3   OH232106   5.691   4.105  16.475  0.1344  0.4986 -0.5920
 3564TIP3    H132107   5.634   4.029  16.461 -0.6865  0.8334  0.8076
 3564TIP3    H232108   5.641   4.178  16.439  0.6569  0.4743 -1.3800
 3565TIP3   OH232109   0.071   4.604  12.638 -0.3223  0.1023 -0.0754
 3565TIP3    H132110   0.058   4.547  12.562  1.2429  1.9807 -1.8390
 3565TIP3    H232111   0.158   4.582  12.670 -1.7581 -2.1007  2.5017
 3566TIP3   OH232112   2.285   4.621   5.142  0.0549 -0.4971 -0.0754
 3566TIP3    H132113   2.323   4.583   5.221 -0.1200  0.1384  0.3150
 3566TIP3    H232114   2.214   4.676   5.173  1.4010  1.5420 -0.4850
 3567TIP3   OH232115   5.826   0.619   2.793 -0.0864 -0.5679 -0.5040
 3567TIP3    H132116   5.907   0.670   2.799 -0.3983 -0.0184 -0.8643
 3567TIP3    H232117   5.769   0.659   2.859  0.2057 -1.4663  0.3078
 3568TIP3   OH232118   2.951   0.489  12.105  0.2025 -0.0395  0.5071
 3568TIP3    H132119   2.989   0.470  12.191  1.1630  0.8801  0.2924
 3568TIP3    H232120   2.926   0.581  12.110  0.0910 -0.0358 -0.1349
 3569TIP3   OH232121   0.778   5.234  15.058 -0.1958  0.3508 -0.2001
 3569TIP3    H132122   0.735   5.215  15.141 -0.2346  1.9254  0.1640
 3569TIP3    H232123   0.773   5.329  15.050  0.2829  0.2588 -1.7541
 3570TIP3   OH232124   4.629   6.202   2.261  0.1070 -0.3260 -0.1463
 3570TIP3    H132125   4.567   6.196   2.333  0.4289  0.9924  0.2605
 3570TIP3    H232126   4.649   6.296   2.254  0.9952 -0.5762 -1.1605
 3571TIP3   OH232127   1.819   4.121   5.082  0.1409 -0.4579  0.0448
 3571TIP3    H132128   1.773   4.205   5.076 -1.3284 -1.3606 -1.7842
 3571TIP3    H232129   1.784   4.070   5.009  1.2917 -2.5276  0.9233
 3572TIP3   OH232130   4.896   0.480   5.861  0.2236 -0.2070 -0.3828
 3572TIP3    H132131   4.933   0.552   5.912 -0.0003  0.0404 -0.5666
 3572TIP3    H232132   4.821   0.450   5.912 -1.2322  1.3710 -1.5254
 3573TIP3   OH232133   5.772   3.161  12.853 -0.2551  0.2573  0.0082
 3573TIP3    H132134   5.810   3.079  12.822  0.5032  0.3010  0.7846
 3573TIP3    H232135   5.680   3.142  12.867  0.0300 -0.6320  0.7372
 3574TIP3   OH232136   6.450   5.476  14.006 -0.0912  0.1845  0.4170
 3574TIP3    H132137   6.421   5.472  14.097 -1.9027  0.6762 -0.1204
 3574TIP3    H232138   6.470   5.385  13.983  1.1063  0.1472  1.5038
 3575TIP3   OH232139   3.478   4.977   4.876 -0.0629 -0.3425 -0.3089
 3575TIP3    H132140   3.493   4.883   4.880 -0.4374 -0.4205 -0.6701
 3575TIP3    H232141   3.393   4.990   4.917 -0.6171 -0.3211 -1.4335
 3576TIP3   OH232142   3.637   4.470   6.786  0.3496  0.4300  0.8751
 3576TIP3    H132143   3.592   4.415   6.722 -0.7062  1.8479  0.3803
 3576TIP3    H232144   3.708   4.414   6.819 -1.9366 -1.9644  1.9414
 3577TIP3   OH232145   5.675   4.296   5.035 -0.1515 -0.0439 -0.1405
 3577TIP3    H132146   5.622   4.343   4.971  1.3099  0.0586 -1.3062
 3577TIP3    H232147   5.727   4.364   5.078  0.6662 -0.3782 -0.5852
 3578TIP3   OH232148   4.422   3.365   4.981  0.6049  0.0591  0.3455
 3578TIP3    H132149   4.511   3.341   5.007  0.5935 -0.9692 -0.5230
 3578TIP3    H232150   4.365   3.319   5.042  0.6807  1.5347  1.5506
 3579TIP3   OH232151   3.889   5.526   5.194 -0.4627 -0.2997  0.0820
 3579TIP3    H132152   3.867   5.609   5.153 -0.3799  0.7213  2.0307
 3579TIP3    H232153   3.977   5.538   5.228 -0.8014 -0.8598  1.1899
 3580TIP3   OH232154   2.287   6.479   5.749  0.0983  0.0569  0.5803
 3580TIP3    H132155   2.193   6.465   5.755 -0.0218  0.1255 -0.9099
 3580TIP3    H232156   2.326   6.400   5.785 -0.5309 -0.1813  0.7400
 3581TIP3   OH232157   4.581   5.758   4.214  0.2818  0.2042 -0.3934
 3581TIP3    H132158   4.595   5.811   4.292 -0.5704 -2.1771  1.4557
 3581TIP3    H232159   4.577   5.821   4.142 -0.8807  2.6246  1.7109
 3582TIP3   OH232160   2.211   5.433   5.298  0.1070  0.4049 -0.5669
 3582TIP3    H132161   2.260   5.394   5.371 -1.5225 -0.8423 -0.1144
 3582TIP3    H232162   2.267   5.504   5.267  2.3098 -1.1160 -0.2044
 3583TIP3   OH232163   6.104   1.759  11.627  0.0054 -0.4427 -0.4885
 3583TIP3    H132164   6.070   1.671  11.641  1.8709 -1.1512 -0.2947
 3583TIP3    H232165   6.198   1.752  11.646  0.4234  1.2699 -1.8178
 3584TIP3   OH232166   3.922   6.617  11.665 -0.0477  0.2135 -0.1617
 3584TIP3    H132167   3.940   6.707  11.638  1.2267 -0.2739 -0.9792
 3584TIP3    H232168   3.883   6.576  11.588  0.0472 -0.1315 -0.0302
 3585TIP3   OH232169   6.269   1.392  14.916 -0.1175  0.7911 -0.1307
 3585TIP3    H132170   6.182   1.360  14.896 -0.2966  0.5450  1.0116
 3585TIP3    H232171   6.255   1.481  14.949 -0.0306  0.4367  0.8891
 3586TIP3   OH232172   5.483   2.478  14.645  0.1784 -0.1313  0.2142
 3586TIP3    H132173   5.507   2.419  14.716  1.2027  0.7714  0.6411
 3586TIP3    H232174   5.532   2.446  14.569  0.5074  0.0005  0.3715
 3587TIP3   OH232175   1.844   6.020   1.114 -0.4376  0.1044  0.1625
 3587TIP3    H132176   1.878   5.979   1.194 -1.1856  1.4010  1.1558
 3587TIP3    H232177   1.853   5.952   1.048  0.8072 -0.7777  1.1902
 3588TIP3   OH232178   4.009   5.026  16.614  0.3456  0.2928  0.5816
 3588TIP3    H132179   4.024   4.979  16.696  0.6998 -1.8265 -0.6459
 3588TIP3    H232180   3.995   4.957  16.549 -1.8642  1.9565 -0.7908
 3589TIP3   OH232181   5.658   1.974   5.439  0.6150 -0.5026  0.0178
 3589TIP3    H132182   5.646   1.900   5.499  3.1876  0.1969  1.4697
 3589TIP3    H232183   5.593   2.039   5.468 -1.7468 -2.1621 -1.3528
 3590TIP3   OH232184   0.138   5.754   6.393 -0.2266  0.6107 -0.0836
 3590TIP3    H132185   0.182   5.776   6.475  1.8453  1.0460 -1.2633
 3590TIP3    H232186   0.208   5.720   6.337 -1.8927 -1.2165 -1.1183
 3591TIP3   OH232187   5.043   2.154   3.024  0.7000  0.2557  0.0481
 3591TIP3    H132188   4.954   2.175   3.052  0.0311 -0.6643 -1.3541
 3591TIP3    H232189   5.098   2.217   3.070 -0.7201  1.1502  0.5400
 3592TIP3   OH232190   2.529   1.204   4.275 -0.3532  0.3657 -0.2817
 3592TIP3    H132191   2.614   1.240   4.301  0.5359  1.0069 -3.8278
 3592TIP3    H232192   2.465   1.268   4.307  0.5810  0.6199  1.1090
 3593TIP3   OH232193   6.175   2.108  16.656 -0.0925  0.2206  0.2498
 3593TIP3    H132194   6.206   2.029  16.702  2.4367  0.8561 -0.2801
 3593TIP3    H232195   6.150   2.168  16.726 -3.7172 -1.6047  0.6609
 3594TIP3   OH232196   4.530   1.458   1.611 -0.2161  0.0790  0.2529
 3594TIP3    H132197   4.583   1.504   1.547 -1.0214 -0.4568 -0.8161
 3594TIP3    H232198   4.532   1.367   1.584 -1.0929 -0.0575  0.6032
 3595TIP3   OH232199   6.082   4.912  11.871  0.2006  0.4798 -0.2663
 3595TIP3    H132200   5.994   4.928  11.837 -0.7161 -1.3168  1.1405
 3595TIP3    H232201   6.129   4.872  11.799 -0.4323  0.5495 -0.7214
 3596TIP3   OH232202   5.472   6.630   2.545 -0.2988 -0.1879 -0.0952
 3596TIP3    H132203   5.527   6.568   2.497  1.1153 -0.7121  2.1226
 3596TIP3    H232204   5.464   6.706   2.488  1.1936 -0.8599 -1.2068
 3597TIP3   OH232205   5.779   0.362   3.989  0.5851  0.3844  0.1236
 3597TIP3    H132206   5.794   0.273   3.957 -1.6480 -0.0808  0.3021
 3597TIP3    H232207   5.826   0.366   4.072 -0.9797 -1.3181  1.1211
 3598TIP3   OH232208   4.275   3.839  11.855 -0.4612 -0.1761 -0.5436
 3598TIP3    H132209   4.211   3.873  11.792 -0.2074  1.5248  0.0659
 3598TIP3    H232210   4.285   3.910  11.919  1.3583 -0.7749 -0.1317
 3599TIP3   OH232211   2.565   5.398   5.165  0.3417  0.5303 -0.0709
 3599TIP3    H132212   2.605   5.353   5.240  0.1742  2.8149  1.4612
 3599TIP3    H232213   2.638   5.414   5.105  0.4624 -1.4047 -0.4584
 3600TIP3   OH232214   6.680   5.004  15.077 -0.2047 -0.2790  0.5879
 3600TIP3    H132215   6.768   4.978  15.104  0.0775  1.7287  1.6851
 3600TIP3    H232216   6.621   4.945  15.125  0.4530  0.3216  2.1530
 3601TIP3   OH232217   0.683   2.391   0.378  0.6259 -0.6468 -0.1222
 3601TIP3    H132218   0.616   2.418   0.314 -1.5324 -0.8397  1.9702
 3601TIP3    H232219   0.752   2.457   0.370 -3.0434  3.8704  2.5918
 3602TIP3   OH232220   3.546   0.194  13.722  0.5574 -0.3027  0.7998
 3602TIP3    H132221   3.638   0.197  13.695  0.4690  0.5502  0.5880
 3602TIP3    H232222   3.541   0.118  13.780  1.8581  0.8453  2.4871
 3603TIP3   OH232223   3.138   4.930   1.987  0.3778  0.2164  0.0229
 3603TIP3    H132224   3.057   4.919   1.937  1.4615 -1.5884 -1.4106
 3603TIP3    H232225   3.115   4.902   2.076 -0.4958 -0.6435 -0.4563
 3604TIP3   OH232226   1.027   0.635  15.618  0.0417  0.0550 -0.3429
 3604TIP3    H132227   0.937   0.664  15.601 -0.2805 -1.1420 -0.7936
 3604TIP3    H232228   1.069   0.708  15.662 -1.7389 -0.1010  1.6763
 3605TIP3   OH232229   6.297   6.230  15.056  0.2467 -0.0749 -0.3346
 3605TIP3    H132230   6.213   6.268  15.031  0.1126 -0.1025  0.0679
 3605TIP3    H232231   6.275   6.169  15.127  0.6856  0.3832  0.1934
 3606TIP3   OH232232   0.802   6.672   3.333 -0.2902 -0.5016 -0.6687
 3606TIP3    H132233   0.800   6.603   3.399  1.0633 -1.1622 -1.2947
 3606TIP3    H232234   0.802   6.753   3.383  1.2206 -0.9995  0.1610
 3607TIP3   OH232235   1.896   3.128   5.636 -0.0605 -0.1683 -0.4021
 3607TIP3    H132236   1.890   3.051   5.692  0.4410 -0.4107 -0.6736
 3607TIP3    H232237   1.987   3.156   5.643 -0.0417 -0.0852 -0.9448
 3608TIP3   OH232238   2.298   3.931   1.421  0.4254 -0.0003  0.6083
 3608TIP3    H132239   2.275   4.024   1.423  0.1615 -0.0544  0.1081
 3608TIP3    H232240   2.257   3.898   1.341  1.3424 -0.3335  0.2728
 3609TIP3   OH232241   6.222   3.542   0.708  0.3533 -0.1425 -0.0251
 3609TIP3    H132242   6.259   3.526   0.795  0.5400 -1.3942 -0.3240
 3609TIP3    H232243   6.190   3.456   0.680 -0.7559  0.4846 -0.7062
 3610TIP3   OH232244   4.033   3.748   3.905 -0.2678  0.3974 -0.1308
 3610TIP3    H132245   4.109   3.740   3.847  2.1126  2.3461  2.5648
 3610TIP3    H232246   3.992   3.831   3.878  0.3140  0.8476  0.3506
 3611TIP3   OH232247   4.662   1.393  11.588  0.0933 -0.2131 -0.0117
 3611TIP3    H132248   4.725   1.366  11.655 -1.6042  0.0088  1.6921
 3611TIP3    H232249   4.610   1.315  11.571 -1.5387  0.5836  1.2515
 3612TIP3   OH232250   3.902   0.976  13.402  0.3569 -0.2632  0.1267
 3612TIP3    H132251   3.989   0.972  13.362  1.5233 -0.7762  2.6455
 3612TIP3    H232252   3.902   0.905  13.466 -1.5275  0.4482  0.9470
 3613TIP3   OH232253   5.595   2.027  13.551 -0.1653  0.1228 -0.0867
 3613TIP3    H132254   5.586   2.110  13.599  1.4176  0.8787 -1.0868
 3613TIP3    H232255   5.610   1.962  13.620 -0.7001  0.7623  0.6534
 3614TIP3   OH232256   1.638   4.659  11.384  0.5374  0.1155 -0.2891
 3614TIP3    H132257   1.721   4.613  11.402  0.2304 -0.4607 -0.3325
 3614TIP3    H232258   1.659   4.718  11.311  0.4411 -1.4159 -1.5926
 3615TIP3   OH232259   4.730   2.538  12.574 -0.1426 -0.2100 -0.1110
 3615TIP3    H132260   4.659   2.497  12.624 -0.9497  1.2284 -0.0523
 3615TIP3    H232261   4.708   2.631  12.573  1.9202  0.3071  0.1882
 3616TIP3   OH232262   3.335   5.568   3.557  0.3956  0.2451  0.0047
 3616TIP3    H132263   3.270   5.609   3.615 -0.7562 -0.1330 -0.9974
 3616TIP3    H232264   3.415   5.566   3.609 -0.3405  0.8984  1.2006
 3617TIP3   OH232265   1.700   4.761   5.798  0.0752  0.4606 -0.1168
 3617TIP3    H132266   1.773   4.707   5.768 -1.5674 -1.0177 -1.6358
 3617TIP3    H232267   1.705   4.758   5.893  1.4317 -0.4065 -0.2043
 3618TIP3   OH232268   5.093   1.886  14.582  0.1391 -0.1054  0.2953
 3618TIP3    H132269   5.175   1.934  14.569 -0.4822  1.0138  0.4727
 3618TIP3    H232270   5.112   1.826  14.654  0.7663  0.2581  0.4386
 3619TIP3   OH232271   4.848   1.809  12.865 -0.0387 -0.3641  0.3456
 3619TIP3    H132272   4.943   1.820  12.853 -0.5711  3.9480 -0.7299
 3619TIP3    H232273   4.818   1.772  12.782  0.4922 -0.1557  0.0563
 3620TIP3   OH232274   0.420   4.918   5.397 -0.1516  0.1062  0.0432
 3620TIP3    H132275   0.503   4.943   5.438  0.7593  0.7946 -2.1163
 3620TIP3    H232276   0.355   4.975   5.437  0.5494  0.1150  1.1896
 3621TIP3   OH232277   5.083   5.088  12.217  0.3278  0.6944  0.1315
 3621TIP3    H132278   5.126   5.167  12.184  0.7982  0.7189  0.7947
 3621TIP3    H232279   5.126   5.070  12.301 -0.6299  0.4349  0.5701
 3622TIP3   OH232280   6.243   3.938  13.104 -0.2300 -0.4161  0.1645
 3622TIP3    H132281   6.218   3.865  13.160 -1.2113  1.4404  2.2169
 3622TIP3    H232282   6.308   3.986  13.155 -1.1721  1.3291 -0.2419
 3623TIP3   OH232283   6.715   4.759   6.252 -0.1543 -0.1048  0.0341
 3623TIP3    H132284   6.710   4.853   6.235 -2.5823 -0.5301 -1.7733
 3623TIP3    H232285   6.682   4.749   6.342 -1.5160  0.6287 -0.3650
 3624TIP3   OH232286   4.423   6.342  16.925 -0.1306 -0.1984  0.0947
 3624TIP3    H132287   4.430   6.434  16.949  1.8129 -0.1157 -0.6757
 3624TIP3    H232288   4.417   6.296  17.009  1.0984  0.4769  0.5657
 3625TIP3   OH232289   6.160   0.578   3.705 -0.1784  0.1600 -0.1414
 3625TIP3    H132290   6.126   0.637   3.772  0.1059  1.6514 -1.2496
 3625TIP3    H232291   6.086   0.525   3.678 -0.3674 -0.2057  1.1109
 3626TIP3   OH232292   0.149   3.251  15.064 -0.0388  0.4129  0.0030
 3626TIP3    H132293   0.170   3.219  14.976 -3.6770 -0.8608 -0.4870
 3626TIP3    H232294   0.119   3.341  15.051  0.8480  0.7517  0.1896
 3627TIP3   OH232295   2.957   5.442  10.543  0.4087 -0.4269 -0.3504
 3627TIP3    H132296   2.904   5.471  10.468  2.3688 -1.6331 -2.2657
 3627TIP3    H232297   2.917   5.359  10.569  0.1510 -0.3619 -0.5373
 3628TIP3   OH232298   3.478   1.338   5.912 -0.2948 -0.3416  0.0994
 3628TIP3    H132299   3.462   1.251   5.948 -1.5478  0.8623  2.5813
 3628TIP3    H232300   3.527   1.384   5.981  0.2548  0.9403 -1.1237
 3629TIP3   OH232301   4.041   1.173  15.006 -0.0275  0.2410 -0.1468
 3629TIP3    H132302   4.031   1.142  15.096 -2.1398 -0.2977 -0.5348
 3629TIP3    H232303   4.030   1.267  15.012  0.2208  0.2506  0.2030
 3630TIP3   OH232304   3.040   0.027  14.250  0.1755  0.2208 -0.0035
 3630TIP3    H132305   2.956  -0.019  14.238  0.2775  0.0359 -0.0052
 3630TIP3    H232306   3.097  -0.010  14.183 -0.2660  1.6067 -1.1780
 3631TIP3   OH232307   1.614   6.577  13.951 -0.2877 -0.1967  0.2950
 3631TIP3    H132308   1.693   6.577  14.005 -1.4689  0.7222  2.0923
 3631TIP3    H232309   1.551   6.525  14.000 -1.6652  1.3829  0.2596
 3632TIP3   OH232310   1.007   3.659   1.893 -0.4132 -0.3279  0.1760
 3632TIP3    H132311   0.986   3.574   1.931  0.9247 -1.2303 -1.0261
 3632TIP3    H232312   1.041   3.710   1.966 -1.9043 -0.5626  1.0547
 3633TIP3   OH232313   0.000   3.307  13.716 -0.5334 -0.4529  0.8199
 3633TIP3    H132314  -0.059   3.248  13.670  0.7197 -1.0504 -0.0628
 3633TIP3    H232315  -0.054   3.350  13.781 -2.1506 -0.3070 -0.5890
 3634TIP3   OH232316   2.235   1.259   4.070 -0.6835 -0.2461  0.4859
 3634TIP3    H132317   2.292   1.221   4.137 -1.3759  0.5259  1.5098
 3634TIP3    H232318   2.289   1.326   4.029 -0.3695 -0.5029  0.4710
 3635TIP3   OH232319   4.163   1.374  16.901  0.6588  0.2763 -0.7797
 3635TIP3    H132320   4.243   1.385  16.850  2.6690 -2.4090  1.6435
 3635TIP3    H232321   4.110   1.314  16.849  1.2677  0.1386 -1.2475
 3636TIP3   OH232322   4.996   4.055   0.681 -0.0793 -0.1292  0.1119
 3636TIP3    H132323   4.945   4.079   0.758 -2.1023 -1.9130 -0.6175
 3636TIP3    H232324   4.957   4.106   0.610  1.3896  1.0686  0.1730
 3637TIP3   OH232325   1.097   2.653  15.514  0.4745 -0.6047 -0.1375
 3637TIP3    H132326   1.022   2.656  15.454  1.1838  1.3326 -0.9537
 3637TIP3    H232327   1.162   2.600  15.469  0.3437 -0.6186 -0.3105
 3638TIP3   OH232328   0.912   3.452   2.041 -0.2108  0.6512  0.6525
 3638TIP3    H132329   0.845   3.397   2.082 -1.6215  3.3167  2.0761
 3638TIP3    H232330   0.993   3.426   2.084 -1.1962  1.1702  2.9134
 3639TIP3   OH232331   5.931   1.776   2.464 -0.1159  0.2388  0.9620
 3639TIP3    H132332   5.882   1.704   2.505  0.8732 -0.5727  0.7463
 3639TIP3    H232333   5.941   1.841   2.534 -1.2041  0.2657  1.0983
 3640TIP3   OH232334   3.339   5.297   0.834  0.0829  0.5535  0.1868
 3640TIP3    H132335   3.385   5.281   0.916 -1.2381  1.9879  1.2358
 3640TIP3    H232336   3.287   5.376   0.851 -0.8737  0.3593 -1.7433
 3641TIP3   OH232337   1.680   4.099  14.977 -0.0034  0.2135 -0.4763
 3641TIP3    H132338   1.602   4.153  14.964  1.2373  2.2746  0.3037
 3641TIP3    H232339   1.723   4.099  14.892  0.5982  1.5058 -0.1969
 3642TIP3   OH232340   1.986   5.135  11.887  0.3948  0.3173  0.4515
 3642TIP3    H132341   1.940   5.217  11.901  2.7703  1.8680 -0.5159
 3642TIP3    H232342   1.928   5.068  11.923 -1.3040  2.4651  1.7955
 3643TIP3   OH232343   6.656   3.524  14.387 -0.3990  0.4141 -0.9098
 3643TIP3    H132344   6.576   3.516  14.334 -0.1427 -1.2670 -1.0645
 3643TIP3    H232345   6.628   3.504  14.476  0.1505 -1.9591 -1.2233
 3644TIP3   OH232346   4.147   5.216  15.652  0.4219 -0.1718 -0.1994
 3644TIP3    H132347   4.213   5.200  15.585 -0.3629 -0.1368 -1.0024
 3644TIP3    H232348   4.146   5.311  15.663  0.4245 -0.1603 -0.2882
 3645TIP3   OH232349   5.234   3.156  13.940  0.1005  0.0406 -0.4654
 3645TIP3    H132350   5.246   3.082  14.000  2.2978 -0.3064 -1.2989
 3645TIP3    H232351   5.207   3.116  13.858 -1.0706  0.3671 -0.2410
 3646TIP3   OH232352   1.820   3.836   0.081 -0.0217  0.0223  0.0558
 3646TIP3    H132353   1.858   3.872   0.161 -0.5770 -0.2769  0.4514
 3646TIP3    H232354   1.773   3.758   0.109  2.5782 -1.9915 -1.0403
 3647TIP3   OH232355   5.523   4.682  17.145 -0.3613  0.2820  0.3337
 3647TIP3    H132356   5.508   4.705  17.053  1.8388 -2.6668 -0.8557
 3647TIP3    H232357   5.578   4.753  17.178  0.8767  0.1650 -1.3731
 3648TIP3   OH232358   3.988   2.089   2.208 -0.5449  0.2753 -0.4089
 3648TIP3    H132359   3.969   2.182   2.217 -1.4914  0.0508 -0.0739
 3648TIP3    H232360   3.917   2.054   2.154 -0.9280 -0.5002  0.5654
 3649TIP3   OH232361   6.607   5.452   0.153  0.3237  0.5399 -0.0858
 3649TIP3    H132362   6.595   5.497   0.236 -0.1823  3.2717 -1.5580
 3649TIP3    H232363   6.701   5.460   0.135  0.5108 -0.4547  0.4316
 3650TIP3   OH232364   4.429   6.668   2.243 -0.0428  0.2633 -0.7672
 3650TIP3    H132365   4.438   6.764   2.240 -2.2426  0.6838  3.0411
 3650TIP3    H232366   4.504   6.639   2.295  1.2914 -0.2741 -2.9163
 3651TIP3   OH232367   5.079   0.474  11.186 -0.0443 -0.3952 -0.5245
 3651TIP3    H132368   5.070   0.563  11.152 -1.4731 -0.7075 -0.9979
 3651TIP3    H232369   5.165   0.473  11.228  0.1123  1.1167 -0.7825
 3652TIP3   OH232370   0.468   6.765   5.232 -0.1273 -0.1743 -0.5868
 3652TIP3    H132371   0.466   6.765   5.136  0.1033 -1.3516 -0.5967
 3652TIP3    H232372   0.404   6.832   5.257  1.5862  1.8965 -1.5762
 3653TIP3   OH232373   4.205   1.930   3.041  0.4714 -0.3456  0.1192
 3653TIP3    H132374   4.249   2.009   3.070  1.6586 -0.8272 -0.3229
 3653TIP3    H232375   4.162   1.955   2.959  0.0032  0.1023  0.5005
 3654TIP3   OH232376   5.070   0.523   5.319 -0.3081 -0.0569  0.2456
 3654TIP3    H132377   5.092   0.610   5.354  0.1028 -0.3383  0.6862
 3654TIP3    H232378   5.148   0.470   5.335 -0.6259 -0.5597  0.1428
 3655TIP3   OH232379   1.252   3.349   5.927 -0.2082  0.0645 -0.5562
 3655TIP3    H132380   1.331   3.358   5.874 -1.2831  0.2015 -2.1508
 3655TIP3    H232381   1.198   3.285   5.880 -1.2663  0.3525  0.2515
 3656TIP3   OH232382   6.616   1.087  13.474 -0.0079  0.3449  0.4666
 3656TIP3    H132383   6.593   1.157  13.536 -0.0820  0.1747  0.6310
 3656TIP3    H232384   6.708   1.069  13.492 -0.2136 -0.1841  0.9984
 3657TIP3   OH232385   5.122   4.701   2.964  0.3102  0.3641  0.2312
 3657TIP3    H132386   5.173   4.777   2.991  0.0318  0.6542 -0.0611
 3657TIP3    H232387   5.184   4.647   2.914 -0.0856  1.4845 -1.5046
 3658TIP3   OH232388   1.571   1.518  16.639  0.4604  0.1663  0.0649
 3658TIP3    H132389   1.489   1.522  16.688 -0.2602  2.1369 -1.2292
 3658TIP3    H232390   1.546   1.488  16.552  1.4980 -1.6830  0.3770
 3659TIP3   OH232391   3.916   5.122   3.770 -0.4704 -0.3906 -0.0711
 3659TIP3    H132392   3.843   5.062   3.758 -0.7581 -0.3640  1.4233
 3659TIP3    H232393   3.963   5.120   3.686 -1.6225 -1.1400 -0.7173
 3660TIP3   OH232394   1.592   4.104   2.505  0.6119 -0.4435  0.4748
 3660TIP3    H132395   1.648   4.113   2.582  1.4427  0.3511 -0.2131
 3660TIP3    H232396   1.506   4.082   2.540  0.6586  1.2445  1.7161
 3661TIP3   OH232397   4.113   2.594  15.231 -0.5445  0.6013 -1.0694
 3661TIP3    H132398   4.132   2.669  15.175  2.8079  0.2765 -0.4818
 3661TIP3    H232399   4.146   2.619  15.317 -1.6776 -0.5980 -0.2589
 3662TIP3   OH232400   5.783   5.210  16.985 -0.1098 -0.1382 -0.0077
 3662TIP3    H132401   5.797   5.233  17.077 -1.2161 -1.8106  0.6027
 3662TIP3    H232402   5.704   5.258  16.960  1.3585  1.9541 -0.7109
 3663TIP3   OH232403   6.239   3.174   2.755  0.0342 -0.3690 -0.1953
 3663TIP3    H132404   6.241   3.185   2.660 -0.6375  2.6358  0.0781
 3663TIP3    H232405   6.331   3.170   2.780  0.2701  1.4207 -0.7308
 3664TIP3   OH232406   5.749   6.120  14.200  0.2892 -0.0642 -0.4219
 3664TIP3    H132407   5.834   6.147  14.164  0.5402 -1.8481 -1.1714
 3664TIP3    H232408   5.725   6.192  14.258  1.1031  1.6565 -2.1524
 3665TIP3   OH232409   3.945   5.278   4.925 -0.4123  0.4098 -0.0536
 3665TIP3    H132410   3.890   5.200   4.915 -0.4977  0.4629  0.0083
 3665TIP3    H232411   4.010   5.269   4.856  0.6615 -0.6281  1.0691
 3666TIP3   OH232412   6.377   1.232   0.978 -0.2578 -0.5185 -0.2932
 3666TIP3    H132413   6.454   1.245   1.033  0.7815 -1.6290 -1.4460
 3666TIP3    H232414   6.372   1.311   0.924 -0.3977 -0.0990  0.3316
 3667TIP3   OH232415   2.258   1.829  13.041  0.0225 -0.2479 -0.1118
 3667TIP3    H132416   2.298   1.876  12.968 -0.4956  0.1518 -0.1390
 3667TIP3    H232417   2.172   1.802  13.009  0.0455 -0.6213  0.1342
 3668TIP3   OH232418   3.875   1.281   4.482  0.4961  0.6983 -0.2858
 3668TIP3    H132419   3.933   1.282   4.557  0.6991  2.4481 -0.4488
 3668TIP3    H232420   3.923   1.232   4.415 -0.5172 -2.6566  1.3243
 3669TIP3   OH232421   0.250   4.239   4.941 -0.3306 -0.6900  0.4455
 3669TIP3    H132422   0.161   4.234   4.976 -0.7779  0.3637 -0.5168
 3669TIP3    H232423   0.267   4.333   4.935  0.4195 -0.8850 -0.4560
 3670TIP3   OH232424   1.368   2.649   6.374  0.2226 -0.0744 -0.3755
 3670TIP3    H132425   1.369   2.650   6.470  1.9263  1.6764 -0.3816
 3670TIP3    H232426   1.298   2.710   6.350  0.4292  0.2128 -0.2479
 3671TIP3   OH232427   4.621   2.340  16.231  0.2329 -0.5842 -0.0219
 3671TIP3    H132428   4.538   2.376  16.261  1.0113 -0.5856  2.2181
 3671TIP3    H232429   4.640   2.270  16.294  2.1328 -0.2948 -0.2608
 3672TIP3   OH232430   0.265   3.069   5.143  0.4398  0.6004  0.2974
 3672TIP3    H132431   0.228   3.123   5.213  1.2818  1.9214 -0.2602
 3672TIP3    H232432   0.319   3.004   5.189  0.7781  1.2952  0.8965
 3673TIP3   OH232433   2.577   5.005   5.006  0.3443 -0.2132  0.3409
 3673TIP3    H132434   2.520   5.002   4.929  0.7087  0.8244  0.0210
 3673TIP3    H232435   2.517   4.995   5.080 -0.3445  1.4190  0.0282
 3674TIP3   OH232436   6.587   1.652  16.754  0.1003  0.5043  0.2497
 3674TIP3    H132437   6.680   1.653  16.734 -0.1467  0.4198 -1.0088
 3674TIP3    H232438   6.580   1.613  16.841  1.1329 -0.7478 -0.2235
 3675TIP3   OH232439   5.330   4.191   5.148  0.6574  0.2610  0.6288
 3675TIP3    H132440   5.362   4.195   5.057  0.3744  1.2451  0.5726
 3675TIP3    H232441   5.356   4.103   5.178 -0.0308 -0.4124 -0.6873
 3676TIP3   OH232442   0.981   6.022  12.315  0.5828  0.1341  0.9537
 3676TIP3    H132443   0.958   5.944  12.265 -0.8009  1.1537 -0.0325
 3676TIP3    H232444   1.065   6.001  12.355  0.3572 -1.7527  0.4757
 3677TIP3   OH232445   6.430   5.694   4.053 -0.1994  0.0616  0.7257
 3677TIP3    H132446   6.351   5.639   4.057 -1.0563  1.3384  1.6246
 3677TIP3    H232447   6.420   5.746   3.974  0.7074 -1.1894 -0.2322
 3678TIP3   OH232448   4.674   2.729  14.606 -0.3406  0.2618 -0.0435
 3678TIP3    H132449   4.735   2.744  14.534 -0.0436  0.7072  0.3057
 3678TIP3    H232450   4.695   2.796  14.671 -1.1369  0.3625  0.1170
 3679TIP3   OH232451   2.456   3.062  13.643  0.2037  0.1136  0.3086
 3679TIP3    H132452   2.419   3.023  13.722  0.6780 -0.0201  0.4677
 3679TIP3    H232453   2.420   3.150  13.640 -1.5502 -0.6059 -0.5001
 3680TIP3   OH232454   4.503   4.166   0.614 -0.2588  0.0861 -0.3120
 3680TIP3    H132455   4.576   4.180   0.674  1.4357  0.8161 -2.4760
 3680TIP3    H232456   4.476   4.254   0.587 -0.7327 -0.2465 -0.9373
 3681TIP3   OH232457   6.200   2.211   5.255 -0.2555 -0.0099  0.3838
 3681TIP3    H132458   6.155   2.185   5.175  1.5324  1.3059 -1.0782
 3681TIP3    H232459   6.236   2.130   5.291 -0.1325 -0.4534 -0.7421
 3682TIP3   OH232460   3.469   4.992  15.200 -0.3946  0.6428 -0.0079
 3682TIP3    H132461   3.438   4.913  15.155 -0.9657  0.6950  0.2869
 3682TIP3    H232462   3.466   4.969  15.293  0.7515  0.5433  0.0180
 3683TIP3   OH232463   1.554   4.357   2.328  0.0796 -0.5814  0.3009
 3683TIP3    H132464   1.589   4.269   2.340  0.3039 -0.3818  1.1638
 3683TIP3    H232465   1.500   4.351   2.250 -0.2934 -1.5993  0.6317
 3684TIP3   OH232466   1.935   5.145   2.816  0.2201 -0.2896  0.5928
 3684TIP3    H132467   2.006   5.208   2.801 -0.6527  0.5924  0.1107
 3684TIP3    H232468   1.972   5.082   2.878  1.5676 -0.0853  0.0197
 3685TIP3   OH232469   0.829   5.383  11.206 -0.2037  0.3595  0.0861
 3685TIP3    H132470   0.891   5.418  11.269  0.7241  0.9341 -1.1347
 3685TIP3    H232471   0.765   5.335  11.259  2.8608 -2.7114  1.1435
 3686TIP3   OH232472   5.511   1.838  16.679 -0.7722  0.4933 -0.0939
 3686TIP3    H132473   5.517   1.816  16.772  1.5257 -1.4024 -0.6361
 3686TIP3    H232474   5.580   1.903  16.666 -0.7694  0.3904 -0.5772
 3687TIP3   OH232475   0.613   1.720  13.863 -0.0655 -0.7584 -0.0462
 3687TIP3    H132476   0.518   1.723  13.849 -0.0705 -1.1509 -0.1044
 3687TIP3    H232477   0.634   1.805  13.903 -0.3616 -0.4706 -0.4985
 3688TIP3   OH232478   6.786   5.713   1.522  0.0693  0.1060  0.0479
 3688TIP3    H132479   6.697   5.690   1.547 -0.8976  2.2476 -1.2544
 3688TIP3    H232480   6.804   5.795   1.569  1.9704 -1.1583  1.5753
 3689TIP3   OH232481   1.692   0.409   2.774 -0.5149 -0.3674  0.9562
 3689TIP3    H132482   1.728   0.350   2.840 -1.8797 -2.3882 -0.0498
 3689TIP3    H232483   1.597   0.402   2.784 -0.8344 -2.0516 -2.2503
 3690TIP3   OH232484   5.303   3.356   2.921  0.0392  0.8840 -0.3351
 3690TIP3    H132485   5.363   3.365   2.995 -2.2407  1.7473  1.4528
 3690TIP3    H232486   5.274   3.265   2.925  2.8405 -0.2065 -2.5564
 3691TIP3   OH232487   1.897   3.729   3.776 -0.6115  0.0851 -0.1099
 3691TIP3    H132488   1.945   3.677   3.841 -1.6255 -0.7887 -0.0508
 3691TIP3    H232489   1.912   3.684   3.693  0.8396  1.3076 -0.5345
 3692TIP3   OH232490   6.288   4.177   1.677 -0.8933  0.3375  0.4287
 3692TIP3    H132491   6.339   4.133   1.745  0.8315  0.2221 -0.8809
 3692TIP3    H232492   6.288   4.269   1.702 -0.6570  0.2323  0.8260
 3693TIP3   OH232493   2.785   1.026  12.974 -0.1011  0.1114 -0.0229
 3693TIP3    H132494   2.872   1.062  12.960  0.6690 -1.1388  1.3019
 3693TIP3    H232495   2.799   0.958  13.041 -2.0142 -0.3921 -0.1247
 3694TIP3   OH232496   4.303   3.606  11.976 -0.7606  0.0693 -0.2732
 3694TIP3    H132497   4.375   3.639  12.031  0.4330  1.4761 -2.5929
 3694TIP3    H232498   4.270   3.683  11.931 -3.0108 -0.7667 -0.0918
 3695TIP3   OH232499   4.679   1.411  11.208  0.2033 -0.4328 -0.1482
 3695TIP3    H132500   4.594   1.450  11.225  0.1238 -0.7793  0.2427
 3695TIP3    H232501   4.664   1.352  11.134  0.8549  2.1622 -2.4445
 3696TIP3   OH232502   4.402   6.100   2.939  0.3665 -0.3942  0.6508
 3696TIP3    H132503   4.492   6.092   2.970 -0.0183 -0.1724  1.8948
 3696TIP3    H232504   4.368   6.177   2.985 -1.3188 -2.1194  2.4342
 3697TIP3   OH232505   3.759   3.257   4.493 -0.6814  0.3772  0.2620
 3697TIP3    H132506   3.679   3.225   4.450 -0.3818  0.2179 -0.1746
 3697TIP3    H232507   3.819   3.183   4.490 -0.4048  0.6016  0.3095
 3698TIP3   OH232508   0.095   3.963  14.247  0.7755  0.3598 -0.2006
 3698TIP3    H132509   0.176   3.922  14.215 -0.4690 -1.5507 -0.9775
 3698TIP3    H232510   0.067   4.019  14.175  0.8529  0.2125 -0.3473
 3699TIP3   OH232511   1.024   5.193   4.842 -0.1190 -0.0507 -0.3772
 3699TIP3    H132512   0.978   5.223   4.764  2.2376  1.4511 -1.2370
 3699TIP3    H232513   1.021   5.268   4.902 -0.2169 -0.5016  0.1836
 3700TIP3   OH232514   5.588   2.867   5.633 -0.6340  0.0785 -0.3280
 3700TIP3    H132515   5.608   2.854   5.726 -1.1263  3.1526  0.2649
 3700TIP3    H232516   5.494   2.888   5.632 -1.0481 -1.7108 -1.7387
 3701TIP3   OH232517   0.543   2.120  12.890  0.3918  0.6811 -0.2970
 3701TIP3    H132518   0.554   2.105  12.796 -1.4152  0.2908 -0.4636
 3701TIP3    H232519   0.470   2.181  12.896  0.6329  0.8652  0.8538
 3702TIP3   OH232520   6.033   2.461   0.855  0.2133  0.4465 -0.5674
 3702TIP3    H132521   5.951   2.511   0.854  0.2109  0.4448 -1.5620
 3702TIP3    H232522   6.012   2.380   0.808  0.3113 -0.3479  0.7470
 3703TIP3   OH232523   2.050   3.693   1.235  0.3055  0.5405 -0.1512
 3703TIP3    H132524   2.052   3.789   1.233  0.9818  0.4998 -2.0302
 3703TIP3    H232525   2.105   3.666   1.161  0.1928 -1.3013  0.4115
 3704TIP3   OH232526   4.251   4.666   5.514 -0.2552 -0.5824 -0.1391
 3704TIP3    H132527   4.158   4.680   5.501 -0.3509 -1.5706 -0.6070
 3704TIP3    H232528   4.291   4.696   5.432  0.2151  3.2143  1.4018
 3705TIP3   OH232529   3.416   5.048  11.690  0.2757 -0.4252  0.0978
 3705TIP3    H132530   3.412   4.954  11.703  2.5225 -0.5709 -0.1074
 3705TIP3    H232531   3.505   5.065  11.659  0.4846  1.9681  1.8149
 3706TIP3   OH232532   5.043   4.978   2.010  0.0778  0.1664  0.8851
 3706TIP3    H132533   4.967   5.006   1.959  0.9754  1.2052  0.0802
 3706TIP3    H232534   5.034   4.883   2.019 -1.5384  0.3364  1.1936
 3707TIP3   OH232535   2.622   0.363   1.676 -0.0714  0.2384 -0.0211
 3707TIP3    H132536   2.707   0.345   1.717 -0.4663 -2.0024 -0.1368
 3707TIP3    H232537   2.644   0.390   1.587  0.6031  1.8380  0.5990
 3708TIP3   OH232538   0.883   5.834  14.006  0.5091  0.3495 -0.8551
 3708TIP3    H132539   0.789   5.829  14.024  0.3737  1.4242 -1.2202
 3708TIP3    H232540   0.909   5.743  13.991 -0.6978  0.1467 -1.8620
 3709TIP3   OH232541   1.910   3.920  16.230  0.0766 -0.0862 -0.2196
 3709TIP3    H132542   1.889   3.981  16.160 -1.2969 -0.5367 -0.2253
 3709TIP3    H232543   1.830   3.916  16.283  1.9037  2.3066  2.9578
 3710TIP3   OH232544   2.910   1.071  15.979 -0.0438 -0.0339 -0.3390
 3710TIP3    H132545   2.991   1.119  15.996 -0.2273  0.1589  0.0061
 3710TIP3    H232546   2.931   0.980  16.002 -0.4434  0.3091  1.4782
 3711TIP3   OH232547   6.528   6.452  13.214  0.2056 -1.1476 -0.0809
 3711TIP3    H132548   6.525   6.379  13.276 -0.1011 -1.0092  0.0732
 3711TIP3    H232549   6.549   6.528  13.268 -0.5192 -0.9495 -0.0690
 3712TIP3   OH232550   2.900   1.382  15.156  0.1493  0.3464 -0.0029
 3712TIP3    H132551   2.898   1.447  15.086 -1.0504 -1.1810 -1.4372
 3712TIP3    H232552   2.993   1.364  15.170  0.3591 -0.6529 -2.4896
 3713TIP3   OH232553   4.968   0.095   1.021 -0.0172 -0.3710  0.6654
 3713TIP3    H132554   4.885   0.061   0.988 -0.9939  1.3436  1.2933
 3713TIP3    H232555   4.959   0.092   1.116 -0.3225  2.0581  0.7376
 3714TIP3   OH232556   0.200   3.572   1.735 -0.1459 -0.1930  0.8109
 3714TIP3    H132557   0.169   3.498   1.683 -2.4413 -0.1654  2.0809
 3714TIP3    H232558   0.279   3.540   1.778  1.3204 -0.4767 -2.0304
 3715TIP3   OH232559   1.908   2.750  11.218  0.6556  0.5485  0.0892
 3715TIP3    H132560   1.843   2.760  11.288  0.1134  0.1905 -0.3639
 3715TIP3    H232561   1.992   2.745  11.264  0.0220 -3.4746  0.9922
 3716TIP3   OH232562   4.396   5.201  15.453  0.2557  0.1449  0.0622
 3716TIP3    H132563   4.320   5.224  15.399 -1.1063 -3.8048  0.1333
 3716TIP3    H232564   4.445   5.140  15.399  2.7709  1.6661  0.5513
 3717TIP3   OH232565   3.137   2.319  16.605 -0.0351 -0.0140  0.1640
 3717TIP3    H132566   3.073   2.298  16.537  0.7443 -0.8730 -0.3340
 3717TIP3    H232567   3.092   2.303  16.687 -0.4252 -0.7477 -0.1851
 3718TIP3   OH232568   1.316   5.945   2.184 -0.2693 -0.1484  0.1277
 3718TIP3    H132569   1.289   6.017   2.242  0.2267 -0.0524  0.2402
 3718TIP3    H232570   1.412   5.951   2.182 -0.3473  0.7427 -1.8654
 3719TIP3   OH232571   3.914   1.354  13.223 -0.3235 -0.2220 -0.6501
 3719TIP3    H132572   3.944   1.329  13.310 -0.6079 -1.2191 -0.8353
 3719TIP3    H232573   3.919   1.449  13.223  3.3829 -0.3652 -0.8900
 3720TIP3   OH232574   5.681   4.737  14.719  0.5314 -0.4325 -0.2273
 3720TIP3    H132575   5.591   4.770  14.709  1.3006  1.5376 -0.9227
 3720TIP3    H232576   5.708   4.768  14.805  0.5336 -1.0668  0.0024
 3721TIP3   OH232577   0.057   6.036  10.923 -0.5520 -0.4418 -0.2388
 3721TIP3    H132578  -0.020   6.042  10.980 -0.9994 -0.8255 -0.7896
 3721TIP3    H232579   0.032   6.083  10.844  0.4217  0.9127  0.2497
 3722TIP3   OH232580   6.775   5.312  14.077  0.2744 -0.1305 -0.1398
 3722TIP3    H132581   6.747   5.395  14.039 -0.4568  0.3132  1.3372
 3722TIP3    H232582   6.870   5.310  14.063  0.1886  0.6147 -0.8309
 3723TIP3   OH232583   6.632   4.496  14.844  0.0058 -0.2552  0.1631
 3723TIP3    H132584   6.593   4.409  14.854 -0.2851  0.0361  1.6726
 3723TIP3    H232585   6.670   4.495  14.756  0.5476 -2.1258  0.3894
 3724TIP3   OH232586   2.037   5.777  16.924  0.0870  0.0783  0.2231
 3724TIP3    H132587   2.119   5.825  16.922 -0.1927  0.5269 -1.4881
 3724TIP3    H232588   2.047   5.710  16.856  0.2332 -1.8962  2.1318
 3725TIP3   OH232589   5.062   1.577  11.561 -0.6892  0.4788 -0.4647
 3725TIP3    H132590   4.969   1.582  11.539 -0.5979 -1.4169 -1.4127
 3725TIP3    H232591   5.065   1.586  11.656 -1.8621  0.2630 -0.4024
 3726TIP3   OH232592   1.734   0.463  11.970  0.7610 -0.3685 -0.4245
 3726TIP3    H132593   1.733   0.554  11.999 -1.9569 -0.4291 -0.1639
 3726TIP3    H232594   1.801   0.421  12.023  0.8531  1.1072  0.6492
 3727TIP3   OH232595   1.741   4.986   4.854 -0.2500 -0.5484  0.0746
 3727TIP3    H132596   1.675   4.959   4.790  0.2305  0.9775 -1.1056
 3727TIP3    H232597   1.691   5.019   4.928 -0.8168 -0.4865 -0.3295
 3728TIP3   OH232598   2.812   0.751   4.443  0.1533  0.5399  0.3187
 3728TIP3    H132599   2.775   0.791   4.522 -0.3386  0.5950  0.0593
 3728TIP3    H232600   2.844   0.666   4.472 -0.2201  0.4716  0.5356
 3729TIP3   OH232601   5.997   3.302  11.678  0.1463 -0.1623 -0.4625
 3729TIP3    H132602   6.014   3.290  11.584  1.8969  0.5186 -0.2526
 3729TIP3    H232603   6.066   3.361  11.707 -0.9872  0.4404  1.0611
 3730TIP3   OH232604   4.828   4.209   4.192  0.1424 -0.3207 -0.0134
 3730TIP3    H132605   4.756   4.146   4.186  0.3812 -0.5555 -0.3787
 3730TIP3    H232606   4.907   4.155   4.192  0.2972 -0.1264  1.2792
 3731TIP3   OH232607   5.354   2.955   3.667  0.7415  0.5275 -0.2181
 3731TIP3    H132608   5.271   3.003   3.660  0.2358 -0.3102  0.0640
 3731TIP3    H232609   5.333   2.866   3.641  1.0201 -0.2900  2.2235
 3732TIP3   OH232610   2.140   2.052  11.820  0.5264  0.2796 -0.8636
 3732TIP3    H132611   2.111   2.124  11.764 -1.0916  0.1601 -0.2028
 3732TIP3    H232612   2.105   1.974  11.778 -0.4876  0.1697  0.1748
 3733TIP3   OH232613   6.308   4.235  16.286 -0.5100 -0.7410 -0.4045
 3733TIP3    H132614   6.294   4.141  16.300 -0.8292 -0.9225 -1.8046
 3733TIP3    H232615   6.303   4.245  16.191 -0.2511  0.6635 -0.2738
 3734TIP3   OH232616   5.579   2.647   6.419  0.2985 -0.4132  0.1789
 3734TIP3    H132617   5.620   2.733   6.416  0.3608 -0.4340  0.3968
 3734TIP3    H232618   5.605   2.611   6.504 -0.7351 -0.1431  0.6265
 3735TIP3   OH232619   1.370   4.796   3.286 -0.1430 -0.1513 -0.0593
 3735TIP3    H132620   1.305   4.838   3.229 -2.1942 -0.0469  2.2533
 3735TIP3    H232621   1.402   4.722   3.235 -2.1892 -0.2764 -1.2337
 3736TIP3   OH232622   4.300   3.093   0.150 -0.0634 -0.2407 -0.0763
 3736TIP3    H132623   4.261   3.007   0.160  0.2950 -0.3562  0.3738
 3736TIP3    H232624   4.311   3.104   0.056 -0.5051 -0.5057 -0.1594
 3737TIP3   OH232625   3.426   0.381  15.281 -0.8210 -0.2308 -0.1086
 3737TIP3    H132626   3.520   0.380  15.299 -0.3027  1.1271 -2.4757
 3737TIP3    H232627   3.394   0.459  15.326 -0.0872  1.4302 -2.3564
 3738TIP3   OH232628   4.585   3.207  16.295 -0.1738 -0.0047 -0.5298
 3738TIP3    H132629   4.635   3.199  16.214 -1.6365 -0.5943 -1.3880
 3738TIP3    H232630   4.574   3.301  16.307  1.7854  0.1690  0.0840
 3739TIP3   OH232631   2.997   4.697  12.379  0.0320 -0.5176 -0.2155
 3739TIP3    H132632   2.910   4.698  12.418  0.1514 -1.3247  0.0805
 3739TIP3    H232633   2.985   4.737  12.293 -0.7465 -1.1512 -0.4089
 3740TIP3   OH232634   3.163   0.943   1.199 -0.0890 -0.2705  0.9320
 3740TIP3    H132635   3.212   1.024   1.193 -0.1466 -0.0920  2.5429
 3740TIP3    H232636   3.075   0.965   1.170  0.6079 -0.4478 -1.3820
 3741TIP3   OH232637   4.427   3.643   0.487  0.0119  0.2594  0.0012
 3741TIP3    H132638   4.449   3.623   0.396  0.3457  1.5715 -0.2192
 3741TIP3    H232639   4.481   3.583   0.538 -0.8064 -1.0710 -0.6778
 3742TIP3   OH232640   2.487   2.135   0.230  0.0225  0.6551  0.2478
 3742TIP3    H132641   2.411   2.077   0.232 -0.1947  0.9499  0.9280
 3742TIP3    H232642   2.512   2.144   0.322  1.6354 -0.4141 -0.0704
 3743TIP3   OH232643   4.234   5.182   4.280 -0.6037  0.1084  0.3022
 3743TIP3    H132644   4.177   5.122   4.232  1.5781 -1.0923 -0.8982
 3743TIP3    H232645   4.272   5.238   4.212 -0.7480  1.2195  1.1345
 3744TIP3   OH232646   3.044   3.246   3.569 -0.0103  0.3849 -0.1259
 3744TIP3    H132647   2.954   3.275   3.558 -0.2224 -0.1797  0.0882
 3744TIP3    H232648   3.045   3.157   3.534 -0.1481 -0.5683  2.1845
 3745TIP3   OH232649   2.635   2.156   1.360  0.1608 -0.2657 -0.0636
 3745TIP3    H132650   2.608   2.118   1.443  0.2646 -1.0576 -0.3957
 3745TIP3    H232651   2.585   2.238   1.354 -0.9114 -0.9065  0.1104
 3746TIP3   OH232652   5.178   6.436   6.350  0.5773 -0.3704  0.0716
 3746TIP3    H132653   5.152   6.398   6.266  0.7674  0.2336 -0.2601
 3746TIP3    H232654   5.113   6.504   6.366 -0.8747 -2.0760  1.5743
 3747TIP3   OH232655   5.647   5.554   3.511  0.5199  0.7393  0.5429
 3747TIP3    H132656   5.616   5.489   3.447  1.8414  0.2791  0.3475
 3747TIP3    H232657   5.740   5.563   3.492  0.9778  0.4561  2.5330
 3748TIP3   OH232658   6.622   1.017  16.821 -0.4994  0.0136  0.4846
 3748TIP3    H132659   6.643   0.971  16.902 -0.0618  1.9782  1.4983
 3748TIP3    H232660   6.551   1.076  16.843  1.1166  2.2042  0.0341
 3749TIP3   OH232661   1.064   6.023   0.849 -0.6595 -0.0950  0.2294
 3749TIP3    H132662   1.102   6.109   0.832  0.3281 -1.1384 -3.4509
 3749TIP3    H232663   1.137   5.970   0.880 -0.4990 -0.4439 -0.7202
 3750TIP3   OH232664   5.425   6.470  14.338 -0.1591 -0.5919 -0.6197
 3750TIP3    H132665   5.353   6.530  14.321 -0.2445 -0.3689  0.4643
 3750TIP3    H232666   5.404   6.391  14.289 -1.8069 -1.0227  0.7469
 3751TIP3   OH232667   5.637   4.877   4.313  0.3632 -0.1099  0.7024
 3751TIP3    H132668   5.711   4.936   4.308 -1.2462  1.8539 -0.9113
 3751TIP3    H232669   5.570   4.927   4.360 -1.0352 -0.6031 -0.7234
 3752TIP3   OH232670   6.714   3.362  12.644 -0.3022 -0.3324 -0.1196
 3752TIP3    H132671   6.705   3.445  12.597  0.1179 -1.1010 -1.5821
 3752TIP3    H232672   6.805   3.336  12.629  0.0982 -0.1553  1.8659
 3753TIP3   OH232673   5.043   6.001   3.127  0.2176  0.1970  0.6424
 3753TIP3    H132674   4.950   6.008   3.149 -0.2281 -0.2124 -1.0476
 3753TIP3    H232675   5.044   5.981   3.033  2.0043 -0.1024  0.7107
 3754TIP3   OH232676   4.281   1.362  12.051  0.2655  0.8030 -0.3672
 3754TIP3    H132677   4.352   1.317  12.097  0.3620  2.3024  1.0087
 3754TIP3    H232678   4.206   1.355  12.111  0.2593  2.3557 -0.1718
 3755TIP3   OH232679   4.966   1.222  14.046  0.8841 -0.0530  0.1938
 3755TIP3    H132680   4.879   1.196  14.075  0.3200  1.7089  0.1417
 3755TIP3    H232681   5.025   1.190  14.115 -0.0300  0.5859  1.2851
 3756TIP3   OH232682   3.521   6.402   6.076 -0.0418 -0.0276  0.1250
 3756TIP3    H132683   3.602   6.372   6.036 -0.1338  1.5084 -1.2406
 3756TIP3    H232684   3.479   6.322   6.108  1.0610 -1.0311 -0.9056
 3757TIP3   OH232685   0.072   4.441   5.112  0.5781 -0.8260  0.1561
 3757TIP3    H132686   0.080   4.449   5.207  1.3142 -0.0888  0.0400
 3757TIP3    H232687  -0.005   4.386   5.099 -1.6334  1.8520  1.1436
 3758TIP3   OH232688   2.864   3.720   3.316 -0.5807  0.0594 -0.1605
 3758TIP3    H132689   2.803   3.793   3.316 -0.8554 -0.1373 -2.2486
 3758TIP3    H232690   2.854   3.679   3.230  1.2555 -1.0097  0.0837
 3759TIP3   OH232691   0.843   1.066  11.480  0.1660  0.0024 -0.3894
 3759TIP3    H132692   0.912   1.074  11.414  0.1529 -2.5077 -0.7588
 3759TIP3    H232693   0.768   1.030  11.432  0.2500 -2.1230  1.0070
 3760TIP3   OH232694   6.711   4.509  14.229 -0.4088  0.3250  0.5170
 3760TIP3    H132695   6.742   4.526  14.139 -1.9240 -3.0125 -0.7238
 3760TIP3    H232696   6.791   4.507  14.281  0.8221 -0.8374 -1.3365
 3761TIP3   OH232697   2.844   1.630   3.346 -0.0803 -0.7408  0.2158
 3761TIP3    H132698   2.909   1.569   3.383  0.5243  0.5870  1.4203
 3761TIP3    H232699   2.774   1.632   3.411  0.0074  0.0082  0.2930
 3762TIP3   OH232700   4.240   6.743   5.986 -0.3370  0.2788 -0.3097
 3762TIP3    H132701   4.298   6.697   5.925  0.3489 -0.1954  0.6803
 3762TIP3    H232702   4.153   6.709   5.968  0.1653 -1.4521  0.4180
 3763TIP3   OH232703   3.235   3.930  12.152 -0.1193 -0.1041 -0.1049
 3763TIP3    H132704   3.142   3.926  12.173 -0.4489 -0.3229 -1.5608
 3763TIP3    H232705   3.276   3.863  12.207 -1.1117 -1.4601 -1.0028
 3764TIP3   OH232706   3.201   4.849   2.935 -0.1752 -0.6290 -0.1978
 3764TIP3    H132707   3.160   4.857   3.022  1.7767  1.2825  0.5803
 3764TIP3    H232708   3.271   4.784   2.947  0.8480  0.4920 -0.0377
 3765TIP3   OH232709   0.228   0.120  12.235  0.1588  0.2766  0.6070
 3765TIP3    H132710   0.298   0.055  12.244  1.1111  1.1166 -0.6534
 3765TIP3    H232711   0.153   0.070  12.201  0.5872 -0.3417  0.5616
 3766TIP3   OH232712   5.467   0.127   3.880  0.0122  0.3632  0.0973
 3766TIP3    H132713   5.383   0.100   3.917 -0.5937  0.9352 -0.8123
 3766TIP3    H232714   5.487   0.210   3.923  0.0773  0.2539  0.2750
 3767TIP3   OH232715   0.303   3.251  11.577  0.1770 -0.4869  0.3938
 3767TIP3    H132716   0.269   3.294  11.498  0.5226 -0.4006  0.2903
 3767TIP3    H232717   0.323   3.323  11.637  2.5454 -0.3788 -0.4963
 3768TIP3   OH232718   5.963   0.141   5.226  0.0166  0.9567  0.5891
 3768TIP3    H132719   5.986   0.132   5.318 -0.5857 -3.3065  0.4524
 3768TIP3    H232720   6.026   0.086   5.180 -2.7296 -1.0389 -0.9648
 3769TIP3   OH232721   1.967   3.053  13.749  0.1015  0.2729 -0.6316
 3769TIP3    H132722   1.875   3.030  13.734  0.3352 -0.0105 -1.6740
 3769TIP3    H232723   2.014   3.011  13.677  1.2505 -0.9872  0.8223
 3770TIP3   OH232724   2.441   4.697   5.866 -0.7500  0.0555  0.6881
 3770TIP3    H132725   2.456   4.604   5.887  0.0596  0.3933  1.6351
 3770TIP3    H232726   2.453   4.742   5.949  0.2622  1.1793 -0.0606
 3771TIP3   OH232727   1.780   6.120  11.702 -0.2754  0.3391  0.1565
 3771TIP3    H132728   1.743   6.047  11.652 -2.5479  2.3329 -1.1508
 3771TIP3    H232729   1.860   6.143  11.656 -0.2991 -0.3929 -0.2531
 3772TIP3   OH232730   4.583   0.755  13.407  0.4702  0.0334  0.1892
 3772TIP3    H132731   4.585   0.712  13.493 -1.3767  0.3873  0.4295
 3772TIP3    H232732   4.501   0.726  13.367  1.2401 -0.0099 -1.4065
 3773TIP3   OH232733   5.774   6.548  13.346  0.6362  0.0872  0.1196
 3773TIP3    H132734   5.830   6.515  13.275  2.1926 -1.1367  1.8625
 3773TIP3    H232735   5.751   6.470  13.396 -0.5179  0.9269  0.9221
 3774TIP3   OH232736   4.082   3.560   4.827  0.1191  0.7385 -0.5157
 3774TIP3    H132737   4.020   3.628   4.799  0.0722  0.1423 -1.8492
 3774TIP3    H232738   4.165   3.607   4.838 -0.5773  1.5916  1.4985
 3775TIP3   OH232739   5.162   4.220   4.809  0.1898  0.5086 -0.2289
 3775TIP3    H132740   5.086   4.277   4.827 -0.2075  0.0637 -0.4840
 3775TIP3    H232741   5.123   4.135   4.789  0.7677  0.2519 -0.2588
 3776TIP3   OH232742   5.312   0.275   5.139 -0.1894  0.0524 -0.0120
 3776TIP3    H132743   5.253   0.201   5.128 -0.3583 -0.1627  2.0922
 3776TIP3    H232744   5.284   0.338   5.072 -0.9061 -1.2264 -0.9357
 3777TIP3   OH232745   2.810   2.715   5.667 -0.1991 -0.6036 -0.4471
 3777TIP3    H132746   2.716   2.707   5.685 -0.0992 -0.0761  0.3252
 3777TIP3    H232747   2.848   2.739   5.751  0.4771  0.4092 -1.0401
 3778TIP3   OH232748   0.051   6.199  14.228 -0.0513 -0.2903 -0.5640
 3778TIP3    H132749  -0.036   6.160  14.222 -0.1205 -0.2787  0.4081
 3778TIP3    H232750   0.089   6.162  14.308  1.0816 -0.7920 -1.3131
 3779TIP3   OH232751   1.249   6.226  16.915 -0.3019 -0.5657  0.2764
 3779TIP3    H132752   1.292   6.284  16.978  0.7023 -0.2614 -0.6683
 3779TIP3    H232753   1.318   6.166  16.886 -0.6558 -0.4848 -0.7775
 3780TIP3   OH232754   5.192   3.060   2.585  0.1568  0.0914  0.3228
 3780TIP3    H132755   5.232   2.993   2.640  0.7623  0.7612  0.6952
 3780TIP3    H232756   5.117   3.016   2.545  0.4049 -0.7361  0.7600
 3781TIP3   OH232757   6.757   2.958   4.049 -0.1223  0.1886 -0.1871
 3781TIP3    H132758   6.849   2.954   4.024 -0.0329  0.4922  0.1002
 3781TIP3    H232759   6.737   2.870   4.081 -0.2894 -0.2696 -1.5024
 3782TIP3   OH232760   6.741   4.240  16.865 -0.4691  0.3577 -0.0116
 3782TIP3    H132761   6.807   4.270  16.803  0.3979  0.5814  1.0137
 3782TIP3    H232762   6.787   4.231  16.948 -1.2812 -1.3976  0.2802
 3783TIP3   OH232763   4.144   3.583   1.284  0.2365 -0.3120  0.2057
 3783TIP3    H132764   4.211   3.613   1.223  1.3313 -1.6785  0.6927
 3783TIP3    H232765   4.067   3.637   1.265  0.8450 -0.1034 -1.7403
 3784TIP3   OH232766   6.058   1.040  11.074  0.6678  0.0047 -0.4112
 3784TIP3    H132767   6.088   1.046  10.983  2.3559 -1.2158  0.0354
 3784TIP3    H232768   5.967   1.069  11.071  0.8929  0.6152 -2.3804
 3785TIP3   OH232769   2.162   2.876  16.260 -0.1528  0.2176 -0.0373
 3785TIP3    H132770   2.218   2.875  16.182  0.4095 -0.9918  0.3696
 3785TIP3    H232771   2.168   2.965  16.293  1.2480  0.1934 -0.2072
 3786TIP3   OH232772   2.626   4.594   1.693 -0.1348  0.1584  0.0781
 3786TIP3    H132773   2.568   4.655   1.649  0.3373 -0.8030 -1.9622
 3786TIP3    H232774   2.705   4.645   1.711 -0.9783  1.0230  1.3730
 3787TIP3   OH232775   2.652   1.657  13.458 -0.6995 -0.1185 -0.4371
 3787TIP3    H132776   2.629   1.750  13.461 -1.3333 -0.2973  0.6745
 3787TIP3    H232777   2.685   1.643  13.370 -0.3114  1.2318 -0.5100
 3788TIP3   OH232778   1.404   2.735   3.298 -0.7010 -0.7788  0.1951
 3788TIP3    H132779   1.386   2.816   3.345  0.5893  0.1859 -0.9149
 3788TIP3    H232780   1.391   2.758   3.206  1.2267 -1.3877 -0.2545
 3789TIP3   OH232781   4.051   4.027   4.718 -0.0015 -0.1865  0.1192
 3789TIP3    H132782   4.087   4.028   4.807  0.7422  2.6774 -0.1541
 3789TIP3    H232783   4.117   3.983   4.665  0.6080  0.1382  0.6060
 3790TIP3   OH232784   3.706   6.156  15.565  0.0114 -0.2241 -0.4592
 3790TIP3    H132785   3.636   6.162  15.501 -0.6436 -0.2419  0.2420
 3790TIP3    H232786   3.740   6.245  15.572 -1.7997  0.3802  1.2290
 3791TIP3   OH232787   0.757   2.004  15.513 -0.4177  0.2896 -0.3606
 3791TIP3    H132788   0.720   2.089  15.490 -2.0981 -0.3173  0.0092
 3791TIP3    H232789   0.852   2.016  15.506 -0.5926  2.4756  0.7145
 3792TIP3   OH232790   4.549   1.903  11.539  0.3479  0.4391 -1.0596
 3792TIP3    H132791   4.519   1.921  11.627 -1.2215 -1.8851 -1.0547
 3792TIP3    H232792   4.612   1.972  11.519 -0.0266  1.5402  1.4894
 3793TIP3   OH232793   3.512   3.302   1.095 -0.2551 -0.7950 -0.3985
 3793TIP3    H132794   3.466   3.288   1.177 -1.3359 -1.1795 -1.0624
 3793TIP3    H232795   3.581   3.236   1.094  0.9288  0.3976  1.0377
 3794TIP3   OH232796   4.297   1.365   6.167  0.0779 -0.0081  0.2122
 3794TIP3    H132797   4.383   1.398   6.193 -0.1336  1.6614 -1.1655
 3794TIP3    H232798   4.297   1.274   6.197  1.6742  0.4516  1.7073
 3795TIP3   OH232799   4.817   3.703  16.804 -0.0549 -0.4456  0.6867
 3795TIP3    H132800   4.810   3.798  16.792 -1.0203 -0.3480  2.0000
 3795TIP3    H232801   4.746   3.667  16.751  0.7801 -0.4923 -0.4207
 3796TIP3   OH232802   1.583   1.015  14.851  0.3258  0.0877 -0.1268
 3796TIP3    H132803   1.573   0.922  14.831  1.9884 -0.3016  0.7785
 3796TIP3    H232804   1.495   1.051  14.840 -0.7624 -1.9703  1.3800
 3797TIP3   OH232805   1.959   5.783  14.903 -0.0115 -0.0013 -0.0495
 3797TIP3    H132806   1.929   5.744  14.985 -1.3171 -1.8411 -1.3565
 3797TIP3    H232807   1.879   5.819  14.863  0.3601 -0.4555 -1.2177
 3798TIP3   OH232808   2.233   0.249  16.637 -0.4358  0.4390 -0.7213
 3798TIP3    H132809   2.168   0.197  16.589 -0.6243 -0.3648  0.3899
 3798TIP3    H232810   2.182   0.293  16.705  0.0941  0.2511 -0.1997
 3799TIP3   OH232811   3.160   0.260   1.117 -0.7693  0.2388  0.1831
 3799TIP3    H132812   3.241   0.210   1.104 -0.7694 -0.2550  1.9299
 3799TIP3    H232813   3.090   0.197   1.101 -0.8249  0.6361 -1.2106
 3800TIP3   OH232814   2.092   5.810   5.116 -0.0936 -0.0199 -0.1404
 3800TIP3    H132815   2.140   5.891   5.099 -0.1599  0.3333  1.2755
 3800TIP3    H232816   2.135   5.745   5.061  0.4286  0.8142 -0.7406
 3801TIP3   OH232817   6.217   1.220  13.825 -0.4327 -0.2558  0.0110
 3801TIP3    H132818   6.287   1.285  13.829  0.5191 -1.3026  0.2516
 3801TIP3    H232819   6.238   1.166  13.748 -0.8654 -0.7043  0.2042
 3802TIP3   OH232820   2.995   0.923  12.654  0.1560  0.3945 -0.7675
 3802TIP3    H132821   3.066   0.975  12.691  2.0221 -0.2154 -3.3942
 3802TIP3    H232822   2.991   0.845  12.709 -1.6237  2.4893  2.2339
 3803TIP3   OH232823   2.431   2.238  14.650  0.7503 -0.2967  1.1804
 3803TIP3    H132824   2.348   2.235  14.602  1.6396  2.6925 -0.6652
 3803TIP3    H232825   2.416   2.303  14.719  1.6216  0.4522  0.6731
 3804TIP3   OH232826   1.203   6.786   1.955  0.5385 -0.3379 -0.0333
 3804TIP3    H132827   1.180   6.693   1.944  1.1269 -0.5211  0.2639
 3804TIP3    H232828   1.299   6.787   1.953  0.5581  0.1504  0.8457
 3805TIP3   OH232829   3.299   4.989  14.239  0.4104 -0.1071  0.7983
 3805TIP3    H132830   3.325   4.898  14.251 -0.7660 -0.6858 -0.8717
 3805TIP3    H232831   3.381   5.038  14.239  1.0716 -1.1977  1.4456
 3806TIP3   OH232832   2.935   1.910   2.502  0.3209 -0.1827  0.3036
 3806TIP3    H132833   2.974   1.997   2.504 -1.7599  0.8169 -0.4381
 3806TIP3    H232834   2.915   1.891   2.594  1.1226 -0.0535  0.5111
 3807TIP3   OH232835   5.312   4.362  15.527  0.1821  0.0349 -0.4614
 3807TIP3    H132836   5.379   4.391  15.464  1.0091 -0.3848  0.2139
 3807TIP3    H232837   5.344   4.277  15.558  0.7572  1.1093  1.9632
 3808TIP3   OH232838   2.903   4.835  13.171 -0.2789  0.0564 -0.6878
 3808TIP3    H132839   2.991   4.843  13.132  0.8764  0.7409  1.9298
 3808TIP3    H232840   2.855   4.910  13.137  0.4193  0.1382 -1.5138
 3809TIP3   OH232841   5.022   2.995  11.652 -1.1950  0.2437 -1.0281
 3809TIP3    H132842   5.050   3.081  11.685 -2.3098  0.2833 -0.1464
 3809TIP3    H232843   4.976   3.015  11.571 -1.3887  0.4726 -0.8623
 3810TIP3   OH232844   3.346   2.329   5.983  0.2318  0.5581  0.1912
 3810TIP3    H132845   3.389   2.336   6.068  1.3250  1.2119 -0.4042
 3810TIP3    H232846   3.253   2.328   6.003  0.4957 -0.3542  1.4694
 3811TIP3   OH232847   3.038   2.192   2.564 -0.4652  0.1638 -0.0734
 3811TIP3    H132848   3.127   2.225   2.576 -0.4830  0.1502  0.0958
 3811TIP3    H232849   2.994   2.260   2.513 -0.3243  0.1151 -0.2619
 3812TIP3   OH232850   3.982   5.790  16.693 -0.3317  0.1992 -0.0532
 3812TIP3    H132851   4.022   5.868  16.731  2.2963 -0.3060 -1.6974
 3812TIP3    H232852   3.948   5.820  16.608  0.0205 -0.2559 -0.3572
 3813TIP3   OH232853   4.466   3.554  12.381 -0.2043  0.0248  0.2381
 3813TIP3    H132854   4.387   3.597  12.414  0.1398 -0.0016  1.1041
 3813TIP3    H232855   4.477   3.588  12.292 -1.2577 -0.0624  0.0770
 3814TIP3   OH232856   6.554   0.059  14.546  0.0298 -0.0439 -0.1454
 3814TIP3    H132857   6.508  -0.025  14.543 -1.3180  0.7291 -2.0198
 3814TIP3    H232858   6.553   0.084  14.639 -1.2643 -1.1795  0.1550
 3815TIP3   OH232859   3.358   4.926   3.222  0.4555  0.1199 -0.1732
 3815TIP3    H132860   3.334   4.907   3.313  1.2206  0.6383  0.1443
 3815TIP3    H232861   3.282   4.973   3.187  0.0478 -0.3155  0.1132
 3816TIP3   OH232862   2.461   3.480   5.644  0.1293  0.6995  0.0007
 3816TIP3    H132863   2.517   3.435   5.707  1.2110  0.3220 -1.2109
 3816TIP3    H232864   2.490   3.448   5.559 -0.9010  1.6660 -0.7271
 3817TIP3   OH232865   2.435   6.155  14.034  0.0933 -0.0481  0.1572
 3817TIP3    H132866   2.427   6.233  13.978 -1.9520 -0.0369  0.4313
 3817TIP3    H232867   2.497   6.181  14.102 -0.0154  1.0934 -0.1648
 3818TIP3   OH232868   5.763   3.173  15.833  0.0431 -0.3599 -0.2740
 3818TIP3    H132869   5.743   3.093  15.784 -1.2140  0.4120 -1.0322
 3818TIP3    H232870   5.722   3.243  15.782 -0.1493  0.5967  1.1830
 3819TIP3   OH232871   2.212   3.001  14.075  0.4966  0.0860  0.1586
 3819TIP3    H132872   2.196   3.095  14.067 -0.2240 -0.0066  0.4586
 3819TIP3    H232873   2.266   2.979  14.000  2.5595  1.1608  1.2723
 3820TIP3   OH232874   3.228   5.305   0.006  0.5341 -0.4595 -0.1151
 3820TIP3    H132875   3.168   5.236  -0.024  0.5061 -0.8760  0.8943
 3820TIP3    H232876   3.312   5.261   0.016  1.2907  0.3398 -2.5131
 3821TIP3   OH232877   5.827   5.936   0.682 -0.5771  0.6039 -0.2532
 3821TIP3    H132878   5.880   6.014   0.671 -0.3849  0.4916 -0.1279
 3821TIP3    H232879   5.820   5.925   0.777 -1.7220  1.2264 -0.2616
 3822TIP3   OH232880   0.846   5.434   2.797  0.2535 -0.4998 -0.7947
 3822TIP3    H132881   0.915   5.489   2.760  0.6541 -0.2070  0.3713
 3822TIP3    H232882   0.772   5.444   2.737  0.5231  0.8320 -0.9232
 3823TIP3   OH232883   2.530   1.538  13.771  0.5960  0.5940  0.2127
 3823TIP3    H132884   2.486   1.501  13.694 -1.2869 -1.3626  2.1698
 3823TIP3    H232885   2.481   1.618  13.789  0.8796  0.9260 -0.4849
 3824TIP3   OH232886   1.258   1.166   4.948  0.0827  0.7168  0.1734
 3824TIP3    H132887   1.255   1.261   4.948  1.6058  0.7885  1.6380
 3824TIP3    H232888   1.172   1.138   4.978  0.0764  1.6669  1.0497
 3825TIP3   OH232889   5.549   4.416  14.988  0.3103 -0.3603  0.1296
 3825TIP3    H132890   5.603   4.469  15.046 -0.6525  0.5023  0.2448
 3825TIP3    H232891   5.583   4.433  14.900  1.0559 -0.8219  0.3227
 3826TIP3   OH232892   3.809   1.949   0.788 -0.0785  0.2109  0.1374
 3826TIP3    H132893   3.788   1.982   0.876  1.2714 -1.1003  0.9847
 3826TIP3    H232894   3.780   2.019   0.729  1.9853  2.6438  1.8316
 3827TIP3   OH232895   0.772   5.238   4.444  0.9523  0.1678  0.4861
 3827TIP3    H132896   0.755   5.151   4.479  0.0255  0.5288  0.9345
 3827TIP3    H232897   0.856   5.263   4.483  1.8198 -0.9929 -0.5624
 3828TIP3   OH232898   1.421   6.478  16.725  0.3635 -0.1221  0.1932
 3828TIP3    H132899   1.394   6.441  16.641 -0.1160 -0.2618  0.4108
 3828TIP3    H232900   1.344   6.524  16.757 -0.7157 -3.3452  2.3937
 3829TIP3   OH232901   4.703   5.422  12.418  0.4229  0.4273  0.5305
 3829TIP3    H132902   4.635   5.380  12.471  0.2792  0.5736  0.4594
 3829TIP3    H232903   4.756   5.349  12.386 -0.9083  0.1461 -1.0950
 3830TIP3   OH232904   4.372   4.669  15.967  0.3222 -0.0565 -0.1883
 3830TIP3    H132905   4.331   4.583  15.974 -1.0297  0.6362  0.6985
 3830TIP3    H232906   4.395   4.677  15.875 -1.1583 -0.6447 -0.6287
 3831TIP3   OH232907   5.005   4.906   4.382  0.1227  0.6333  0.6463
 3831TIP3    H132908   5.048   4.988   4.356 -2.3782  1.6699 -0.2948
 3831TIP3    H232909   5.009   4.851   4.304 -1.0187  1.0623  0.2785
 3832TIP3   OH232910   5.631   2.105  16.886 -0.2914  0.2186 -0.1054
 3832TIP3    H132911   5.575   2.148  16.951 -0.5598  0.4939 -0.5148
 3832TIP3    H232912   5.697   2.171  16.864  0.1316 -0.0656  0.2919
 3833TIP3   OH232913   3.077   1.824  13.398 -0.4332 -0.1208  0.0733
 3833TIP3    H132914   3.151   1.774  13.434 -0.9347 -1.2774 -0.4712
 3833TIP3    H232915   3.000   1.771  13.421 -1.1241  1.2430  0.9247
 3834TIP3   OH232916   2.218   1.671  16.196 -0.3190 -0.0075 -0.4424
 3834TIP3    H132917   2.313   1.660  16.196 -0.2318  0.7590 -0.6877
 3834TIP3    H232918   2.197   1.698  16.285 -0.0786  1.8169 -0.9350
 3835TIP3   OH232919   5.480   2.016  16.124 -0.1665 -0.4364 -0.5339
 3835TIP3    H132920   5.446   2.033  16.212 -1.8742 -0.9341 -1.0917
 3835TIP3    H232921   5.488   1.921  16.119  5.4295 -0.2194  1.1047
 3836TIP3   OH232922   4.386   2.395  14.320  0.7057 -0.1022 -0.2972
 3836TIP3    H132923   4.405   2.378  14.412 -1.5653 -0.2184  0.1772
 3836TIP3    H232924   4.384   2.491  14.313  1.0405 -0.0916 -0.2807
 3837TIP3   OH232925   2.155   1.812   4.929  0.0566 -0.4400 -0.3324
 3837TIP3    H132926   2.114   1.890   4.968  0.6658 -0.2104 -0.1497
 3837TIP3    H232927   2.183   1.841   4.842  3.2441  0.5098  0.9475
 3838TIP3   OH232928   1.658   4.469  16.624  0.8567 -0.0293  0.0414
 3838TIP3    H132929   1.580   4.452  16.677  0.4864 -2.5691 -1.2482
 3838TIP3    H232930   1.731   4.443  16.680  0.3706 -4.8447 -1.3286
 3839TIP3   OH232931   2.695   4.175  11.766 -0.0895 -0.3782  0.3476
 3839TIP3    H132932   2.711   4.265  11.793  0.4927 -0.6242  0.8241
 3839TIP3    H232933   2.740   4.168  11.682 -0.7060 -0.0317 -0.0179
 3840TIP3   OH232934   1.573   2.314   0.291 -0.8703 -0.2165  0.3306
 3840TIP3    H132935   1.666   2.329   0.305 -1.0678  0.4848  0.9178
 3840TIP3    H232936   1.561   2.322   0.197 -0.7396  2.0352  0.4958
 3841TIP3   OH232937   6.063   1.703  15.917 -0.1339 -0.1090 -0.4952
 3841TIP3    H132938   6.090   1.736  16.002 -1.4653 -2.2109  0.7756
 3841TIP3    H232939   5.967   1.707  15.918 -0.1776 -0.4582 -1.7659
 3842TIP3   OH232940   6.059   4.380   0.752  0.3300 -0.1976 -0.0638
 3842TIP3    H132941   6.049   4.341   0.839 -0.7353  0.1330 -0.0297
 3842TIP3    H232942   6.062   4.305   0.693  1.1763 -0.4292  0.2660
 3843TIP3   OH232943   3.376   3.694  12.109  0.1438  0.3603  0.2970
 3843TIP3    H132944   3.351   3.605  12.133  0.3901  1.0655  3.3469
 3843TIP3    H232945   3.310   3.721  12.045 -0.9263 -1.4026  0.6337
 3844TIP3   OH232946   5.089   0.853  12.924  0.0200 -0.3868 -0.3911
 3844TIP3    H132947   5.011   0.908  12.914 -0.7072 -1.0624  1.4032
 3844TIP3    H232948   5.099   0.841  13.018  2.2024 -0.4790 -0.6023
 3845TIP3   OH232949   0.312   4.019  14.048  0.3621  0.3875 -0.1476
 3845TIP3    H132950   0.271   4.104  14.064  1.4645  0.9408 -0.2334
 3845TIP3    H232951   0.392   4.020  14.100  1.9903  0.6550 -2.5798
 3846TIP3   OH232952   3.928   2.388   2.193  0.0045  0.1707 -0.3218
 3846TIP3    H132953   4.019   2.393   2.164 -0.0981 -1.1024 -0.8795
 3846TIP3    H232954   3.882   2.454   2.140  0.6656  1.0947  0.2466
 3847TIP3   OH232955   0.808   2.820   4.345  0.4023  0.1460 -0.0312
 3847TIP3    H132956   0.898   2.855   4.340  0.3564  0.1238 -1.1607
 3847TIP3    H232957   0.807   2.769   4.426  1.7349 -0.7604 -0.5603
 3848TIP3   OH232958   6.163   6.324  15.476  0.0783 -0.2816  0.1336
 3848TIP3    H132959   6.242   6.286  15.438  0.0463 -1.0539  0.8294
 3848TIP3    H232960   6.177   6.321  15.571  0.2131  1.7420  0.2079
 3849TIP3   OH232961   3.854   5.675  13.009 -0.1576 -0.1591  0.1702
 3849TIP3    H132962   3.812   5.590  12.999 -1.6185  0.6062 -0.4065
 3849TIP3    H232963   3.789   5.738  12.977  1.4031  1.0688 -0.6473
 3850TIP3   OH232964   1.465   1.477   2.198 -0.7520  0.5253 -0.2993
 3850TIP3    H132965   1.504   1.421   2.130  0.5764  0.7364  0.2713
 3850TIP3    H232966   1.436   1.416   2.265  2.5214  0.5696  1.2630
 3851TIP3   OH232967   3.483   1.354  14.580  0.0826  0.6529  0.3085
 3851TIP3    H132968   3.445   1.275  14.541  0.4603  1.5148 -1.8891
 3851TIP3    H232969   3.554   1.321  14.635  0.2119 -0.5502 -0.5478
 3852TIP3   OH232970   0.145   3.638  16.800  0.4765  0.3356  0.4867
 3852TIP3    H132971   0.197   3.593  16.866  1.7729  1.3532  0.1629
 3852TIP3    H232972   0.199   3.711  16.771  0.1973 -0.4284 -2.1526
 3853TIP3   OH232973   6.606   3.688   4.370 -0.1788 -0.6408 -0.5086
 3853TIP3    H132974   6.643   3.655   4.288  1.7510 -0.0004  0.0678
 3853TIP3    H232975   6.643   3.631   4.438 -2.1935 -1.5054 -0.1230
 3854TIP3   OH232976   3.626   1.681   4.138  0.2094  0.3228 -0.5922
 3854TIP3    H132977   3.668   1.607   4.183  1.0285  1.0068 -0.2176
 3854TIP3    H232978   3.661   1.758   4.182 -1.6324  0.9105 -0.1340
 3855TIP3   OH232979   1.535   2.505  15.478  0.1513 -0.1553 -1.1093
 3855TIP3    H132980   1.511   2.434  15.537  1.0376 -1.3818 -2.2041
 3855TIP3    H232981   1.625   2.485  15.452 -0.0795  0.6126 -2.5320
 3856TIP3   OH232982   5.751   3.709   1.676 -0.0680 -0.1286  0.1515
 3856TIP3    H132983   5.672   3.696   1.729  1.0393 -3.2781  1.1785
 3856TIP3    H232984   5.821   3.724   1.740  0.7073 -0.7076 -0.5432
 3857TIP3   OH232985   6.514   6.366  15.183  0.4421  0.0388 -0.2443
 3857TIP3    H132986   6.521   6.454  15.146  0.4970  0.3771  0.5563
 3857TIP3    H232987   6.477   6.313  15.113 -0.8129  0.9931 -0.3189
 3858TIP3   OH232988   1.287   0.903  11.909 -0.0813 -0.1821 -0.6086
 3858TIP3    H132989   1.237   0.973  11.866 -0.4533 -1.1045 -1.6827
 3858TIP3    H232990   1.225   0.831  11.918 -0.3801  0.4184  2.6472
 3859TIP3   OH232991   2.215   5.960  15.609  0.5303  0.2570  0.7911
 3859TIP3    H132992   2.145   5.893  15.610  0.9193 -0.2264 -1.1505
 3859TIP3    H232993   2.279   5.925  15.547  2.1135  1.0960  1.9533
 3860TIP3   OH232994   1.336   5.345  11.896 -0.0941  0.2557  0.6774
 3860TIP3    H132995   1.375   5.257  11.897 -0.1470  0.2061 -0.4237
 3860TIP3    H232996   1.402   5.399  11.851 -1.8010 -0.0842 -2.3392
 3861TIP3   OH232997   4.342   2.385  16.157  0.0072 -0.3355  0.1811
 3861TIP3    H132998   4.301   2.310  16.201 -0.2731 -0.8366 -0.9068
 3861TIP3    H232999   4.280   2.457  16.169  0.5184 -0.1252  1.6861
 3862TIP3   OH233000   4.271   6.205  15.767 -0.5724 -0.3465  0.3828
 3862TIP3    H133001   4.251   6.298  15.778  2.6597  0.4749 -0.1478
 3862TIP3    H233002   4.251   6.188  15.675  0.4643  0.3083  0.0177
 3863TIP3   OH233003   6.644   2.451   3.909 -0.1338  0.5121  0.1739
 3863TIP3    H133004   6.647   2.441   3.814 -0.5867  0.4950  0.1598
 3863TIP3    H233005   6.554   2.428   3.933  0.4714 -1.3523  0.8192
 3864TIP3   OH233006   0.770   0.264   2.164 -0.2887  0.3366  0.3622
 3864TIP3    H133007   0.830   0.241   2.234 -1.4937  0.1925  1.3628
 3864TIP3    H233008   0.757   0.182   2.116 -1.0485 -0.0344  1.1976
 3865TIP3   OH233009   6.515   4.078   3.351  0.2352  0.2519 -0.2946
 3865TIP3    H133010   6.465   4.138   3.407  0.6836  1.4133 -1.1134
 3865TIP3    H233011   6.572   4.030   3.411 -1.1872 -0.4276  0.5465
 3866TIP3   OH233012   0.414   3.482  11.429  0.1395  0.1553  0.1486
 3866TIP3    H133013   0.365   3.554  11.470  1.7774  1.6635 -0.4954
 3866TIP3    H233014   0.368   3.466  11.347  0.1470  0.8709  0.0083
 3867TIP3   OH233015   6.308   3.179   1.260  0.1384 -0.0465 -0.0765
 3867TIP3    H133016   6.364   3.183   1.338  1.4568 -0.1572 -1.0016
 3867TIP3    H233017   6.355   3.230   1.194  0.4572 -2.2948 -1.6563
 3868TIP3   OH233018   3.860   3.802  16.887  0.4438 -0.4000  0.3822
 3868TIP3    H133019   3.897   3.889  16.873 -1.1594  0.2492  0.0532
 3868TIP3    H233020   3.933   3.742  16.872  0.8203  0.7181 -2.4535
 3869TIP3   OH233021   3.831   5.587  17.172 -0.3996 -1.0871  0.1535
 3869TIP3    H133022   3.831   5.594  17.267  0.7260 -0.8975  0.1430
 3869TIP3    H233023   3.894   5.518  17.153  1.3354  0.6629 -0.5669
 3870TIP3   OH233024   4.424   6.609  13.278  0.0995 -0.6320 -0.5062
 3870TIP3    H133025   4.377   6.670  13.220  1.3525 -1.8173 -2.8427
 3870TIP3    H233026   4.434   6.530  13.225  1.1572 -1.7958  1.4222
 3871TIP3   OH233027   5.794   0.110   2.115 -0.0355 -0.0188 -0.0662
 3871TIP3    H133028   5.767   0.192   2.157 -0.9018  0.3720 -1.3460
 3871TIP3    H233029   5.834   0.059   2.185  0.0624  1.3020  0.8519
 3872TIP3   OH233030   6.608   5.196  16.569 -0.6395 -0.3067  0.2638
 3872TIP3    H133031   6.695   5.231  16.588 -0.9272  0.3925  0.2992
 3872TIP3    H233032   6.614   5.104  16.592 -0.0486 -0.1543  0.7288
 3873TIP3   OH233033   1.979   6.020   1.920 -0.6410  0.5665 -0.3852
 3873TIP3    H133034   1.984   6.050   2.011  1.8064 -0.0494 -0.2884
 3873TIP3    H233035   2.018   5.933   1.921 -0.4835  0.6037 -2.0474
 3874TIP3   OH233036   6.194   2.223   2.299 -0.5398  0.3266  0.1214
 3874TIP3    H133037   6.167   2.184   2.382 -0.4967 -2.4142 -1.1093
 3874TIP3    H233038   6.254   2.293   2.324 -0.8931 -0.1540  2.4135
 3875TIP3   OH233039   0.393   4.970  16.831 -0.2669 -0.0903  0.2278
 3875TIP3    H133040   0.426   4.994  16.744  0.5709  2.4143  1.1682
 3875TIP3    H233041   0.426   4.881  16.846  0.6512 -0.0561 -1.4944
 3876TIP3   OH233042   6.244   2.346  14.885 -0.2786 -0.1609  0.1548
 3876TIP3    H133043   6.250   2.403  14.962 -0.1409 -0.2551  0.2129
 3876TIP3    H233044   6.230   2.259  14.922  0.2346 -0.2712  0.0836
 3877TIP3   OH233045   3.411   5.516   2.404 -0.3025  0.4520  0.5256
 3877TIP3    H133046   3.434   5.541   2.493  1.4153  1.8162 -0.2568
 3877TIP3    H233047   3.494   5.519   2.356 -0.9357 -1.7280 -0.7934
 3878TIP3   OH233048   2.843   4.700  11.261 -0.1500  0.0248 -0.3512
 3878TIP3    H133049   2.822   4.651  11.182  2.5973 -1.4858 -0.2129
 3878TIP3    H233050   2.870   4.786  11.229 -0.7502  0.0005 -0.9254
 3879TIP3   OH233051   2.533   0.317  13.253 -0.1177 -0.2975 -0.1480
 3879TIP3    H133052   2.560   0.244  13.197  1.1849 -0.1035  0.2043
 3879TIP3    H233053   2.466   0.280  13.309 -0.3835 -0.8862 -0.8452
 3880TIP3   OH233054   0.911   6.715  16.977  0.2516 -0.0794  0.3651
 3880TIP3    H133055   0.873   6.685  16.894  3.1662 -0.9825 -0.7044
 3880TIP3    H233056   0.949   6.636  17.016 -0.2925  0.5052  2.1546
 3881TIP3   OH233057   0.423   4.151   5.680 -0.2901  0.2688  0.5027
 3881TIP3    H133058   0.500   4.139   5.735  1.6299  1.5948 -1.7827
 3881TIP3    H233059   0.365   4.207   5.731  0.5832 -0.1750  1.9842
 3882TIP3   OH233060   3.303   0.368  10.742  0.3954 -0.0287 -0.8315
 3882TIP3    H133061   3.330   0.332  10.658  1.0016  0.6027 -0.9056
 3882TIP3    H233062   3.382   0.365  10.797 -0.0889 -0.7955 -0.1604
 3883TIP3   OH233063   4.555   3.491   2.182 -0.1391  0.0151 -0.5829
 3883TIP3    H133064   4.607   3.570   2.199 -0.7252  0.2647  0.0934
 3883TIP3    H233065   4.467   3.513   2.213  0.0266 -1.4175  0.9728
 3884TIP3   OH233066   5.078   5.902  11.656  0.6122  0.4498 -0.3626
 3884TIP3    H133067   5.017   5.879  11.727  2.6236 -1.2928  0.8307
 3884TIP3    H233068   5.068   5.832  11.592  1.9610 -0.3106  0.2380
 3885TIP3   OH233069   4.395   1.152   6.314 -0.3957 -0.4519  0.0226
 3885TIP3    H133070   4.480   1.110   6.297 -1.2170 -1.1439 -2.5082
 3885TIP3    H233071   4.332   1.080   6.312 -1.1109  0.0956  1.6491
 3886TIP3   OH233072   3.849   3.796   3.312  0.8413 -0.2338 -0.1731
 3886TIP3    H133073   3.858   3.700   3.309  0.2244 -0.2685 -1.1206
 3886TIP3    H233074   3.865   3.819   3.404 -2.1601 -1.5606  0.7354
 3887TIP3   OH233075   5.810   0.629  12.111 -0.4265  0.6184  0.6351
 3887TIP3    H133076   5.813   0.636  12.207 -2.6709  2.1031  0.6139
 3887TIP3    H233077   5.862   0.550  12.092  3.9594  2.8328  2.6917
 3888TIP3   OH233078   0.409   0.115   6.151  0.0471  0.2688 -0.5679
 3888TIP3    H133079   0.326   0.069   6.162 -1.0465  3.0016  3.8751
 3888TIP3    H233080   0.474   0.054   6.186 -0.8226  0.1840  0.9790
 3889TIP3   OH233081   2.156   5.463   3.442 -0.2173  0.1748 -0.3538
 3889TIP3    H133082   2.240   5.508   3.435 -0.3524  0.4080 -0.4396
 3889TIP3    H233083   2.118   5.467   3.355 -0.2819 -0.0046 -0.3357
 3890TIP3   OH233084   2.658   0.821   4.888  0.3519  0.2323  0.1505
 3890TIP3    H133085   2.726   0.887   4.873  1.4532 -0.3356  2.3191
 3890TIP3    H233086   2.704   0.751   4.935 -1.2327 -1.2041 -0.4061
 3891TIP3   OH233087   3.592   1.279  15.545 -0.1075 -0.6763 -0.3257
 3891TIP3    H133088   3.667   1.317  15.591  0.1422 -1.3722 -0.1481
 3891TIP3    H233089   3.523   1.345  15.551  0.0510 -0.6019  0.7198
 3892TIP3   OH233090   0.960   5.191   3.329 -0.0763  0.2636  0.5068
 3892TIP3    H133091   1.049   5.174   3.297  0.5521  1.3146  1.6612
 3892TIP3    H233092   0.954   5.139   3.409  0.1842  1.7167  1.4775
 3893TIP3   OH233093   0.898   0.633  11.727 -0.6095  0.2675  0.0056
 3893TIP3    H133094   0.908   0.560  11.788 -0.2878 -0.2615 -0.6762
 3893TIP3    H233095   0.804   0.653  11.729 -0.5605  0.4181  0.8640
 3894TIP3   OH233096   3.603   0.299   2.594 -0.4269  0.2145  0.4605
 3894TIP3    H133097   3.608   0.293   2.689 -0.4640 -0.4237  0.4209
 3894TIP3    H233098   3.530   0.359   2.578  0.9227  1.9880  0.8664
 3895TIP3   OH233099   5.736   1.812   1.171 -0.4377  0.2270  0.0035
 3895TIP3    H133100   5.828   1.832   1.154 -0.2489 -0.8961 -0.3057
 3895TIP3    H233101   5.738   1.740   1.234 -1.1080  0.7586  0.6357
 3896TIP3   OH233102   5.194   2.258   2.280 -0.0227  0.4746 -0.6629
 3896TIP3    H133103   5.197   2.354   2.280 -2.8568  0.5920 -0.2077
 3896TIP3    H233104   5.153   2.235   2.197 -0.4866 -0.2968 -0.2217
 3897TIP3   OH233105   4.864   2.076  16.106  0.4576  0.3566 -0.0016
 3897TIP3    H133106   4.856   2.171  16.100  0.6482  0.4277  0.8664
 3897TIP3    H233107   4.911   2.051  16.026 -0.7852  0.8397 -0.8989
 3898TIP3   OH233108   2.685   3.386  12.667 -0.0664 -0.0737 -0.2806
 3898TIP3    H133109   2.773   3.401  12.635  0.5558 -0.2081  1.3137
 3898TIP3    H233110   2.694   3.385  12.762 -1.6723 -0.7674 -0.1194
 3899TIP3   OH233111   0.790   5.809  16.492  0.2000  0.3401 -0.2265
 3899TIP3    H133112   0.752   5.845  16.412  0.9578  1.9068  0.0913
 3899TIP3    H233113   0.806   5.886  16.547  0.4111 -0.6483  1.1136
 3900TIP3   OH233114   3.521   3.457  10.774  0.2035  0.0015 -0.3857
 3900TIP3    H133115   3.561   3.424  10.854 -4.4571 -2.3961  1.1517
 3900TIP3    H233116   3.504   3.379  10.721  1.3254  1.3635 -2.8457
 3901TIP3   OH233117   2.010   4.758  12.913  0.6049 -0.0955  0.0522
 3901TIP3    H133118   1.938   4.711  12.870  1.0951 -0.4103 -0.4444
 3901TIP3    H233119   1.982   4.770  13.003 -0.6252  0.9335 -0.4659
 3902TIP3   OH233120   3.203   6.249   1.608 -0.2143 -0.3412 -0.0609
 3902TIP3    H133121   3.141   6.287   1.670  0.7937 -0.2315  0.8904
 3902TIP3    H233122   3.221   6.162   1.642 -1.7976 -1.3552 -1.7296
 3903TIP3   OH233123   3.344   5.427  12.872 -0.3484  0.5128  0.6374
 3903TIP3    H133124   3.426   5.423  12.823 -2.1442 -0.1382 -2.4314
 3903TIP3    H233125   3.295   5.349  12.845 -1.4464  0.1579  3.4448
 3904TIP3   OH233126   3.931   0.972   5.507 -0.3058  0.7696  0.2888
 3904TIP3    H133127   4.012   0.924   5.520 -0.1489  0.9529 -0.0081
 3904TIP3    H233128   3.952   1.062   5.532 -0.8578  0.5103  1.7651
 3905TIP3   OH233129   4.502   5.312  10.913 -0.1446 -0.2425 -0.1962
 3905TIP3    H133130   4.460   5.308  10.827  2.7129  0.5550 -1.7059
 3905TIP3    H233131   4.486   5.401  10.944 -2.8018 -1.0991  1.0069
 3906TIP3   OH233132   2.715   6.604   5.427 -0.2249 -0.0673  0.9029
 3906TIP3    H133133   2.700   6.563   5.343  0.3473  3.3249 -0.9608
 3906TIP3    H233134   2.790   6.558   5.464  1.1412  0.0595 -1.6168
 3907TIP3   OH233135   0.981   6.176  15.230 -0.3870 -0.8722 -0.0427
 3907TIP3    H133136   0.892   6.154  15.259 -0.5220 -0.8737 -0.4604
 3907TIP3    H233137   0.972   6.262  15.189 -0.3450 -1.2430 -0.8331
 3908TIP3   OH233138   3.978   5.236   2.971 -0.4595 -0.2534 -0.4464
 3908TIP3    H133139   4.001   5.143   2.970 -0.2510 -0.2255  0.9814
 3908TIP3    H233140   3.890   5.240   3.008 -0.4637  0.1150 -0.4869
 3909TIP3   OH233141   1.913   1.533   3.257  0.6999  0.3215  0.0692
 3909TIP3    H133142   1.883   1.616   3.294  1.1449  1.0522 -1.1671
 3909TIP3    H233143   1.952   1.557   3.173  0.2374 -1.2195 -0.6092
 3910TIP3   OH233144   0.478   4.759  16.579  0.4354  0.3509  0.4166
 3910TIP3    H133145   0.450   4.742  16.669  0.3834 -0.2002  0.2969
 3910TIP3    H233146   0.398   4.783  16.533  0.3765  0.1136  0.3949
 3911TIP3   OH233147   1.184   1.238   2.832 -0.4050  0.5030 -0.3024
 3911TIP3    H133148   1.159   1.283   2.913  2.1140  0.9583  0.2670
 3911TIP3    H233149   1.137   1.285   2.763 -0.7658  1.5874  0.6603
 3912TIP3   OH233150   1.278   0.477   4.223 -0.7447  0.2673  0.4494
 3912TIP3    H133151   1.359   0.528   4.231  0.0704 -0.5116 -2.3058
 3912TIP3    H233152   1.255   0.455   4.314  0.9493  2.2980  1.4256
 3913TIP3   OH233153   0.660   1.170  16.705 -0.5346 -0.0004  0.0767
 3913TIP3    H133154   0.607   1.091  16.700  2.2706 -2.0904  1.9475
 3913TIP3    H233155   0.682   1.178  16.798  0.4837  2.1436 -0.3128
 3914TIP3   OH233156   4.333   0.580   5.808 -0.0437  0.1531 -0.3706
 3914TIP3    H133157   4.340   0.558   5.716 -2.7653 -0.1917 -0.5329
 3914TIP3    H233158   4.279   0.660   5.810 -1.2674 -0.6724  0.9777
 3915TIP3   OH233159   6.607   2.824   0.122  0.0447 -0.5080  0.0929
 3915TIP3    H133160   6.532   2.882   0.135 -0.8952 -1.5658 -0.5317
 3915TIP3    H233161   6.668   2.875   0.068  0.7738  1.1793  2.4104
 3916TIP3   OH233162   2.796   2.514  16.252  0.1207  1.2007  0.1392
 3916TIP3    H133163   2.838   2.455  16.189  0.9362  0.6006  1.2345
 3916TIP3    H233164   2.816   2.477  16.338 -1.6569  1.5633  0.7425
 3917TIP3   OH233165   0.087   2.357  13.576 -0.0002 -0.1685  0.5935
 3917TIP3    H133166   0.147   2.295  13.619  0.5481 -1.6611 -2.2203
 3917TIP3    H233167   0.109   2.351  13.483 -2.0062  2.0627 -0.0717
 3918TIP3   OH233168   4.051   5.226  16.196 -0.4883 -0.1659 -0.2781
 3918TIP3    H133169   3.960   5.205  16.174 -0.4936 -1.5320  0.9463
 3918TIP3    H233170   4.099   5.214  16.114 -1.8060  3.2981 -1.6446
 3919TIP3   OH233171   0.028   5.294  16.105  0.5579  0.5475  0.3971
 3919TIP3    H133172   0.107   5.283  16.052  0.1218 -0.9602  0.0443
 3919TIP3    H233173   0.047   5.248  16.187 -0.7280 -1.6895 -0.5132
 3920TIP3   OH233174   1.050   1.946  15.975 -0.3870 -0.0740  0.4128
 3920TIP3    H133175   1.064   1.911  16.063  1.9138 -1.1231 -0.3261
 3920TIP3    H233176   1.076   2.038  15.981 -1.0944  0.0815  1.0515
 3921TIP3   OH233177   0.536   1.059   5.495 -0.2577 -0.0147 -0.2667
 3921TIP3    H133178   0.536   1.137   5.551 -0.0543  1.4715 -2.2891
 3921TIP3    H233179   0.476   1.080   5.424 -2.9582 -3.0826  0.9244
 3922TIP3   OH233180   4.218   5.676  16.129  0.1416  0.2571 -0.4141
 3922TIP3    H133181   4.235   5.645  16.040 -0.2661  0.1430 -0.4552
 3922TIP3    H233182   4.281   5.747  16.143  0.1640  0.3153 -0.8165
 3923TIP3   OH233183   0.678   5.149  11.962 -0.2454 -0.0231  0.8046
 3923TIP3    H133184   0.680   5.086  11.891  0.9624  1.0693 -0.1490
 3923TIP3    H233185   0.720   5.105  12.036  0.0001 -0.5629  0.3394
 3924TIP3   OH233186   2.134   4.769  11.368  0.1415 -0.3319  0.0709
 3924TIP3    H133187   2.214   4.782  11.317  1.1787 -2.4063  1.1281
 3924TIP3    H233188   2.161   4.782  11.459 -0.3229 -2.5683  0.5696
 3925TIP3   OH233189   3.965   6.067   6.080  0.7045 -0.0779 -0.0208
 3925TIP3    H133190   4.060   6.079   6.083  0.8115 -0.3350 -1.6426
 3925TIP3    H233191   3.953   5.980   6.042 -0.1765  1.5692 -3.7868
 3926TIP3   OH233192   1.687   0.041   2.118  0.3394 -0.0530 -0.3367
 3926TIP3    H133193   1.757   0.056   2.055 -1.5164  0.5308 -2.3471
 3926TIP3    H233194   1.666   0.127   2.152 -2.0794  0.3916 -2.7729
 3927TIP3   OH233195   4.010   1.065  14.070 -0.0901 -0.3748 -0.3935
 3927TIP3    H133196   3.919   1.095  14.065  0.1021  0.8218  2.1015
 3927TIP3    H233197   4.057   1.124  14.011 -0.4663  1.2039  0.8182
 3928TIP3   OH233198   6.428   4.140  11.230 -0.1788  0.1569 -0.1767
 3928TIP3    H133199   6.389   4.191  11.159 -0.2215  0.1597 -0.1510
 3928TIP3    H233200   6.354   4.104  11.279 -0.1576  1.2498  0.6623
 3929TIP3   OH233201   5.414   2.842   4.200  0.1226  0.5501 -0.5980
 3929TIP3    H133202   5.379   2.899   4.269  1.3121  1.6703 -0.8957
 3929TIP3    H233203   5.425   2.900   4.125  1.3936 -0.0673 -0.9002
 3930TIP3   OH233204   0.947   4.784  11.293 -0.0215 -0.3789 -0.1047
 3930TIP3    H133205   0.901   4.721  11.348  2.5172 -2.0068  0.1969
 3930TIP3    H233206   0.879   4.820  11.236 -1.8707 -1.8573  1.1253
 3931TIP3   OH233207   5.616   4.591   1.556 -0.2022  0.6343  0.3538
 3931TIP3    H133208   5.560   4.627   1.624 -0.2115 -2.8297  2.2972
 3931TIP3    H233209   5.557   4.573   1.483 -1.1067 -0.2797  1.3071
 3932TIP3   OH233210   5.417   1.456   4.187  0.6127  0.2199 -0.9666
 3932TIP3    H133211   5.459   1.540   4.203 -0.2596  0.6940 -1.1528
 3932TIP3    H233212   5.376   1.466   4.101 -0.6947  0.0978 -0.3723
 3933TIP3   OH233213   4.020   4.335  11.951  0.3962  0.1293 -0.2283
 3933TIP3    H133214   3.926   4.315  11.948  0.9291 -2.3392 -2.2915
 3933TIP3    H233215   4.060   4.254  11.985  1.9179  0.6199 -0.8178
 3934TIP3   OH233216   5.511   2.273   6.541 -0.1640  0.6179  0.7783
 3934TIP3    H133217   5.603   2.292   6.556  0.7635 -0.6795 -2.7412
 3934TIP3    H233218   5.495   2.190   6.586  0.4867  0.6370  1.0393
 3935TIP3   OH233219   6.727   5.404   0.455  0.6710  1.0169 -0.2419
 3935TIP3    H133220   6.746   5.344   0.526  0.5155  1.9127  0.5668
 3935TIP3    H233221   6.680   5.351   0.390  2.0889 -0.1539 -0.3357
 3936TIP3   OH233222   4.334   6.696  14.760 -0.0676 -0.0188  0.1944
 3936TIP3    H133223   4.421   6.681  14.796 -1.1885  0.1254  3.0918
 3936TIP3    H233224   4.333   6.788  14.734  0.3699  0.2097  0.9812
 3937TIP3   OH233225   5.362   3.560   4.854 -0.3819  0.2123 -0.4625
 3937TIP3    H133226   5.277   3.577   4.813  0.8423  2.6238 -2.1513
 3937TIP3    H233227   5.406   3.645   4.853  2.1648 -1.0597  0.0834
 3938TIP3   OH233228   5.842   6.667  12.378  0.5568  0.0742 -0.1015
 3938TIP3    H133229   5.758   6.712  12.381  0.5025 -0.0368  0.0348
 3938TIP3    H233230   5.907   6.735  12.399  0.1496 -0.8701  4.7468
 3939TIP3   OH233231   2.316   0.842  10.999 -0.2813  0.4610  0.2114
 3939TIP3    H133232   2.240   0.889  10.965 -0.5928 -0.0684  0.1569
 3939TIP3    H233233   2.370   0.827  10.921 -1.8008 -2.2389 -0.3933
 3940TIP3   OH233234   4.825   5.527  14.730 -0.3783 -0.4383 -0.4932
 3940TIP3    H133235   4.785   5.533  14.643  0.7021  1.6850 -0.8777
 3940TIP3    H233236   4.773   5.588  14.783  0.1256 -0.3506 -0.1074
 3941TIP3   OH233237   0.692   1.634   5.439 -0.0630 -0.3409 -0.3100
 3941TIP3    H133238   0.608   1.638   5.393 -0.5915  1.4449  0.7616
 3941TIP3    H233239   0.672   1.592   5.523  0.1652 -0.2499 -0.2078
 3942TIP3   OH233240   0.387   0.688  13.513  0.2110  0.3514 -0.4285
 3942TIP3    H133241   0.306   0.690  13.564  0.6563 -0.7818  0.3366
 3942TIP3    H233242   0.358   0.678  13.423 -0.5752  2.0678 -0.3964
 3943TIP3   OH233243   2.064   2.268   2.685 -1.0834 -0.5927  0.4335
 3943TIP3    H133244   2.075   2.331   2.755 -3.2917 -0.6034  0.8380
 3943TIP3    H233245   2.088   2.184   2.724  1.3506 -0.1049  0.0451
 3944TIP3   OH233246   4.922   4.157   0.429 -0.3749 -0.1560  0.1797
 3944TIP3    H133247   4.961   4.079   0.389 -0.3409  0.5088 -1.1150
 3944TIP3    H233248   4.838   4.167   0.384 -0.7782  0.0496  0.9689
 3945TIP3   OH233249   0.119   4.500   4.079  1.0035  0.0065  1.1556
 3945TIP3    H133250   0.113   4.595   4.066 -1.3742 -0.2088  0.3670
 3945TIP3    H233251   0.063   4.483   4.155 -1.7035 -1.1812 -1.0295
 3946TIP3   OH233252   0.045   5.849  12.246 -0.2445  0.4673  0.1992
 3946TIP3    H133253   0.079   5.931  12.213 -1.7130  1.1996  0.4497
 3946TIP3    H233254   0.095   5.831  12.325  0.3446  0.9220 -0.0727
 3947TIP3   OH233255   6.434   0.859   5.110  0.8195  0.2996 -0.1063
 3947TIP3    H133256   6.490   0.805   5.053  1.8833  0.5981  0.6294
 3947TIP3    H233257   6.413   0.936   5.057  1.9767  0.6748 -0.0542
 3948TIP3   OH233258   4.083   2.691   2.578  0.4130 -0.4675 -0.1322
 3948TIP3    H133259   4.106   2.661   2.666  0.7628  3.2953  1.1743
 3948TIP3    H233260   3.993   2.723   2.586  0.8510  0.9652 -0.8441
 3949TIP3   OH233261   6.222   5.219  14.456 -0.1044 -0.8180 -0.0187
 3949TIP3    H133262   6.237   5.175  14.372 -1.0613  1.2408 -1.3030
 3949TIP3    H233263   6.293   5.188  14.512  1.9952 -0.3294 -2.3371
 3950TIP3   OH233264   4.664   3.718   1.924  0.0889  0.2369 -0.0162
 3950TIP3    H133265   4.662   3.626   1.898  1.1981  0.6654 -1.7582
 3950TIP3    H233266   4.754   3.732   1.954 -0.2911  0.5595  0.9770
 3951TIP3   OH233267   5.426   5.826  12.714 -0.1361  0.3413 -0.3234
 3951TIP3    H133268   5.503   5.825  12.770 -0.8757  0.1041  0.6899
 3951TIP3    H233269   5.440   5.902  12.656  0.9157  0.2163 -0.2420
 3952TIP3   OH233270   3.542   1.469  14.331  0.1454  0.0478  0.4507
 3952TIP3    H133271   3.551   1.421  14.414  1.4511  1.4627  1.1603
 3952TIP3    H233272   3.521   1.559  14.358  1.6815  0.7721 -0.6921
 3953TIP3   OH233273   4.069   3.546   5.154  0.7996  0.1345 -0.4480
 3953TIP3    H133274   4.089   3.518   5.065  0.8512 -2.4627  0.3403
 3953TIP3    H233275   4.076   3.466   5.206 -1.5017  1.1647  1.5159
 3954TIP3   OH233276   6.587   1.477   2.208 -0.9996 -0.1029  0.3443
 3954TIP3    H133277   6.657   1.487   2.273 -1.9608  0.2499  1.3313
 3954TIP3    H233278   6.526   1.548   2.227 -1.0441  0.3119 -1.2771
 3955TIP3   OH233279   1.785   3.983   2.322  0.0855  0.8458  0.3754
 3955TIP3    H133280   1.800   3.897   2.362  1.7679  0.9200 -0.0285
 3955TIP3    H233281   1.717   4.023   2.375 -0.4002 -0.5619  0.8459
 3956TIP3   OH233282   2.655   0.326  16.083  0.2058 -0.3655  0.6279
 3956TIP3    H133283   2.560   0.312  16.086  0.2041 -0.1586  2.2303
 3956TIP3    H233284   2.693   0.239  16.086  0.0570 -0.5574 -2.1791
 3957TIP3   OH233285   1.959   1.168   1.891  0.2439  0.0646 -0.8023
 3957TIP3    H133286   1.878   1.195   1.847  0.7633  0.4843 -1.5182
 3957TIP3    H233287   1.998   1.104   1.831 -0.0499 -0.9033  0.0128
 3958TIP3   OH233288   5.563   5.767   1.032 -0.1526 -0.0321  0.5360
 3958TIP3    H133289   5.480   5.758   0.986 -0.7102 -1.0478  1.6978
 3958TIP3    H233290   5.629   5.746   0.966 -0.8893 -0.6031 -0.0354
 3959TIP3   OH233291   6.031   5.215  16.815 -0.0583 -1.0166  0.6882
 3959TIP3    H133292   6.021   5.121  16.829  1.5305 -0.9759  2.2089
 3959TIP3    H233293   5.950   5.253  16.849 -1.3983 -1.9236 -1.3614
 3960TIP3   OH233294   4.860   6.278  16.978 -0.2215 -0.5092  0.3576
 3960TIP3    H133295   4.809   6.305  16.901 -0.9244  0.6307  1.2212
 3960TIP3    H233296   4.844   6.346  17.043  2.4665 -0.0921  0.6405
 3961TIP3   OH233297   2.301   5.935  12.714  0.4070 -0.0840 -0.0807
 3961TIP3    H133298   2.319   5.996  12.786  1.0231  0.5781 -0.8009
 3961TIP3    H233299   2.224   5.972  12.671 -1.2283 -1.5656  1.4541
 3962TIP3   OH233300   1.242   3.709   3.602 -0.7568 -0.1863  0.3818
 3962TIP3    H133301   1.223   3.747   3.688  0.2738 -0.2414  0.6395
 3962TIP3    H233302   1.170   3.648   3.586 -1.1600  0.1134  1.0279
 3963TIP3   OH233303   1.436   1.310  16.915 -0.2272  0.0926  0.5163
 3963TIP3    H133304   1.452   1.217  16.930 -0.7973  0.0530  0.8736
 3963TIP3    H233305   1.476   1.353  16.991  0.2031  0.1600  0.2563
 3964TIP3   OH233306   2.133   0.928   4.720 -0.2847  0.1793  0.1385
 3964TIP3    H133307   2.079   0.866   4.670 -0.3218  1.0221 -0.8627
 3964TIP3    H233308   2.141   0.887   4.807 -0.6156 -1.0525 -0.3984
 3965TIP3   OH233309   4.076   1.181   4.003  0.5253  0.2672  0.2007
 3965TIP3    H133310   4.052   1.094   3.972  0.6232  0.1519  0.4471
 3965TIP3    H233311   4.023   1.241   3.950  0.2506  0.0469  0.2283
 3966TIP3   OH233312   0.225   3.000  13.144 -0.0376 -0.2087  0.2724
 3966TIP3    H133313   0.150   3.008  13.086  0.5168  1.2858 -0.2710
 3966TIP3    H233314   0.217   3.075  13.204 -1.0846 -2.1965  2.7281
 3967TIP3   OH233315   2.782   3.852   4.274  0.4468 -0.0605  0.1683
 3967TIP3    H133316   2.781   3.947   4.265 -1.5340 -0.2091 -1.5398
 3967TIP3    H233317   2.757   3.836   4.365  0.0528  1.0315  0.2557
 3968TIP3   OH233318   2.973   3.176  12.999  0.0811 -0.8220 -0.2250
 3968TIP3    H133319   3.010   3.092  13.025  1.7244  0.0156  0.2419
 3968TIP3    H233320   3.048   3.224  12.962 -0.7136  0.6438  0.0442
 3969TIP3   OH233321   2.354   0.739  15.923 -0.0496 -0.4032 -0.0197
 3969TIP3    H133322   2.441   0.698  15.927 -0.3948 -1.2646 -1.1908
 3969TIP3    H233323   2.293   0.666  15.916 -0.7046  0.2686 -1.6920
 3970TIP3   OH233324   4.920   0.622   0.635  0.3842  0.1469 -0.6033
 3970TIP3    H133325   4.826   0.622   0.655  0.8700  0.6726  1.8435
 3970TIP3    H233326   4.935   0.709   0.597 -0.0955  0.0886 -0.9415
 3971TIP3   OH233327   1.547   4.453   0.467  0.1080  0.2347 -0.0568
 3971TIP3    H133328   1.473   4.456   0.527 -0.9784  1.0069 -1.4057
 3971TIP3    H233329   1.532   4.375   0.413  1.5958 -1.0143  1.3102
 3972TIP3   OH233330   1.593   3.715   2.236 -0.1587 -0.1087  0.4101
 3972TIP3    H133331   1.653   3.778   2.196  1.6060 -1.3747  0.9945
 3972TIP3    H233332   1.629   3.629   2.212 -1.9700 -0.8892  0.4317
 3973TIP3   OH233333   0.936   2.579   3.664  0.0536  0.5279  0.2849
 3973TIP3    H133334   0.946   2.484   3.671  1.9781  0.5431 -1.4697
 3973TIP3    H233335   0.897   2.592   3.577 -1.5652  1.2999  1.1004
 3974TIP3   OH233336   1.126   2.324   4.614  0.1346  0.0316 -0.0574
 3974TIP3    H133337   1.177   2.358   4.688  0.7957 -0.1061 -0.4444
 3974TIP3    H233338   1.190   2.274   4.562  0.0587  1.4720 -1.5934
 3975TIP3   OH233339   4.596   2.165  11.292 -0.4071 -0.3709 -0.1927
 3975TIP3    H133340   4.622   2.171  11.384 -2.4556 -0.1080  0.3969
 3975TIP3    H233341   4.664   2.112  11.251  1.6415  1.2220  1.0355
 3976TIP3   OH233342   6.247   5.683  13.074  0.2255  0.0644  0.0617
 3976TIP3    H133343   6.273   5.631  12.998 -0.5341 -0.6658  0.2943
 3976TIP3    H233344   6.239   5.772  13.041  1.3789  0.0132 -0.3777
 3977TIP3   OH233345   1.858   5.897   6.124 -0.0555  0.0271  0.2588
 3977TIP3    H133346   1.910   5.825   6.161 -0.2994 -0.8380 -1.0859
 3977TIP3    H233347   1.767   5.872   6.141 -0.1287  0.2023  0.1208
 3978TIP3   OH233348   0.630   5.446  12.303 -0.1270  0.1483  0.3329
 3978TIP3    H133349   0.665   5.459  12.214 -0.1107 -0.9263  0.1681
 3978TIP3    H233350   0.622   5.351  12.311  0.6962  0.1905  1.8051
 3979TIP3   OH233351   3.349   4.185  15.471  0.1342 -0.0240  0.2322
 3979TIP3    H133352   3.274   4.237  15.443 -1.1277 -2.4215 -0.9760
 3979TIP3    H233353   3.356   4.202  15.565 -1.7696  0.4241  0.3149
 3980TIP3   OH233354   3.213   4.668   4.024  0.5294  0.2827  0.0282
 3980TIP3    H133355   3.211   4.614   4.103  0.6886  1.3193  0.7438
 3980TIP3    H233356   3.125   4.707   4.020 -0.5801 -2.2171 -2.0479
 3981TIP3   OH233357   5.143   5.290  13.302 -0.1254 -0.2302  0.3057
 3981TIP3    H133358   5.088   5.287  13.223  0.8632 -1.2670 -0.3594
 3981TIP3    H233359   5.116   5.370  13.347 -0.4659  0.5652 -1.2689
 3982TIP3   OH233360   3.921   0.273  15.819  0.1185  0.3885 -0.3905
 3982TIP3    H133361   3.988   0.206  15.806  2.2399  2.1839  0.8064
 3982TIP3    H233362   3.960   0.353  15.782 -1.2462  1.5409  0.5863
 3983TIP3   OH233363   5.779   6.325   5.641  0.3232  0.6627  0.1211
 3983TIP3    H133364   5.813   6.391   5.702 -0.2338  1.2523 -0.2078
 3983TIP3    H233365   5.685   6.340   5.638 -0.1035 -1.4308  1.5742
 3984TIP3   OH233366   4.870   5.925   3.384  0.6662  0.0312 -0.1755
 3984TIP3    H133367   4.964   5.943   3.387  0.6707 -0.1269  0.6544
 3984TIP3    H233368   4.836   5.956   3.468  0.1019 -0.6025 -0.1614
 3985TIP3   OH233369   5.441   5.054   2.245  0.0357 -0.4616  0.3020
 3985TIP3    H133370   5.514   5.108   2.213 -0.4641  0.2564  0.3655
 3985TIP3    H233371   5.475   5.012   2.324 -0.1634  1.1784  1.2722
 3986TIP3   OH233372   1.386   0.808  12.980  1.0800  0.4283  0.2951
 3986TIP3    H133373   1.364   0.864  12.905  1.4245 -0.6962 -0.6788
 3986TIP3    H233374   1.304   0.798  13.027  0.5634  0.1357 -0.6449
 3987TIP3   OH233375   4.546   4.805   1.200  0.1159 -0.6371 -0.4435
 3987TIP3    H133376   4.583   4.787   1.287 -0.2030  0.3676 -0.0881
 3987TIP3    H233377   4.469   4.748   1.195  0.5524 -1.2360 -0.3620
 3988TIP3   OH233378   1.641   2.995   1.542  0.6894 -0.3241  0.0167
 3988TIP3    H133379   1.552   3.028   1.551  1.2033  1.3436 -0.9633
 3988TIP3    H233380   1.653   2.983   1.448  1.5036 -0.5255  0.1413
 3989TIP3   OH233381   5.152   1.030  11.719  0.0517  0.2248 -0.7990
 3989TIP3    H133382   5.231   0.994  11.760  0.0596  0.6255 -0.4584
 3989TIP3    H233383   5.179   1.050  11.629  0.1779 -0.1630 -0.8512
 3990TIP3   OH233384   3.584   4.653  14.019  0.0098 -0.1062 -0.0212
 3990TIP3    H133385   3.538   4.661  14.102  0.1835  0.6877  0.0008
 3990TIP3    H233386   3.518   4.618  13.959 -0.6947  1.2177 -0.0375
 3991TIP3   OH233387   4.972   2.470   3.827 -0.2499 -0.2721  0.1052
 3991TIP3    H133388   4.951   2.544   3.884 -2.3263 -0.2705 -0.6154
 3991TIP3    H233389   4.926   2.396   3.866  2.3740 -1.3700  1.2117
 3992TIP3   OH233390   1.009   2.103  10.369  0.5729 -0.6813  0.5042
 3992TIP3    H133391   0.961   2.024  10.342  0.1931 -0.3604  0.2263
 3992TIP3    H233392   0.952   2.175  10.342  1.1829 -0.2961  0.2456
 3993TIP3   OH233393   1.038   0.754   1.996 -0.7011 -0.1459 -0.0929
 3993TIP3    H133394   1.120   0.801   2.004  0.3839 -1.3425 -3.3901
 3993TIP3    H233395   0.977   0.818   1.958 -1.3059  0.7007  2.2314
 3994TIP3   OH233396   1.614   6.078   2.543 -0.9044 -0.0011  0.2115
 3994TIP3    H133397   1.531   6.127   2.543 -2.0256 -1.8671 -0.3880
 3994TIP3    H233398   1.614   6.031   2.460  1.2619  0.7576 -0.2617
 3995TIP3   OH233399   0.682   5.313  13.411  0.0517  0.5079  0.5310
 3995TIP3    H133400   0.723   5.228  13.428  1.3554  1.0818  0.3010
 3995TIP3    H233401   0.727   5.373  13.471  0.3481  1.3575 -0.5196
 3996TIP3   OH233402   4.086   0.436  15.284 -0.1412 -0.0168  0.2469
 3996TIP3    H133403   4.008   0.380  15.289 -0.5778  0.0351 -4.1766
 3996TIP3    H233404   4.133   0.419  15.366 -2.9649 -2.7798  1.3880
 3997TIP3   OH233405   1.510   2.418   2.268  0.0846  0.1935  0.2760
 3997TIP3    H133406   1.604   2.434   2.269  0.2593 -0.7100 -1.0925
 3997TIP3    H233407   1.471   2.505   2.269  0.9407  0.5823  0.0350
 3998TIP3   OH233408   5.532   3.063   1.027  0.0381 -0.2705 -0.2794
 3998TIP3    H133409   5.625   3.080   1.043  0.7356 -2.2213 -2.0402
 3998TIP3    H233410   5.513   3.107   0.944 -0.4760 -0.3430 -0.2051
 3999TIP3   OH233411   3.764   4.023  11.802  0.0640 -0.0316  0.2518
 3999TIP3    H133412   3.695   3.971  11.843  1.1744 -1.6044  0.1628
 3999TIP3    H233413   3.829   3.959  11.773  0.7171  1.2843 -1.2910
 4000TIP3   OH233414   3.434   3.900  11.616 -0.7451  0.6124 -0.4827
 4000TIP3    H133415   3.445   3.863  11.528  0.8161  0.2342 -0.1453
 4000TIP3    H233416   3.409   3.991  11.601 -0.1701  0.6359 -1.3286
 4001TIP3   OH233417   5.850   2.418   6.354  0.1234  0.2051 -0.4231
 4001TIP3    H133418   5.773   2.467   6.326  0.3362  0.2231 -0.9802
 4001TIP3    H233419   5.859   2.349   6.289  0.6299  0.2586 -0.4081
 4002TIP3   OH233420   2.269   2.190  13.501 -0.3689 -0.3925 -0.2849
 4002TIP3    H133421   2.271   2.135  13.422  0.3018  1.5374 -1.6327
 4002TIP3    H233422   2.181   2.227  13.501  0.1066  0.7422 -0.9195
 4003TIP3   OH233423   5.151   0.299  16.053 -0.3464  0.1789  0.6992
 4003TIP3    H133424   5.175   0.365  15.987 -0.0187 -1.6117 -0.9954
 4003TIP3    H233425   5.064   0.325  16.082  0.4021  2.2520  1.2043
 4004TIP3   OH233426   1.045   3.143   2.754 -0.0961  0.0803 -0.4727
 4004TIP3    H133427   1.007   3.160   2.668 -1.6849  0.4679  0.2870
 4004TIP3    H233428   1.004   3.061   2.783  1.4189 -0.7466 -0.6437
 4005TIP3   OH233429   4.706   4.977  12.422  0.0108  0.4487 -0.4557
 4005TIP3    H133430   4.634   4.915  12.412 -0.6454  1.2167 -0.5354
 4005TIP3    H233431   4.781   4.923  12.448 -0.6179 -0.3382 -0.2613
 4006TIP3   OH233432   5.933   2.394  16.930 -0.0170 -0.1233 -0.2748
 4006TIP3    H133433   6.024   2.369  16.914 -0.0291 -0.0267 -0.5016
 4006TIP3    H233434   5.901   2.423  16.844 -0.4880 -0.8686 -0.3515
 4007TIP3   OH233435   3.272   5.338  13.743 -0.2253 -0.1610 -0.1813
 4007TIP3    H133436   3.316   5.277  13.684  0.6114  0.2430  0.0175
 4007TIP3    H233437   3.187   5.354  13.701 -1.0770 -2.5983  0.5342
 4008TIP3   OH233438   3.585   0.767  15.454 -0.1090 -0.4735 -0.0275
 4008TIP3    H133439   3.541   0.843  15.491  0.5212 -0.0190 -0.1943
 4008TIP3    H233440   3.517   0.700  15.448 -1.2213  0.7734 -1.9781
 4009TIP3   OH233441   1.461   1.348   2.845  0.3066 -0.0908  0.3850
 4009TIP3    H133442   1.495   1.288   2.779 -0.4948  0.3417 -0.4259
 4009TIP3    H233443   1.368   1.327   2.851  0.0347  1.0135  0.1432
 4010TIP3   OH233444   2.370   4.490  13.044 -0.1532 -0.5936 -0.2206
 4010TIP3    H133445   2.446   4.528  13.089 -0.1706 -1.0301  0.1781
 4010TIP3    H233446   2.295   4.537  13.082 -0.1506 -0.7996  0.0411
 4011TIP3   OH233447   0.731   2.831   1.658 -0.0763 -0.5447  0.3697
 4011TIP3    H133448   0.810   2.791   1.695  0.1184  0.5107  1.1188
 4011TIP3    H233449   0.704   2.770   1.588  0.8806 -1.3674  0.6957
 4012TIP3   OH233450   1.244   4.009   4.396 -0.0639 -0.0933 -0.5949
 4012TIP3    H133451   1.299   3.972   4.328 -0.4502 -0.8141 -0.5186
 4012TIP3    H233452   1.178   3.942   4.414  1.0334 -0.6062  1.6826
 4013TIP3   OH233453   4.647   5.671   1.372 -0.0506  0.2260  0.3331
 4013TIP3    H133454   4.655   5.764   1.351  0.2333 -0.0866 -0.9924
 4013TIP3    H233455   4.737   5.643   1.390 -0.3776  0.6528  2.7340
 4014TIP3   OH233456   4.268   2.896   1.893 -0.1855  0.0281 -0.4232
 4014TIP3    H133457   4.233   2.840   1.962  0.5446  2.1050  1.6892
 4014TIP3    H233458   4.363   2.887   1.901 -0.1044  0.0934 -1.3087
 4015TIP3   OH233459   2.697   2.769  15.116  0.1205  0.1191 -0.2839
 4015TIP3    H133460   2.791   2.758  15.097 -0.1226 -0.9717 -0.8875
 4015TIP3    H233461   2.655   2.764  15.031 -0.6351 -1.0405  0.1478
 4016TIP3   OH233462   1.526   5.416  10.497 -0.1633 -0.1566 -0.8308
 4016TIP3    H133463   1.502   5.326  10.520 -1.5819  0.5716  0.5721
 4016TIP3    H233464   1.452   5.469  10.526  0.7165  1.4872 -1.5478
 4017TIP3   OH233465   4.828   0.235  12.623 -0.1155 -0.1114 -0.3582
 4017TIP3    H133466   4.797   0.313  12.577 -0.3526  0.4107  0.6680
 4017TIP3    H233467   4.760   0.218  12.688 -0.6070 -1.8311 -1.3028
 4018TIP3   OH233468   5.697   5.158  12.865  0.3752 -0.2106 -0.4287
 4018TIP3    H133469   5.785   5.131  12.890  0.5088 -0.6721 -1.4139
 4018TIP3    H233470   5.702   5.179  12.772 -0.0504  1.8819 -0.0250
 4019TIP3   OH233471   1.797   2.420  11.476  0.1221 -0.1708 -0.3724
 4019TIP3    H133472   1.703   2.432  11.461  0.3412  1.4399 -0.5078
 4019TIP3    H233473   1.826   2.365  11.403 -0.5836 -0.0744 -0.7268
 4020TIP3   OH233474   5.688   5.411   5.312  0.0925  0.6896  0.3065
 4020TIP3    H133475   5.658   5.478   5.250  1.4060  0.6745 -0.3649
 4020TIP3    H233476   5.745   5.355   5.261  0.7588  0.3503  1.4040
 4021TIP3   OH233477   1.396   0.727  15.400  0.0558  0.1416  0.2013
 4021TIP3    H133478   1.416   0.820  15.403  1.3278 -0.1088 -0.5222
 4021TIP3    H233479   1.455   0.687  15.464  0.4051 -0.3329 -0.4180
 4022TIP3   OH233480   4.078   5.631   2.446 -0.2284  0.1677  0.2815
 4022TIP3    H133481   4.122   5.625   2.531  0.3264 -1.3152 -0.0995
 4022TIP3    H233482   4.047   5.721   2.442 -0.5999  0.1603  2.2307
 4023TIP3   OH233483   0.571   2.209  15.441 -0.0401  0.0212 -0.4506
 4023TIP3    H133484   0.481   2.217  15.473  0.0532 -1.3257  0.1945
 4023TIP3    H233485   0.567   2.137  15.377  0.5907 -0.1139 -0.3439
 4024TIP3   OH233486   2.766   6.571   2.413 -0.1979 -0.1875 -0.0829
 4024TIP3    H133487   2.671   6.558   2.423 -0.1652 -0.5072 -0.1715
 4024TIP3    H233488   2.781   6.569   2.319  0.1933 -2.3668  0.0036
 4025TIP3   OH233489   2.019   1.431  14.325 -0.0414  0.5056  0.9608
 4025TIP3    H133490   1.959   1.497  14.360 -0.3739 -0.9090  3.0734
 4025TIP3    H233491   1.980   1.347  14.348  1.6621 -0.4478  0.4972
 4026TIP3   OH233492   0.057   0.455   2.006 -0.4187  0.2424 -0.5228
 4026TIP3    H133493   0.084   0.544   1.984  0.3066  0.9250  2.8136
 4026TIP3    H233494   0.115   0.430   2.078 -2.4541 -1.9010  0.4240
 4027TIP3   OH233495   1.570   1.353   4.976  0.2206  0.1371  0.2326
 4027TIP3    H133496   1.487   1.368   5.021 -0.1170 -1.2436  0.0972
 4027TIP3    H233497   1.589   1.436   4.932 -0.1758  1.0282  1.7365
 4028TIP3   OH233498   6.081   2.662  14.872  0.4130 -0.8091  0.1292
 4028TIP3    H133499   6.166   2.678  14.832  0.2430 -0.9091 -0.2772
 4028TIP3    H233500   6.100   2.611  14.951  0.5503 -2.7011 -1.0951
 4029TIP3   OH233501   3.453   6.537   2.637 -0.3093 -0.2442  0.3088
 4029TIP3    H133502   3.528   6.482   2.657  0.3622  0.1787 -1.0249
 4029TIP3    H233503   3.378   6.491   2.675  0.7392 -0.1028  2.6802
 4030TIP3   OH233504   2.495   5.768  14.232 -0.0758  0.3238 -0.3685
 4030TIP3    H133505   2.502   5.800  14.142  0.5301  0.1658 -0.3814
 4030TIP3    H233506   2.535   5.837  14.285 -0.8796  0.6419 -0.1688
 4031TIP3   OH233507   1.440   4.959   5.564  0.2230 -0.7163  0.1548
 4031TIP3    H133508   1.448   4.865   5.577 -2.0201 -1.2300 -1.8416
 4031TIP3    H233509   1.527   4.993   5.585  1.4015 -3.3567 -0.2017
 4032TIP3   OH233510   1.099   0.372   2.146  0.0298 -0.4211 -0.6819
 4032TIP3    H133511   1.044   0.367   2.225 -1.5372  2.1907 -1.5273
 4032TIP3    H233512   1.167   0.435   2.168  0.6813 -1.0791 -0.8034
 4033TIP3   OH233513   3.414   6.156   6.197 -0.5283 -0.4168  0.5188
 4033TIP3    H133514   3.330   6.197   6.180 -0.8638 -1.6106 -0.8858
 4033TIP3    H233515   3.410   6.129   6.288 -0.9200  1.2120  0.9957
 4034TIP3   OH233516   3.922   2.021  17.223 -0.5307  0.2465  0.0082
 4034TIP3    H133517   3.958   2.110  17.220 -0.0225  0.1117  1.5552
 4034TIP3    H233518   3.980   1.969  17.167 -0.2110  0.6841 -0.0672
 4035TIP3   OH233519   1.972   3.906  15.076 -0.5959 -0.3316  0.4791
 4035TIP3    H133520   2.017   3.837  15.124 -0.7003 -0.2192  0.7407
 4035TIP3    H233521   1.879   3.891  15.092 -0.6015  0.1204  0.8861
 4036TIP3   OH233522   2.202   2.374   4.837  0.1686  0.3384 -0.0216
 4036TIP3    H133523   2.129   2.359   4.778 -0.2944 -1.6598  1.0410
 4036TIP3    H233524   2.162   2.404   4.918  0.6527  0.9699 -0.0111
 4037TIP3   OH233525   4.515   6.371   1.759  0.7008 -0.3763  0.4814
 4037TIP3    H133526   4.510   6.428   1.836 -0.2264  0.6786 -0.3435
 4037TIP3    H233527   4.444   6.308   1.771 -0.1766  0.5108 -0.0881
 4038TIP3   OH233528   4.652   0.346  14.832  0.1128  0.3906 -0.2990
 4038TIP3    H133529   4.715   0.385  14.892 -1.3112 -0.1842  1.6142
 4038TIP3    H233530   4.602   0.420  14.798  0.1164  0.6124  0.1777
 4039TIP3   OH233531   6.273   5.485   3.994  0.4997 -0.0758 -0.3172
 4039TIP3    H133532   6.312   5.486   3.906  2.0613  2.9764  0.3284
 4039TIP3    H233533   6.182   5.511   3.980  0.6018 -0.1349 -1.1052
 4040TIP3   OH233534   2.386   4.373  16.308 -0.1503  0.1653 -0.1078
 4040TIP3    H133535   2.389   4.463  16.275  0.2655  0.5683  0.9903
 4040TIP3    H233536   2.464   4.332  16.270  1.6394  1.2959  2.1909
 4041TIP3   OH233537   3.810   5.041  10.566 -0.0789 -0.0047 -0.1653
 4041TIP3    H133538   3.853   5.096  10.631 -0.0152  0.2760 -0.4416
 4041TIP3    H233539   3.874   4.973  10.545 -1.2208 -1.9009  2.3029
 4042TIP3   OH233540   2.337   4.806  15.315  0.0154  0.2862 -0.5122
 4042TIP3    H133541   2.284   4.740  15.270  0.7847  0.1127 -1.1700
 4042TIP3    H233542   2.360   4.869  15.247 -1.9321  2.0250  0.4078
 4043TIP3   OH233543   6.372   6.209  15.375 -0.0797 -0.3185 -0.5741
 4043TIP3    H133544   6.412   6.124  15.393  1.2297  0.4468  0.1987
 4043TIP3    H233545   6.442   6.261  15.336 -1.6157 -0.4468 -3.6179
 4044TIP3   OH233546   5.698   0.757   3.014 -0.1279 -0.9774  0.5014
 4044TIP3    H133547   5.755   0.813   3.068  0.1064  1.1014 -1.7847
 4044TIP3    H233548   5.609   0.789   3.033  0.0777  0.9766 -1.5802
 4045TIP3   OH233549   3.166   6.355  12.203 -0.2371  0.6486 -0.5136
 4045TIP3    H133550   3.181   6.293  12.274 -0.1671 -1.0543 -1.9699
 4045TIP3    H233551   3.093   6.409  12.233 -0.0273  0.1297  0.9646
 4046TIP3   OH233552   6.544   3.684   5.870 -0.0494  0.2132 -0.6222
 4046TIP3    H133553   6.634   3.656   5.854 -0.8090 -2.1023 -1.0109
 4046TIP3    H233554   6.526   3.655   5.960 -1.0791 -1.2049 -1.2733
 4047TIP3   OH233555   0.510   1.587   5.936  0.2474  0.5047  0.2017
 4047TIP3    H133556   0.551   1.601   6.021 -0.7244  0.6745  0.6545
 4047TIP3    H233557   0.501   1.492   5.930 -0.0091  0.5121  0.4496
 4048TIP3   OH233558   4.829   1.274  13.581  0.0636 -0.5662 -0.1990
 4048TIP3    H133559   4.882   1.349  13.606 -0.2983 -0.6040  0.6952
 4048TIP3    H233560   4.887   1.221  13.525 -0.4715  1.5711 -2.9057
 4049TIP3   OH233561   6.213   4.697  10.408 -0.4974  0.0712  0.1613
 4049TIP3    H133562   6.183   4.609  10.388 -0.7756 -0.1120  1.3297
 4049TIP3    H233563   6.132   4.746  10.428 -0.1760 -0.0065  1.7299
 4050TIP3   OH233564   5.371   4.316   2.263  0.0196 -0.3212  0.2113
 4050TIP3    H133565   5.284   4.300   2.301  0.1907 -1.6686  0.0682
 4050TIP3    H233566   5.384   4.242   2.203  1.1703 -0.0033  0.0692
 4051TIP3   OH233567   1.083   4.370  12.384  0.3827  0.2649  0.0651
 4051TIP3    H133568   1.060   4.444  12.440  0.6276 -0.6400  1.3949
 4051TIP3    H233569   1.003   4.318  12.379  0.2763  0.4994 -0.6783
 4052TIP3   OH233570   2.825   3.599   3.001 -0.0481 -0.4269  0.0435
 4052TIP3    H133571   2.893   3.576   2.938 -1.3347  1.7358 -2.2204
 4052TIP3    H233572   2.774   3.518   3.012  0.7443 -1.0724 -0.9841
 4053TIP3   OH233573   2.424   6.357   6.416 -0.1454 -0.1431 -0.1637
 4053TIP3    H133574   2.338   6.317   6.426  0.2624 -0.8165  0.7727
 4053TIP3    H233575   2.433   6.413   6.493  1.0193 -1.5462  0.7491
 4054TIP3   OH233576   0.144   3.455  13.505  0.1765  0.2055  0.4415
 4054TIP3    H133577   0.193   3.476  13.584 -2.6221  4.6254  1.1574
 4054TIP3    H233578   0.063   3.416  13.537 -0.0825  0.0777 -0.3621
 4055TIP3   OH233579   0.157   5.505  15.518 -0.1169 -0.7239  0.4365
 4055TIP3    H133580   0.097   5.463  15.455  1.8736  0.6025 -2.4633
 4055TIP3    H233581   0.176   5.436  15.582 -0.2438 -2.9733 -1.8414
 4056TIP3   OH233582   3.132   1.301  16.113  0.1051  0.1984 -0.0198
 4056TIP3    H133583   3.208   1.358  16.109 -1.3793  2.5113  3.0673
 4056TIP3    H233584   3.060   1.354  16.079 -0.9426 -0.4290  1.1852
 4057TIP3   OH233585   4.513   5.466   1.836 -0.6243 -0.2645 -0.2854
 4057TIP3    H133586   4.515   5.504   1.748 -0.5703 -0.4891 -0.3830
 4057TIP3    H233587   4.460   5.527   1.888 -0.8448 -0.2485 -0.5281
 4058TIP3   OH233588   3.136   1.190   2.500  0.3596  0.4963 -0.0138
 4058TIP3    H133589   3.208   1.155   2.447  1.6886  1.6258  1.0060
 4058TIP3    H233590   3.091   1.250   2.441  1.8320  1.7467  0.1022
 4059TIP3   OH233591   1.932   6.778   5.407 -0.3472  0.1523  0.4449
 4059TIP3    H133592   1.979   6.721   5.468 -1.9808  0.4817  2.0559
 4059TIP3    H233593   1.899   6.719   5.340  2.1420 -0.1130 -0.5898
 4060TIP3   OH233594   3.791   4.489   1.148 -0.1146 -0.4478 -0.2796
 4060TIP3    H133595   3.772   4.486   1.242 -0.9503 -0.7829 -0.4595
 4060TIP3    H233596   3.789   4.398   1.120  0.2726 -0.3593 -0.6037
 4061TIP3   OH233597   1.864   0.950   4.230  0.9456 -0.3772 -0.0849
 4061TIP3    H133598   1.953   0.973   4.258  0.7712 -0.4393  0.5129
 4061TIP3    H233599   1.878   0.900   4.149  1.4209  0.1140 -0.3158
 4062TIP3   OH233600   0.395   6.574  11.610 -0.2652  0.2373 -0.2657
 4062TIP3    H133601   0.469   6.564  11.670 -0.2397 -0.8480 -0.4686
 4062TIP3    H233602   0.351   6.654  11.639  1.2450  1.1462 -0.4288
 4063TIP3   OH233603   2.158   3.308  16.772  0.6399 -0.2224  0.4839
 4063TIP3    H133604   2.148   3.333  16.680 -2.1525 -0.3498  0.7070
 4063TIP3    H233605   2.150   3.391  16.820  1.3664 -0.2493  0.6502
 4064TIP3   OH233606   0.492   5.091  16.611  0.1085  0.4056  0.1964
 4064TIP3    H133607   0.559   5.098  16.543  0.0917  4.6235  0.4710
 4064TIP3    H233608   0.498   5.174  16.659 -3.3170 -0.3587  2.1122
 4065TIP3   OH233609   3.452   1.707  11.368  0.1623 -0.1039 -0.3296
 4065TIP3    H133610   3.498   1.781  11.328 -2.9822  2.2081  0.1865
 4065TIP3    H233611   3.481   1.709  11.460 -0.0743  0.6236 -0.2672
 4066TIP3   OH233612   6.357   2.964   0.131 -0.5419 -0.5436  1.3183
 4066TIP3    H133613   6.327   3.052   0.109  0.1024 -0.5773  0.2510
 4066TIP3    H233614   6.277   2.917   0.156 -1.3957 -0.5482 -1.2562
 4067TIP3   OH233615   5.574   1.880  15.382 -0.2191  0.4461 -0.3930
 4067TIP3    H133616   5.570   1.792  15.343 -0.0763 -0.0696  0.7364
 4067TIP3    H233617   5.578   1.939  15.307  0.3313 -0.5504 -1.1654
 4068TIP3   OH233618   2.689   1.293   0.245  0.1180 -0.6442 -0.8223
 4068TIP3    H133619   2.684   1.198   0.231  0.7887 -1.0268  1.3979
 4068TIP3    H233620   2.716   1.328   0.160 -0.2348 -2.4239 -1.6899
 4069TIP3   OH233621   1.017   3.447  13.669 -0.3623 -0.3107  0.5284
 4069TIP3    H133622   1.015   3.539  13.696  1.0472 -0.2564  0.4900
 4069TIP3    H233623   0.936   3.434  13.621 -1.2238  0.5467  1.7171
 4070TIP3   OH233624   0.587   1.487  11.186  0.0473  0.1850 -0.2772
 4070TIP3    H133625   0.574   1.410  11.131  2.9559  0.0737 -0.8888
 4070TIP3    H233626   0.658   1.463  11.245  0.2484  2.0093  0.2534
 4071TIP3   OH233627   4.760   6.407   4.415  0.0853 -0.2354 -0.4204
 4071TIP3    H133628   4.773   6.424   4.322 -0.0412 -1.0314 -0.5897
 4071TIP3    H233629   4.811   6.328   4.432  1.3987  0.8031  0.5480
 4072TIP3   OH233630   5.000   5.589   0.194 -0.3487  0.0443  0.9545
 4072TIP3    H133631   5.025   5.566   0.105 -0.1718  0.9068  0.7817
 4072TIP3    H233632   5.023   5.512   0.246 -2.5986 -1.3952 -0.1041
 4073TIP3   OH233633   3.109   4.147   2.396  0.2846  0.2620 -0.4238
 4073TIP3    H133634   3.113   4.232   2.352  2.5443  0.7535  0.6739
 4073TIP3    H233635   3.139   4.085   2.330  1.0784  0.6436 -0.4210
 4074TIP3   OH233636   2.242   3.814   4.062  0.2015 -0.1214  0.4255
 4074TIP3    H133637   2.265   3.773   3.979  1.5281 -0.3597  0.8964
 4074TIP3    H233638   2.219   3.904   4.038 -0.7286 -0.5622 -0.3595
 4075TIP3   OH233639   2.599   0.554   1.887 -0.0071 -0.1517  0.3143
 4075TIP3    H133640   2.597   0.499   1.809 -0.2294  0.0561  0.1722
 4075TIP3    H233641   2.536   0.624   1.869 -0.8201 -0.6686  1.0901
 4076TIP3   OH233642   2.139   5.555   2.460 -0.1104 -0.0993 -0.3323
 4076TIP3    H133643   2.187   5.595   2.532  0.5813  0.4905 -1.1095
 4076TIP3    H233644   2.201   5.554   2.387  0.1330 -3.1885 -0.1667
 4077TIP3   OH233645   2.624   3.999  16.455 -0.3176 -0.8389  0.1062
 4077TIP3    H133646   2.694   4.043  16.503 -0.3776 -1.2537  0.5745
 4077TIP3    H233647   2.669   3.933  16.402 -0.3350 -0.9359  0.2141
 4078TIP3   OH233648   4.176   0.283   1.762  0.2828 -0.5584  0.4182
 4078TIP3    H133649   4.243   0.235   1.811 -0.0979 -0.9737  0.5285
 4078TIP3    H233650   4.194   0.375   1.781  1.9300 -0.5599 -0.9453
 4079TIP3   OH233651   5.994   3.819  16.089  0.4476  0.8894  0.1664
 4079TIP3    H133652   6.026   3.756  16.154 -1.4362 -0.0890  0.1919
 4079TIP3    H233653   5.997   3.904  16.135 -0.3764  0.2876  1.3708
 4080TIP3   OH233654   4.645   5.933   1.165 -0.6190  0.2084 -0.0295
 4080TIP3    H133655   4.658   6.006   1.225 -0.3353 -0.1499  0.3506
 4080TIP3    H233656   4.717   5.940   1.103  0.1380 -0.4825  0.7587
 4081TIP3   OH233657   2.640   0.309   0.557 -0.4500 -0.2039  0.0010
 4081TIP3    H133658   2.667   0.220   0.582  0.2387 -0.1042 -0.3871
 4081TIP3    H233659   2.610   0.349   0.639  0.2405 -0.4322  0.3626
 4082TIP3   OH233660   0.219   5.317  11.540 -0.3887 -0.2959  0.1204
 4082TIP3    H133661   0.273   5.395  11.529 -0.6381 -0.4287 -2.5458
 4082TIP3    H233662   0.181   5.303  11.453 -1.8726 -2.2641  1.0582
 4083TIP3   OH233663   2.005   1.571   5.880  0.1214 -0.1042 -0.6067
 4083TIP3    H133664   1.986   1.562   5.787  1.2278  2.1137 -1.1020
 4083TIP3    H233665   2.069   1.502   5.899  0.3191 -0.2030 -1.6317
 4084TIP3   OH233666   6.607   5.462   2.995 -0.4651  0.6066 -0.1879
 4084TIP3    H133667   6.607   5.555   2.973 -2.6881  1.0166  1.4309
 4084TIP3    H233668   6.583   5.459   3.087  0.8143 -1.5268  0.1142
 4085TIP3   OH233669   5.585   4.011   3.633  0.0014 -0.1814 -0.8387
 4085TIP3    H133670   5.667   4.060   3.642  0.5153 -1.3367  1.0333
 4085TIP3    H233671   5.600   3.954   3.558  0.8760 -0.3227 -0.5637
 4086TIP3   OH233672   5.702   2.944   5.306 -0.1981  0.0536 -0.2189
 4086TIP3    H133673   5.787   2.904   5.291  0.1579  0.4790  0.6448
 4086TIP3    H233674   5.644   2.870   5.325  0.2682 -0.1274  0.5224
 4087TIP3   OH233675   4.624   1.300   4.319 -0.2340 -0.1093  0.0423
 4087TIP3    H133676   4.669   1.241   4.259  0.4916 -0.7196  1.1639
 4087TIP3    H233677   4.555   1.246   4.358 -1.5622  0.6486 -1.2096
 4088TIP3   OH233678   3.775   1.988   1.651  0.2671 -0.1355  0.2100
 4088TIP3    H133679   3.865   1.996   1.682 -0.3419  0.6655  1.8395
 4088TIP3    H233680   3.751   2.077   1.624  0.3165 -0.5541 -1.2037
 4089TIP3   OH233681   2.666   4.942  15.528  0.0980  0.0182  0.0280
 4089TIP3    H133682   2.705   4.865  15.485 -1.0495  0.7656 -2.3850
 4089TIP3    H233683   2.572   4.927  15.523 -0.2340  2.5426 -2.3550
 4090TIP3   OH233684   1.887   4.209  15.145  0.4178  0.5737 -0.2286
 4090TIP3    H133685   1.964   4.154  15.133  0.8155  1.3138 -1.1004
 4090TIP3    H233686   1.821   4.172  15.086 -0.2260 -0.6470  1.2202
 4091TIP3   OH233687   1.681   0.538  10.886 -0.5486 -0.1506 -0.8123
 4091TIP3    H133688   1.637   0.605  10.834 -3.1864 -2.0681 -1.1487
 4091TIP3    H233689   1.722   0.481  10.821 -0.1957 -0.1140 -0.6209
 4092TIP3   OH233690   5.860   1.047  12.763  0.3953 -0.3296  0.1373
 4092TIP3    H133691   5.777   1.041  12.717  1.2370  0.6400 -1.5864
 4092TIP3    H233692   5.876   1.141  12.771  1.9218 -0.4952 -0.7264
 4093TIP3   OH233693   4.658   1.698  13.545 -0.3209  0.2129  0.0149
 4093TIP3    H133694   4.712   1.777  13.544 -0.1992  0.1619  1.1463
 4093TIP3    H233695   4.616   1.700  13.631 -1.1645 -0.3935 -0.3763
 4094TIP3   OH233696   5.883   2.933   3.144 -0.0045  0.2749 -0.1774
 4094TIP3    H133697   5.908   2.930   3.052  1.5458  2.8454  0.0919
 4094TIP3    H233698   5.966   2.948   3.190 -0.8630 -0.2063  1.5579
 4095TIP3   OH233699   0.203   0.190  15.083 -0.5310  0.2522 -0.8093
 4095TIP3    H133700   0.194   0.248  15.159  2.2617  0.7145 -0.7739
 4095TIP3    H233701   0.229   0.106  15.121 -1.0701 -0.0674 -1.1355
 4096TIP3   OH233702   5.070   4.626  12.363  0.1568  0.3382 -0.1749
 4096TIP3    H133703   5.067   4.598  12.272  0.8371 -1.2468  0.2750
 4096TIP3    H233704   5.144   4.686  12.367 -0.0456  0.6302 -0.7233
 4097TIP3   OH233705   4.538   2.038   3.901 -0.0201 -0.4611 -0.1883
 4097TIP3    H133706   4.600   2.018   3.972 -0.1564  1.6323  0.5521
 4097TIP3    H233707   4.552   1.969   3.837  4.1202  0.7407 -0.6983
 4098TIP3   OH233708   2.716   2.538   2.869  1.0493  0.2602 -0.5414
 4098TIP3    H133709   2.756   2.556   2.954 -0.0881 -0.5228  0.1735
 4098TIP3    H233710   2.731   2.444   2.854 -2.6795 -0.6660  0.9446
 4099TIP3   OH233711   0.683   5.949   4.730  0.3794  0.3636  0.4136
 4099TIP3    H133712   0.751   5.982   4.672  0.2539  1.2623  0.7637
 4099TIP3    H233713   0.711   5.860   4.752  1.1148  0.5026  0.0594
 4100TIP3   OH233714   4.582   5.216   0.802  0.4989 -0.4586 -0.1226
 4100TIP3    H133715   4.496   5.234   0.840  0.7949 -0.0462  0.3405
 4100TIP3    H233716   4.570   5.131   0.758 -0.5434  0.2548 -1.2698
 4101TIP3   OH233717   5.857   0.175  13.065 -0.0941 -0.1619 -1.0289
 4101TIP3    H133718   5.886   0.182  13.156  1.1728 -1.1844 -1.3443
 4101TIP3    H233719   5.803   0.253  13.052 -1.8444 -0.9469  1.1438
 4102TIP3   OH233720   0.557   3.694   4.331 -0.7487  0.4918 -0.0653
 4102TIP3    H133721   0.628   3.726   4.387 -1.3070  1.0134  0.3524
 4102TIP3    H233722   0.592   3.697   4.242 -0.1506  0.4797  0.1721
 4103TIP3   OH233723   0.782   5.415   3.324  0.3465 -1.0577  0.6302
 4103TIP3    H133724   0.738   5.380   3.402  0.8097 -0.1677  1.2951
 4103TIP3    H233725   0.854   5.354   3.308  0.2041 -1.2857  0.8463
 4104TIP3   OH233726   3.005   5.202   5.118  0.2006  0.3572  0.3003
 4104TIP3    H133727   3.054   5.131   5.160  1.3533  1.4569  0.8644
 4104TIP3    H233728   2.939   5.158   5.065 -0.1447 -1.1159  1.8879
 4105TIP3   OH233729   2.607   4.927  16.390 -0.3647  0.2286 -0.5722
 4105TIP3    H133730   2.693   4.956  16.359  0.5774 -1.6326  0.2149
 4105TIP3    H233731   2.544   4.980  16.340  1.2241  1.6211 -1.1492
 4106TIP3   OH233732   3.521   0.497  10.912  0.5332  0.0322 -0.2941
 4106TIP3    H133733   3.603   0.470  10.871  1.0424  1.0407  0.0393
 4106TIP3    H233734   3.533   0.590  10.929 -0.8383  0.2690 -0.6008
 4107TIP3   OH233735   2.266   6.608   4.196  0.2126 -0.3838  0.0362
 4107TIP3    H133736   2.185   6.622   4.246  0.3799 -1.0432  0.4858
 4107TIP3    H233737   2.326   6.675   4.229 -0.7134  1.2943 -1.5505
 4108TIP3   OH233738   4.415   1.468  12.642  0.6960  0.4206  0.2696
 4108TIP3    H133739   4.408   1.480  12.547 -2.7778 -1.3868  0.2580
 4108TIP3    H233740   4.441   1.555  12.675 -1.2025  1.9096 -2.0227
 4109TIP3   OH233741   5.760   4.796  14.983  0.2457 -0.2701 -0.1848
 4109TIP3    H133742   5.716   4.717  15.014 -0.5101  0.0687 -0.3726
 4109TIP3    H233743   5.853   4.775  14.986  0.0930 -0.8430  0.6458
 4110TIP3   OH233744   0.504   1.888   5.987  0.2841  0.0754  0.5447
 4110TIP3    H133745   0.513   1.828   5.913  0.3314 -0.4068  0.9379
 4110TIP3    H233746   0.573   1.861   6.048  0.6701  0.8931  0.4754
 4111TIP3   OH233747   0.535   5.472   0.635  0.0394 -0.0502  0.0056
 4111TIP3    H133748   0.515   5.395   0.581 -0.3375 -1.9821  2.7705
 4111TIP3    H233749   0.610   5.444   0.688 -0.4224  1.3265  1.4130
 4112TIP3   OH233750   1.002   4.026  13.822 -0.1718  0.2100 -0.1765
 4112TIP3    H133751   1.062   4.079  13.772 -1.4862  1.7370 -0.1770
 4112TIP3    H233752   0.915   4.049  13.788 -0.8459 -1.0459  0.6428
 4113TIP3   OH233753   2.906   1.054   4.332 -0.4040  0.1406 -0.6503
 4113TIP3    H133754   2.835   0.994   4.307  0.2462 -1.2532  0.7399
 4113TIP3    H233755   2.865   1.140   4.332 -2.2470 -0.6807  0.5908
 4114TIP3   OH233756   5.458   4.361  16.054  0.4109 -0.2477 -0.3167
 4114TIP3    H133757   5.523   4.401  16.111  0.0375  1.3608 -1.0071
 4114TIP3    H233758   5.472   4.267  16.065  1.6491  0.0574  0.9091
 4115TIP3   OH233759   0.303   1.460   3.733 -0.9336  0.2755  0.4507
 4115TIP3    H133760   0.209   1.452   3.719 -1.0512 -0.0231  1.3622
 4115TIP3    H233761   0.331   1.371   3.756 -0.4828  0.4333  0.5204
 4116TIP3   OH233762   0.754   4.864  11.078  0.1163  0.8360 -0.1865
 4116TIP3    H133763   0.688   4.796  11.081 -1.0476  1.9938  1.0589
 4116TIP3    H233764   0.819   4.832  11.014 -1.0066 -0.8514 -0.5091
 4117TIP3   OH233765   2.885   1.583   0.528 -0.0903 -0.5699 -0.0276
 4117TIP3    H133766   2.792   1.606   0.536 -0.2913 -1.1178 -0.7451
 4117TIP3    H233767   2.894   1.550   0.438  1.2251  1.4110 -0.6507
 4118TIP3   OH233768   5.215   3.391  13.339  0.0739 -0.2921  0.7676
 4118TIP3    H133769   5.130   3.350  13.325  0.3754 -0.6533 -0.0033
 4118TIP3    H233770   5.200   3.452  13.411 -1.1741  0.6558 -0.2704
 4119TIP3   OH233771   0.739   3.296   6.092  1.2792  0.3204  0.8204
 4119TIP3    H133772   0.690   3.366   6.136 -1.0910 -1.0317  0.4074
 4119TIP3    H233773   0.737   3.223   6.154  2.1162  0.0097  0.4731
 4120TIP3   OH233774   5.799   3.636  16.441 -0.3876  0.1837  0.1735
 4120TIP3    H133775   5.887   3.643  16.403 -0.6694  2.6434 -0.1007
 4120TIP3    H233776   5.813   3.592  16.525  0.9531 -0.4675 -0.3677
 4121TIP3   OH233777   3.605   3.108   6.341  0.0455 -0.3109  0.7065
 4121TIP3    H133778   3.687   3.061   6.323 -0.6610 -1.0710 -0.5909
 4121TIP3    H233779   3.629   3.200   6.334  1.0237 -0.5061  1.3851
 4122TIP3   OH233780   3.672   3.455   0.413  0.4597  0.0809  0.2254
 4122TIP3    H133781   3.725   3.397   0.468 -0.1214  0.5041  1.2408
 4122TIP3    H233782   3.606   3.490   0.472 -1.4344 -1.0165 -1.1893
 4123TIP3   OH233783   5.856   4.486   3.428  0.0868  0.4953 -0.5455
 4123TIP3    H133784   5.860   4.391   3.436 -1.3478  0.2743 -2.1293
 4123TIP3    H233785   5.925   4.507   3.365 -0.8174  0.2823 -1.6317
 4124TIP3   OH233786   2.423   4.215   4.869 -0.7270 -0.0570  0.2498
 4124TIP3    H133787   2.454   4.206   4.779 -1.8023  0.7197 -0.2072
 4124TIP3    H233788   2.328   4.217   4.862 -0.7818  2.0626  1.1885
 4125TIP3   OH233789   4.804   1.703   6.039  0.3800  0.1442  0.1790
 4125TIP3    H133790   4.720   1.700   6.085  0.1279  0.3305 -0.2692
 4125TIP3    H233791   4.831   1.611   6.034 -0.5147 -0.0752 -0.9748
 4126TIP3   OH233792   5.120   0.715  11.023 -0.2348  0.8908 -0.1674
 4126TIP3    H133793   5.119   0.778  11.095 -0.3575  1.1295 -0.3796
 4126TIP3    H233794   5.038   0.729  10.977 -2.1951 -2.1647  2.1559
 4127TIP3   OH233795   4.761   4.253   2.578 -0.0196 -0.0121 -0.3305
 4127TIP3    H133796   4.722   4.297   2.653  0.2299 -0.2227 -0.0813
 4127TIP3    H233797   4.728   4.303   2.502 -0.3271  0.1519 -0.0910
 4128TIP3   OH233798   6.692   6.697   3.178  0.0752  0.3222 -0.1888
 4128TIP3    H133799   6.611   6.647   3.185 -0.3394  0.9547 -0.4479
 4128TIP3    H233800   6.723   6.706   3.268 -1.3303  2.0122  0.1557
 4129TIP3   OH233801   6.496   5.761  12.585  0.1492  0.3437  0.5491
 4129TIP3    H133802   6.421   5.702  12.577 -1.2068  1.7925  2.2014
 4129TIP3    H233803   6.549   5.743  12.507 -1.2648 -1.5886 -0.0111
 4130TIP3   OH233804   2.084   2.159   3.231  0.0439  0.1650  0.2697
 4130TIP3    H133805   2.132   2.174   3.313  0.3279 -0.6609  0.2610
 4130TIP3    H233806   2.093   2.065   3.215  0.4899  0.4081 -1.0164
 4131TIP3   OH233807   5.434   2.850  12.480 -0.0386  0.1124  0.1368
 4131TIP3    H133808   5.476   2.892  12.405  1.2057 -0.9344  0.2371
 4131TIP3    H233809   5.368   2.792  12.442 -0.8196  1.0918 -0.0519
 4132TIP3   OH233810   1.963   6.736  15.460  0.8068  0.3948  0.7639
 4132TIP3    H133811   1.914   6.740  15.378  1.1591  0.9887  0.5777
 4132TIP3    H233812   1.899   6.708  15.525  0.1768  1.2793  0.5478
 4133TIP3   OH233813   1.808   3.658   0.330  0.1317  0.0124 -0.4467
 4133TIP3    H133814   1.712   3.660   0.324  0.1563 -0.5484 -1.0476
 4133TIP3    H233815   1.833   3.750   0.325 -0.3754  0.1670 -0.2365
 4134TIP3   OH233816   1.032   3.274  15.154 -0.0595 -0.0013  0.4596
 4134TIP3    H133817   1.061   3.279  15.063 -0.6214 -1.9841  0.1554
 4134TIP3    H233818   1.107   3.307  15.204  0.9802 -0.6808 -0.6026
 4135TIP3   OH233819   0.446   1.925  12.424 -0.1671 -0.6220 -0.3070
 4135TIP3    H133820   0.456   1.863  12.496 -0.0332  1.0460  1.1485
 4135TIP3    H233821   0.532   1.929  12.383 -0.3935 -2.0126 -0.9291
 4136TIP3   OH233822   5.866   0.732   5.698  0.0805 -0.2642  0.6676
 4136TIP3    H133823   5.849   0.815   5.654 -0.0563 -1.1915 -1.0546
 4136TIP3    H233824   5.909   0.757   5.780  0.2413  1.4896  0.0632
 4137TIP3   OH233825   4.843   3.134   0.822  0.3832 -0.2880 -0.5636
 4137TIP3    H133826   4.887   3.084   0.754  0.6042 -0.5562 -0.2226
 4137TIP3    H233827   4.835   3.074   0.896  1.5864  0.4942  0.2182
 4138TIP3   OH233828   6.019   4.553   1.495  0.4961  0.4689 -0.2099
 4138TIP3    H133829   5.959   4.572   1.423 -0.6921 -1.3343  0.2541
 4138TIP3    H233830   6.091   4.504   1.455 -0.0765 -0.3760 -0.2253
 4139TIP3   OH233831   1.333   1.087   4.463  0.1952 -0.4262 -0.1184
 4139TIP3    H133832   1.262   1.141   4.498 -0.2890 -1.2838  0.2430
 4139TIP3    H233833   1.382   1.059   4.540  1.6470  1.1149 -0.4409
 4140TIP3   OH233834   4.959   6.520   0.758 -0.2945 -0.2218  0.1013
 4140TIP3    H133835   5.001   6.559   0.835  0.1214 -1.1630  0.3495
 4140TIP3    H233836   4.914   6.443   0.791  1.8545 -1.9785 -0.9995
 4141TIP3   OH233837   5.587   2.707   5.282 -0.8496 -0.0120  0.4671
 4141TIP3    H133838   5.555   2.633   5.334 -0.9144 -1.1477 -1.1240
 4141TIP3    H233839   5.565   2.683   5.192  1.9461  0.5150 -0.3801
 4142TIP3   OH233840   6.477   3.218  12.745 -0.2812 -0.0933  0.0616
 4142TIP3    H133841   6.430   3.141  12.712 -0.6907  0.0320  0.3491
 4142TIP3    H233842   6.532   3.245  12.671 -1.5738  0.4904 -0.7064
 4143TIP3   OH233843   4.680   0.327   1.777 -0.4732 -0.9498 -0.1069
 4143TIP3    H133844   4.682   0.333   1.873 -0.9156 -1.5089 -0.0644
 4143TIP3    H233845   4.714   0.240   1.758 -0.3805 -0.8371 -0.4676
 4144TIP3   OH233846   0.153   0.138  15.390  0.5490  0.0317 -0.3435
 4144TIP3    H133847   0.241   0.135  15.427 -0.1811 -1.8933  1.2825
 4144TIP3    H233848   0.122   0.048  15.394 -1.9524  0.8856  0.2214
 4145TIP3   OH233849   5.839   3.842   5.419 -1.0281  0.1175  0.0937
 4145TIP3    H133850   5.836   3.937   5.402  1.0076  0.0343 -0.8251
 4145TIP3    H233851   5.927   3.826   5.454 -1.5736 -1.3491  0.8339
 4146TIP3   OH233852   3.184   5.904   2.776 -0.7501  0.2004  0.0567
 4146TIP3    H133853   3.138   5.916   2.859  0.8072 -2.5958  1.4183
 4146TIP3    H233854   3.141   5.828   2.736 -1.4887  1.5299 -1.7337
 4147TIP3   OH233855   6.602   6.145  11.141  0.3261  0.0865  0.4745
 4147TIP3    H133856   6.619   6.143  11.235 -1.4174 -0.0485  0.8115
 4147TIP3    H233857   6.571   6.056  11.121  0.4187  0.1990 -0.1642
 4148TIP3   OH233858   1.671   2.977   4.667 -0.5798 -0.0026  0.0654
 4148TIP3    H133859   1.587   2.934   4.684  1.3297 -3.8625  0.1933
 4148TIP3    H233860   1.676   2.984   4.571 -1.3305  0.9115  0.0833
 4149TIP3   OH233861   1.995   2.857  11.500  0.2236 -0.2485 -0.3157
 4149TIP3    H133862   1.983   2.948  11.473 -0.9094 -0.0980  0.6563
 4149TIP3    H233863   2.085   2.853  11.531  0.8339  0.1126 -1.9623
 4150TIP3   OH233864   4.284   4.292   6.929  0.5625  0.1284 -0.1872
 4150TIP3    H133865   4.224   4.219   6.921  0.2939  0.5017 -1.9374
 4150TIP3    H233866   4.229   4.370   6.919  0.5536  0.6869  3.4510
 4151TIP3   OH233867   4.083   1.373  12.234  0.4654  0.4007 -0.0965
 4151TIP3    H133868   4.049   1.381  12.323 -0.4902  2.9384 -0.6542
 4151TIP3    H233869   4.007   1.351  12.181  0.8661 -0.1822 -0.4401
 4152TIP3   OH233870   3.727   3.133  13.414 -0.0164  0.5786  0.5077
 4152TIP3    H133871   3.765   3.211  13.453 -0.6154  1.7442 -1.1362
 4152TIP3    H233872   3.638   3.160  13.389  0.3724 -0.0625 -1.7006
 4153TIP3   OH233873   2.149   6.648   4.528 -0.1158  0.3525 -0.2923
 4153TIP3    H133874   2.149   6.743   4.540 -1.5157  0.1565  1.5577
 4153TIP3    H233875   2.241   6.626   4.512  0.3488  1.9313  0.1087
 4154TIP3   OH233876   2.454   4.669  12.404 -0.3593 -0.9531  0.9060
 4154TIP3    H133877   2.494   4.668  12.491 -0.6867 -2.0463  1.0514
 4154TIP3    H233878   2.452   4.577  12.377 -1.4481 -0.7676  0.3014
 4155TIP3   OH233879   6.428   1.179   3.384  0.2457  0.0919 -0.1645
 4155TIP3    H133880   6.440   1.120   3.309  0.8742  0.0623 -0.0424
 4155TIP3    H233881   6.344   1.152   3.422  0.5776 -0.7993 -0.0408
 4156TIP3   OH233882   4.017   0.698   4.618 -0.4164  0.0957  0.3162
 4156TIP3    H133883   4.028   0.702   4.714 -0.5912  0.2618  0.3270
 4156TIP3    H233884   4.099   0.733   4.584  0.0773 -0.9534  0.4068
 4157TIP3   OH233885   6.127   3.830   1.388  0.2890 -0.0513 -0.1571
 4157TIP3    H133886   6.101   3.868   1.303  0.5697 -1.3779 -0.8398
 4157TIP3    H233887   6.057   3.768   1.409  2.2731 -2.8448 -1.4845
 4158TIP3   OH233888   4.282   1.148   2.048  0.0840 -0.3449  0.5731
 4158TIP3    H133889   4.223   1.189   2.110 -0.5645 -0.4792  0.0485
 4158TIP3    H233890   4.237   1.068   2.022  1.5719 -1.6794  1.9976
 4159TIP3   OH233891   0.879   6.074  15.791  0.3193 -0.0236 -0.4398
 4159TIP3    H133892   0.971   6.076  15.816  0.1927  1.5054 -0.0756
 4159TIP3    H233893   0.870   5.994  15.740  1.3643 -1.3989  1.4409
 4160TIP3   OH233894   5.391   5.444   3.087 -0.7029 -0.1736  0.0476
 4160TIP3    H133895   5.350   5.380   3.028  0.0542 -1.3196  0.7469
 4160TIP3    H233896   5.449   5.495   3.031 -0.9721 -0.3876 -0.4306
 4161TIP3   OH233897   4.309   2.196   3.101 -0.0881  0.3249  0.4716
 4161TIP3    H133898   4.297   2.249   3.022  1.0528 -0.1865 -0.0608
 4161TIP3    H233899   4.227   2.205   3.149 -0.5564  1.1522 -0.4688
 4162TIP3   OH233900   3.643   3.901   2.418  0.1113 -0.4314  0.3204
 4162TIP3    H133901   3.602   3.985   2.435 -0.5228 -0.9129  1.2024
 4162TIP3    H233902   3.574   3.849   2.375 -0.1955 -1.2136  1.7239
 4163TIP3   OH233903   6.483   3.033   3.321  0.2362 -0.3993  0.3888
 4163TIP3    H133904   6.536   2.953   3.320  0.4155 -0.2711 -1.4628
 4163TIP3    H233905   6.544   3.101   3.350 -0.6270 -1.3594  4.8619
 4164TIP3   OH233906   5.035   3.169   1.816  0.6399 -0.7070  0.2271
 4164TIP3    H133907   4.978   3.153   1.741  0.8583 -0.3555 -0.0133
 4164TIP3    H233908   4.997   3.115   1.886  0.3110 -0.8696 -0.0722
 4165TIP3   OH233909   3.779   6.260  14.073 -1.1433 -0.1351  0.0305
 4165TIP3    H133910   3.774   6.212  14.155 -1.3549  0.5117  0.3993
 4165TIP3    H233911   3.781   6.192  14.005  0.9153 -0.7149  0.6536
 4166TIP3   OH233912   2.042   5.650   5.799 -0.3129  0.0475 -0.6692
 4166TIP3    H133913   1.982   5.593   5.750 -2.1072 -0.0921  1.5990
 4166TIP3    H233914   2.051   5.608   5.884  2.2398  0.6227 -0.6251
 4167TIP3   OH233915   1.420   1.321  16.127  0.0498  0.5100  0.3907
 4167TIP3    H133916   1.370   1.241  16.111  0.1338  0.1026  2.1024
 4167TIP3    H233917   1.497   1.312  16.071 -0.3263 -0.2338 -0.0228
 4168TIP3   OH233918   6.611   3.542  16.374  0.5521  0.0286  0.0174
 4168TIP3    H133919   6.667   3.595  16.318  1.1794 -1.6857 -1.0327
 4168TIP3    H233920   6.672   3.495  16.432  0.0198  0.3759  0.8776
 4169TIP3   OH233921   1.181   4.452  13.693  0.0719 -0.6629 -0.1728
 4169TIP3    H133922   1.210   4.542  13.709  1.6846 -1.4740  1.6988
 4169TIP3    H233923   1.148   4.452  13.604 -0.5325  1.9461  0.0306
 4170TIP3   OH233924   2.095   1.674  14.097 -0.7228 -0.2267  0.2134
 4170TIP3    H133925   2.067   1.725  14.173  0.8426 -0.8474  1.2355
 4170TIP3    H233926   2.139   1.736  14.040 -2.0652  0.2791 -0.3034
 4171TIP3   OH233927   5.825   0.540  11.180  0.0263  0.3322 -0.4324
 4171TIP3    H133928   5.918   0.531  11.199  0.4787  0.0790 -2.6038
 4171TIP3    H233929   5.789   0.453  11.197  0.3686  0.1682 -0.5441
 4172TIP3   OH233930   6.474   4.504   5.928 -0.2464  0.2363  0.4471
 4172TIP3    H133931   6.422   4.495   6.008 -1.0304  1.0866  0.0457
 4172TIP3    H233932   6.507   4.594   5.930  2.8052 -0.8547  1.6257
 4173TIP3   OH233933   3.342   5.770  13.333  0.2631 -0.0675  0.4629
 4173TIP3    H133934   3.272   5.705  13.321  1.5308 -1.2430 -0.8338
 4173TIP3    H233935   3.376   5.751  13.421  0.7510 -1.3264  0.0247
 4174TIP3   OH233936   0.347   1.955  14.531 -0.0018  0.0235 -0.5523
 4174TIP3    H133937   0.253   1.971  14.519  0.1033 -0.1692 -1.7838
 4174TIP3    H233938   0.360   1.953  14.625 -1.2536 -0.0263 -0.3767
 4175TIP3   OH233939   1.772   0.710  12.370 -0.5844  0.3140  0.5239
 4175TIP3    H133940   1.794   0.794  12.330  1.2500  0.5339  1.9504
 4175TIP3    H233941   1.853   0.659  12.366 -1.8781 -1.7401 -1.0635
 4176TIP3   OH233942   5.556   5.196  17.146 -0.4727  0.0666  0.0205
 4176TIP3    H133943   5.529   5.205  17.055 -0.6721  2.3981  0.2894
 4176TIP3    H233944   5.503   5.123  17.179 -0.0569 -1.1150 -1.8161
 4177TIP3   OH233945   2.920   6.067   2.685  0.3403 -0.3827  0.3774
 4177TIP3    H133946   2.888   5.977   2.683 -2.1756  0.4501  0.4173
 4177TIP3    H233947   2.919   6.095   2.593 -1.2497  0.3320  0.5769
 4178TIP3   OH233948   3.498   0.032  12.680  0.0919 -0.7683  0.1459
 4178TIP3    H133949   3.530   0.090  12.611 -0.3080 -0.3869  0.2778
 4178TIP3    H233950   3.569  -0.031  12.694  0.9477  0.3370  0.7555
 4179TIP3   OH233951   1.358   6.732  14.774  0.8131  0.8193 -0.1421
 4179TIP3    H133952   1.381   6.763  14.686  0.7144  1.1000 -0.0722
 4179TIP3    H233953   1.375   6.807  14.831  3.5821 -0.2331  0.4993
 4180TIP3   OH233954   1.947   1.536   5.582 -0.0983 -0.2512  0.0858
 4180TIP3    H133955   1.918   1.566   5.496 -2.8640 -0.8265  0.7699
 4180TIP3    H233956   1.976   1.446   5.568  0.3418 -0.0331 -0.4056
 4181TIP3   OH233957   4.765   4.378  15.200 -0.2398 -0.1335 -0.1299
 4181TIP3    H133958   4.844   4.419  15.166 -0.6280  2.2260  1.7026
 4181TIP3    H233959   4.782   4.284  15.192  2.9651  0.3178  0.6770
 4182TIP3   OH233960   5.774   6.295   4.201 -0.8402  0.2580  0.0056
 4182TIP3    H133961   5.752   6.219   4.147  1.8132  0.7716 -1.8852
 4182TIP3    H233962   5.817   6.258   4.278 -0.0838 -0.1911 -0.6318
 4183TIP3   OH233963   4.497   0.806   3.977 -0.0550 -0.6070 -0.3497
 4183TIP3    H133964   4.566   0.862   3.941  1.1377 -2.0671 -0.3694
 4183TIP3    H233965   4.434   0.867   4.014  2.1510  0.7218  1.3431
 4184TIP3   OH233966   4.836   3.833   3.194 -0.1374 -0.0834  0.0321
 4184TIP3    H133967   4.801   3.749   3.162 -1.2336  0.5218 -0.3928
 4184TIP3    H233968   4.929   3.817   3.206 -1.1062 -2.9743  5.1385
 4185TIP3   OH233969   2.055   0.571   1.981  0.1438  0.1407  0.6320
 4185TIP3    H133970   2.014   0.607   2.060 -1.3118 -1.7861  0.7835
 4185TIP3    H233971   2.024   0.481   1.976  1.2400 -0.1651 -1.4529
 4186TIP3   OH233972   5.807   0.411   1.560  0.4090 -0.6714  0.4601
 4186TIP3    H133973   5.801   0.490   1.506  0.5188 -0.8106  0.2410
 4186TIP3    H233974   5.873   0.357   1.516 -1.5016 -2.0187 -0.8642
 4187TIP3   OH233975   5.442   0.626  15.492 -0.9440  0.1270  0.2241
 4187TIP3    H133976   5.536   0.607  15.491 -0.8752  0.3476 -1.9534
 4187TIP3    H233977   5.438   0.722  15.493 -1.1693  0.1121  1.2408
 4188TIP3   OH233978   0.222   3.876  14.966 -0.1058  0.3723 -0.2851
 4188TIP3    H133979   0.298   3.924  15.000  0.8949 -1.2494 -0.2189
 4188TIP3    H233980   0.212   3.801  15.024 -1.2213  0.0847 -0.8276
 4189TIP3   OH233981   0.251   2.337   5.340 -0.6676 -0.2455 -0.2048
 4189TIP3    H133982   0.225   2.365   5.428 -0.1439 -0.5338  0.0467
 4189TIP3    H233983   0.223   2.408   5.283  0.1511  0.5558  0.3607
 4190TIP3   OH233984   3.042   4.764  14.762 -0.4828  0.3900  0.3630
 4190TIP3    H133985   3.032   4.831  14.829  1.0587  0.7732  0.2241
 4190TIP3    H233986   3.132   4.774  14.731 -1.0701 -0.0183 -1.5147
 4191TIP3   OH233987   5.942   6.742  11.883 -0.4131 -0.0177 -0.1877
 4191TIP3    H133988   5.899   6.662  11.914 -0.9639 -1.5798 -4.6542
 4191TIP3    H233989   5.873   6.790  11.838  0.6961  1.3426 -0.4632
 4192TIP3   OH233990   1.858   2.466  14.055  0.2795  0.0645  0.3986
 4192TIP3    H133991   1.931   2.406  14.040  1.8286  1.3098  2.6215
 4192TIP3    H233992   1.820   2.437  14.138 -2.2778 -1.0249 -1.0824
 4193TIP3   OH233993   0.493   4.723  12.360  0.2468 -0.0231  0.4302
 4193TIP3    H133994   0.493   4.764  12.446 -1.3020  0.3976  0.2410
 4193TIP3    H233995   0.447   4.640  12.372  0.7924 -0.3605  0.1950
 4194TIP3   OH233996   4.323   5.573   3.970  0.3675 -0.5605  0.2130
 4194TIP3    H133997   4.375   5.651   3.950  0.0535  0.0365  1.6293
 4194TIP3    H233998   4.348   5.550   4.060 -1.5349 -0.4777  0.7804
 4195TIP3   OH233999   3.393   5.997  16.434  0.0030 -0.4928  0.3497
 4195TIP3    H134000   3.386   6.041  16.519  0.0955 -0.2054  0.2068
 4195TIP3    H234001   3.481   6.018  16.403 -0.0929 -0.4560  0.1010
 4196TIP3   OH234002   0.099   5.890   1.721 -0.2222  0.0555 -0.4831
 4196TIP3    H134003   0.192   5.907   1.735 -0.4955  0.4787  0.9545
 4196TIP3    H234004   0.055   5.950   1.782 -1.3506 -1.8346  0.5990
 4197TIP3   OH234005   6.558   2.825   4.679  0.0919  0.3048 -0.0985
 4197TIP3    H134006   6.618   2.900   4.674 -1.2052  1.5050  1.8514
 4197TIP3    H234007   6.473   2.860   4.650 -0.2284 -0.7752 -0.5038
 4198TIP3   OH234008   5.952   5.412   4.886  0.2451  0.4832  0.0005
 4198TIP3    H134009   5.978   5.489   4.936  0.5835 -0.3361  1.1142
 4198TIP3    H234010   5.989   5.338   4.934  0.3813 -0.3440 -1.3455
 4199TIP3   OH234011   0.142   2.466  12.871 -0.0290  0.2164 -0.0017
 4199TIP3    H134012   0.078   2.458  12.799 -0.0360 -1.4022  0.1642
 4199TIP3    H234013   0.151   2.560  12.884 -2.2968  0.4754 -0.1165
 4200TIP3   OH234014   0.864   4.715  16.209  0.0693  1.0320 -0.6996
 4200TIP3    H134015   0.850   4.640  16.267 -0.1963 -0.3345 -2.5013
 4200TIP3    H234016   0.909   4.779  16.264  0.1007 -0.3482  0.9309
 4201TIP3   OH234017   1.497   2.832   1.733 -0.1273  0.0987  0.0563
 4201TIP3    H134018   1.427   2.801   1.676  0.2950  0.8423 -0.8890
 4201TIP3    H234019   1.565   2.862   1.673  0.4250  0.6821  0.9536
 4202TIP3   OH234020   0.643   4.577  16.871 -0.1007  0.3904 -0.3064
 4202TIP3    H134021   0.693   4.659  16.859  1.3750 -0.2941  0.9322
 4202TIP3    H234022   0.671   4.545  16.957 -4.0429  0.8880  1.2597
 4203TIP3   OH234023   0.430   5.433   5.782 -0.5329  0.1688  0.9192
 4203TIP3    H134024   0.367   5.389   5.840 -0.7983 -0.6535  0.0187
 4203TIP3    H234025   0.498   5.466   5.841 -1.0944 -0.1486  1.7581
 4204TIP3   OH234026   2.807   4.742  16.357  0.2535 -0.0546  0.0376
 4204TIP3    H134027   2.848   4.685  16.423  0.0944  1.2402  1.2589
 4204TIP3    H234028   2.783   4.821  16.405 -0.6029  0.5715 -1.4140
 4205TIP3   OH234029   0.003   3.680  12.611 -0.4036  0.5529 -0.2568
 4205TIP3    H134030  -0.011   3.756  12.554 -0.9335  1.3835  0.9593
 4205TIP3    H234031  -0.055   3.695  12.686  0.4557 -0.4004  0.6184
 4206TIP3   OH234032   4.151   0.135   2.854  0.7972  0.0812 -0.4523
 4206TIP3    H134033   4.205   0.165   2.927  1.3180 -0.8267 -0.4668
 4206TIP3    H234034   4.161   0.203   2.787  2.5376 -0.4586 -0.7602
 4207TIP3   OH234035   6.572   2.692   3.993  0.3437 -0.0480 -0.2765
 4207TIP3    H134036   6.543   2.729   3.910  0.0274  1.1571  0.3535
 4207TIP3    H234037   6.612   2.608   3.970 -1.7972 -0.8054 -1.3998
 4208TIP3   OH234038   5.532   1.234  16.044 -0.6375 -0.0454 -0.0240
 4208TIP3    H134039   5.564   1.193  15.964  0.1223 -0.8587  0.6862
 4208TIP3    H234040   5.598   1.301  16.064  0.5035 -1.5289  1.2855
 4209TIP3   OH234041   1.422   4.484  11.369  0.6463 -0.0825 -0.6225
 4209TIP3    H134042   1.508   4.520  11.388  1.1330  0.1230 -3.0247
 4209TIP3    H234043   1.439   4.415  11.304 -0.5797 -2.7232  1.7281
 4210TIP3   OH234044   4.715   0.675  11.675  0.1970 -0.4534 -0.4632
 4210TIP3    H134045   4.630   0.696  11.712  0.7520 -1.5600  1.5136
 4210TIP3    H234046   4.771   0.748  11.703 -0.0003  0.0536 -1.3909
 4211TIP3   OH234047   3.477   4.617   1.617  0.3900 -0.6859  0.1181
 4211TIP3    H134048   3.490   4.558   1.691 -0.7825 -1.1280 -0.0086
 4211TIP3    H234049   3.432   4.563   1.551  0.2562  0.0532 -0.4009
 4212TIP3   OH234050   4.411   5.364  16.272  0.3475  0.1010  0.0407
 4212TIP3    H134051   4.343   5.391  16.334  1.3326  2.6493  0.0458
 4212TIP3    H234052   4.453   5.289  16.314 -2.3468 -1.4581  0.0900
 4213TIP3   OH234053   4.608   3.296  13.524  0.1274 -0.2786  0.1721
 4213TIP3    H134054   4.535   3.270  13.467 -0.4593  0.0370  0.7632
 4213TIP3    H234055   4.565   3.324  13.605  0.8692  0.5138  0.2960
 4214TIP3   OH234056   4.020   6.060  14.718 -0.2197  0.1149 -0.5875
 4214TIP3    H134057   4.024   5.965  14.711  0.1835  0.2288 -2.1782
 4214TIP3    H234058   4.108   6.086  14.742 -0.1464  0.1301 -0.8691
 4215TIP3   OH234059   5.166   2.310  11.494 -0.0142 -0.3320  0.1180
 4215TIP3    H134060   5.258   2.316  11.465  0.6792 -0.3512  2.2505
 4215TIP3    H234061   5.131   2.234  11.447  1.4426 -1.1321  0.2914
 4216TIP3   OH234062   1.483   6.340   5.655 -0.3059 -0.2858 -0.2076
 4216TIP3    H134063   1.448   6.406   5.715  0.1673 -0.8433  0.6900
 4216TIP3    H234064   1.407   6.289   5.629 -0.8983  1.4531 -1.9779
 4217TIP3   OH234065   3.454   2.119  15.259  0.0150  0.4151 -0.1077
 4217TIP3    H134066   3.485   2.032  15.233 -1.8703 -0.0750 -0.8041
 4217TIP3    H234067   3.480   2.128  15.350  0.4282 -0.8046 -0.0971
 4218TIP3   OH234068   5.449   5.551   0.179 -0.4094 -0.0704  0.1531
 4218TIP3    H134069   5.449   5.610   0.255  1.0971  0.5182 -0.2831
 4218TIP3    H234070   5.448   5.610   0.104 -2.1771 -0.6548 -0.2925
 4219TIP3   OH234071   2.471   0.262   3.416  0.0015  0.1186 -0.0256
 4219TIP3    H134072   2.538   0.292   3.354  0.8405  0.0245  0.8059
 4219TIP3    H234073   2.522   0.221   3.487 -1.0172 -1.3882 -0.1367
 4220TIP3   OH234074   6.265   6.131   4.606  0.1102 -1.0569 -0.2003
 4220TIP3    H134075   6.184   6.112   4.559  0.0452 -0.4304 -0.3350
 4220TIP3    H234076   6.334   6.109   4.542  0.0285 -0.5954 -0.4500
 4221TIP3   OH234077   1.199   0.392   5.790 -0.3907 -0.0758  0.1790
 4221TIP3    H134078   1.132   0.330   5.820  1.5484 -1.6622  1.3571
 4221TIP3    H234079   1.206   0.377   5.696 -0.8411 -0.7362  0.2499
 4222TIP3   OH234080   4.418   4.335  13.272 -0.0104 -0.2895 -0.2321
 4222TIP3    H134081   4.453   4.390  13.342  1.4146 -1.4024 -0.0481
 4222TIP3    H234082   4.476   4.259  13.270  0.1426 -0.1474 -2.8247
 4223TIP3   OH234083   0.174   1.512  13.774  0.4223  0.1265  0.0977
 4223TIP3    H134084   0.232   1.589  13.773  1.5708 -0.7156 -0.3385
 4223TIP3    H234085   0.086   1.547  13.785  0.6007  1.7371 -3.0177
 4224TIP3   OH234086   2.733   0.272  12.418 -1.4644  0.1150 -0.5502
 4224TIP3    H134087   2.761   0.265  12.327 -1.3581  1.1939 -0.6024
 4224TIP3    H234088   2.814   0.276  12.468 -1.5018  1.4829 -0.5693
 4225TIP3   OH234089   4.845   1.828   1.302 -0.2407 -0.3114  0.3497
 4225TIP3    H134090   4.774   1.849   1.241  0.1595 -2.8083 -1.0492
 4225TIP3    H234091   4.905   1.774   1.251  1.8595  0.4073  1.9962
 4226TIP3   OH234092   1.199   4.883   1.172  0.3038  0.4468  0.1742
 4226TIP3    H134093   1.167   4.972   1.189 -0.9709  0.3811 -1.7042
 4226TIP3    H234094   1.121   4.828   1.180  0.3251 -0.0081 -2.2527
 4227TIP3   OH234095   2.786   1.581  11.665 -0.1190  0.1158  0.6326
 4227TIP3    H134096   2.700   1.622  11.657 -1.8533 -3.4939 -0.5095
 4227TIP3    H234097   2.780   1.529  11.745 -0.3983 -3.0788 -1.3845
 4228TIP3   OH234098   5.917   3.184  17.224  0.4150  0.0759  0.3180
 4228TIP3    H134099   5.852   3.231  17.173 -0.3175 -2.7027 -1.3853
 4228TIP3    H234100   6.000   3.203  17.180  0.3168  0.8437  0.4545
 4229TIP3   OH234101   4.779   2.714   2.166  0.7663 -0.0152 -0.3285
 4229TIP3    H134102   4.822   2.638   2.204 -2.6587 -1.9171 -0.0059
 4229TIP3    H234103   4.761   2.772   2.240  0.3109 -0.5061 -0.0510
 4230TIP3   OH234104   6.510   5.646   5.863 -0.2576  0.4302  0.0455
 4230TIP3    H134105   6.498   5.580   5.794 -3.2754  1.4047 -0.4201
 4230TIP3    H234106   6.554   5.599   5.934  3.9243 -0.3796 -2.8263
 4231TIP3   OH234107   3.770   5.773   5.075 -0.3829  0.3576 -0.1756
 4231TIP3    H134108   3.699   5.745   5.017  0.5170 -1.3725 -0.4827
 4231TIP3    H234109   3.739   5.753   5.163  0.5241 -2.3506 -0.4286
 4232TIP3   OH234110   5.657   5.965   1.797 -0.3821 -0.4016  0.0432
 4232TIP3    H134111   5.610   5.882   1.806  1.5576 -1.6545 -1.0410
 4232TIP3    H234112   5.749   5.943   1.814  0.1753  1.5138 -0.3347
 4233TIP3   OH234113   5.834   5.094   3.790  0.1954 -0.2015  0.3584
 4233TIP3    H134114   5.755   5.054   3.751  0.6617  0.3577 -1.1696
 4233TIP3    H234115   5.859   5.163   3.730  1.5540 -0.0023  1.1246
 4234TIP3   OH234116   6.344   0.814  12.474 -0.3084  0.2060 -0.5734
 4234TIP3    H134117   6.300   0.857  12.400 -3.3032 -0.4474  0.7695
 4234TIP3    H234118   6.351   0.722  12.447 -1.6930 -0.0947  0.0701
 4235TIP3   OH234119   3.816   2.245  14.167  0.3393 -0.1870  0.4317
 4235TIP3    H134120   3.833   2.209  14.254  1.4972 -0.7968 -0.0344
 4235TIP3    H234121   3.721   2.255  14.163  0.2704 -0.2897  1.7152
 4236TIP3   OH234122   3.419   1.961  13.287 -0.4779  0.0139  0.2749
 4236TIP3    H134123   3.458   1.894  13.231  0.5667  0.0958  0.8951
 4236TIP3    H234124   3.477   2.037  13.277 -0.1793 -0.0303  1.5983
 4237TIP3   OH234125   6.011   3.778  14.801  0.1047  0.0969  0.1762
 4237TIP3    H134126   5.997   3.855  14.855  1.0955  0.8837 -0.6780
 4237TIP3    H234127   5.987   3.805  14.712  2.5542  0.1059 -0.5137
 4238TIP3   OH234128   1.916   1.876   0.368  0.8400  0.1364 -0.4169
 4238TIP3    H134129   1.850   1.808   0.382  0.3922  0.8471  1.0748
 4238TIP3    H234130   1.888   1.920   0.287 -1.2565  1.2388  0.8648
 4239TIP3   OH234131   1.963   3.275  13.921 -0.3604  0.0398 -0.3980
 4239TIP3    H134132   2.005   3.238  13.999 -1.4909  0.0618  0.2281
 4239TIP3    H234133   1.959   3.202  13.859  0.2921 -0.0459 -0.3513
 4240TIP3   OH234134   0.186   6.686   5.095 -0.8444 -0.0425  0.5865
 4240TIP3    H134135   0.120   6.628   5.057 -0.9491  0.0475  0.6305
 4240TIP3    H234136   0.142   6.726   5.170 -1.2306  1.1321 -0.2420
 4241TIP3   OH234137   2.582   1.626   5.387  0.4586 -0.2472  0.3477
 4241TIP3    H134138   2.569   1.532   5.402  1.7492 -0.2363  1.6590
 4241TIP3    H234139   2.662   1.647   5.435  0.7223  1.3315 -0.7482
 4242TIP3   OH234140   2.172   2.913  12.959 -0.0655  0.1119 -0.0678
 4242TIP3    H134141   2.136   2.838  13.006  1.3937  0.3969  1.5575
 4242TIP3    H234142   2.267   2.897  12.956  0.0484  0.8851 -1.5329
 4243TIP3   OH234143   0.891   1.076   4.597  0.4203 -0.2889  0.2102
 4243TIP3    H134144   0.803   1.104   4.624 -0.7319 -3.2250 -0.3737
 4243TIP3    H234145   0.916   1.010   4.661  2.4846  0.8976  0.6934
 4244TIP3   OH234146   0.225   5.607  16.829 -0.4286 -0.3118 -0.6186
 4244TIP3    H134147   0.140   5.645  16.807 -0.9808 -0.9618  0.3202
 4244TIP3    H234148   0.240   5.636  16.919 -0.4087 -1.5073 -0.2284
 4245TIP3   OH234149   3.762   2.981  15.226 -0.4533  0.0200 -0.1957
 4245TIP3    H134150   3.704   2.992  15.150 -0.4403 -0.7690 -0.3145
 4245TIP3    H234151   3.714   2.926  15.286  0.4691 -1.2541 -0.6084
 4246TIP3   OH234152   3.895   0.655   5.361 -0.0464  0.3193 -0.1064
 4246TIP3    H134153   3.963   0.654   5.428  0.6447  1.7158 -0.7658
 4246TIP3    H234154   3.942   0.671   5.279 -1.1026  0.7047 -0.6541
 4247TIP3   OH234155   3.414   5.036   6.336 -0.5325  0.2049  0.0115
 4247TIP3    H134156   3.398   4.954   6.382  0.9643 -0.3959 -0.5079
 4247TIP3    H234157   3.500   5.064   6.367  1.0702 -0.8606 -3.3169
 4248TIP3   OH234158   0.544   6.108  10.996  0.3623  0.1312  0.7341
 4248TIP3    H134159   0.522   6.201  11.003 -1.4725 -0.4335  2.8817
 4248TIP3    H234160   0.498   6.078  10.917  0.9098  1.0177  0.0735
 4249TIP3   OH234161   6.435   2.529   2.851 -0.3070 -0.3330  0.2714
 4249TIP3    H134162   6.513   2.534   2.796 -0.3924  1.6227  0.2927
 4249TIP3    H234163   6.458   2.577   2.931 -1.4802  0.1361  0.3424
 4250TIP3   OH234164   3.824   2.054  11.034 -0.1349 -0.0736  0.1510
 4250TIP3    H134165   3.857   2.031  11.121 -1.8350  2.8177  1.6356
 4250TIP3    H234166   3.816   2.149  11.035 -0.9334 -0.0297 -2.9202
 4251TIP3   OH234167   5.297   3.494  11.246  0.5125 -0.5054 -0.1924
 4251TIP3    H134168   5.365   3.493  11.315 -0.1544  2.4620  0.5838
 4251TIP3    H234169   5.336   3.547  11.176 -0.9398  1.1726  0.2395
 4252TIP3   OH234170   6.544   4.867   2.141 -0.1668 -0.7448 -0.1569
 4252TIP3    H134171   6.562   4.958   2.161 -4.3806  0.6460 -2.0669
 4252TIP3    H234172   6.567   4.857   2.049  0.0173 -1.5512 -0.0346
 4253TIP3   OH234173   1.279   6.489   3.164  0.2343  0.3331  0.2685
 4253TIP3    H134174   1.338   6.538   3.221 -0.3498  2.6067 -1.0353
 4253TIP3    H234175   1.191   6.511   3.196 -0.0409  0.3268 -0.4751
 4254TIP3   OH234176   4.330   6.366  16.151 -0.0842 -0.5286  0.8679
 4254TIP3    H134177   4.299   6.278  16.173  1.5686 -1.5272 -0.6171
 4254TIP3    H234178   4.425   6.361  16.162 -0.0619  1.3325  1.6139
 4255TIP3   OH234179   0.681   2.520  13.309 -0.7765 -0.1943 -0.0201
 4255TIP3    H134180   0.695   2.531  13.215  0.7484 -0.5049  0.1639
 4255TIP3    H234181   0.628   2.595  13.334 -2.1309 -0.6898 -1.3295
 4256TIP3   OH234182   3.623   2.260   0.191 -0.1124 -0.0975 -0.2873
 4256TIP3    H134183   3.596   2.173   0.159  0.8638 -0.3805 -0.3692
 4256TIP3    H234184   3.691   2.241   0.256  1.0475  0.6455 -1.2545
 4257TIP3   OH234185   5.225   0.684  12.588  0.5117  0.5065  0.2825
 4257TIP3    H134186   5.238   0.620  12.518  2.0952 -0.6118  1.5606
 4257TIP3    H234187   5.159   0.645  12.645 -0.1851  1.0491 -0.1502
 4258TIP3   OH234188   0.675   5.054  14.326 -0.2566  0.5389  0.1076
 4258TIP3    H134189   0.716   4.975  14.363 -0.1918  0.5228  0.0044
 4258TIP3    H234190   0.748   5.103  14.290 -0.2661  0.7778  0.4141
 4259TIP3   OH234191   4.840   0.706   5.558  0.2062  0.3852 -0.4964
 4259TIP3    H134192   4.803   0.794   5.560  0.8212  0.6306  1.3612
 4259TIP3    H234193   4.865   0.692   5.467 -1.0012  1.6636 -1.0337
 4260TIP3   OH234194   6.467   4.025  13.285  0.0001  0.0287 -0.3489
 4260TIP3    H134195   6.553   4.064  13.298 -0.3481  0.1149  1.9603
 4260TIP3    H234196   6.406   4.097  13.296 -0.4326 -0.3388 -0.3332
 4261TIP3   OH234197   4.907   3.123  11.431 -0.3007  0.1602 -0.1226
 4261TIP3    H134198   4.971   3.189  11.404  1.1744 -0.6575  1.3530
 4261TIP3    H234199   4.822   3.161  11.406  0.6741  1.6306 -1.2868
 4262TIP3   OH234200   0.541   5.118  10.524 -0.1306 -0.7237  0.7815
 4262TIP3    H134201   0.567   5.028  10.504 -0.2905 -0.4201 -0.8873
 4262TIP3    H234202   0.586   5.139  10.606  2.0219 -1.4122 -0.1922
 4263TIP3   OH234203   5.409   2.472   2.101 -0.0967 -0.4067 -0.4034
 4263TIP3    H134204   5.394   2.529   2.026 -0.1948  0.2285  0.0943
 4263TIP3    H234205   5.357   2.394   2.083  0.9980 -0.8534 -1.6662
 4264TIP3   OH234206   3.862   2.355   4.316  0.3444  1.3917  0.1709
 4264TIP3    H134207   3.938   2.406   4.290 -0.0373  2.2381  0.6952
 4264TIP3    H234208   3.892   2.303   4.391  1.0338  0.0287 -1.0234
 4265TIP3   OH234209   2.334   3.453   1.952 -0.3095 -0.3245  0.3358
 4265TIP3    H134210   2.362   3.397   2.023 -0.2119  0.1822  0.6982
 4265TIP3    H234211   2.282   3.395   1.895  1.8301 -1.3728 -0.5988
 4266TIP3   OH234212   2.484   1.150  11.174  0.2822 -0.1437  0.3678
 4266TIP3    H134213   2.444   1.144  11.087 -0.3465  0.5266  0.6105
 4266TIP3    H234214   2.576   1.172  11.157 -0.3755  2.4009 -0.0585
 4267TIP3   OH234215   0.549   5.315   6.225  0.1203  0.3377  0.1753
 4267TIP3    H134216   0.500   5.253   6.279 -2.1736  1.9966  0.0702
 4267TIP3    H234217   0.575   5.384   6.286 -0.7500  1.2143 -0.4359
 4268TIP3   OH234218   2.345   5.087   0.011  0.1511 -0.6367  0.5489
 4268TIP3    H134219   2.368   5.092   0.104  1.1478  1.7476  0.2350
 4268TIP3    H234220   2.422   5.050  -0.031  0.4675  0.1072  0.4580
 4269TIP3   OH234221   5.827   0.417  14.484  0.5539  0.2712  0.0283
 4269TIP3    H134222   5.769   0.416  14.560  1.5498  0.0770  0.8066
 4269TIP3    H234223   5.907   0.374  14.515  0.2366 -1.6188 -1.7387
 4270TIP3   OH234224   2.119   6.464   5.233 -0.3319  0.0283 -0.4552
 4270TIP3    H134225   2.026   6.446   5.246  0.1195 -0.9280  1.5683
 4270TIP3    H234226   2.131   6.552   5.267 -0.6840  0.5478 -1.6541
 4271TIP3   OH234227   6.474   5.805  12.857  0.4036  0.1870 -0.2952
 4271TIP3    H134228   6.454   5.712  12.860 -1.1605  0.5661  3.9883
 4271TIP3    H234229   6.464   5.829  12.765 -1.7280 -3.3071 -1.0413
 4272TIP3   OH234230   4.648   6.427  12.781 -0.0992  0.1379 -0.3995
 4272TIP3    H134231   4.722   6.467  12.734  0.8836 -0.6049  0.4825
 4272TIP3    H234232   4.574   6.434  12.721  0.5183  1.5635 -1.0082
 4273TIP3   OH234233   4.632   2.679  12.296  0.2830 -0.0146 -1.0213
 4273TIP3    H134234   4.636   2.590  12.331  1.8250  0.2964 -0.3418
 4273TIP3    H234235   4.720   2.694  12.260  0.3431  1.5573 -0.2738
 4274TIP3   OH234236   6.405   2.046  10.676 -0.3934 -0.0329  0.3624
 4274TIP3    H134237   6.496   2.017  10.671 -0.2511 -0.0367  2.5515
 4274TIP3    H234238   6.410   2.141  10.667 -0.2779 -0.1183 -0.5333
 4275TIP3   OH234239   2.042   4.822  15.529 -0.4865  0.0648  0.0148
 4275TIP3    H134240   2.079   4.765  15.462  0.6457  1.3571 -0.5029
 4275TIP3    H234241   1.953   4.840  15.499 -0.0315  0.5336 -1.1144
 4276TIP3   OH234242   3.321   5.599   0.715 -0.1627  0.3808  0.1599
 4276TIP3    H134243   3.414   5.580   0.722 -0.2942  0.1981  1.4833
 4276TIP3    H234244   3.295   5.562   0.630  1.0819  0.9647 -0.4863
 4277TIP3   OH234245   4.937   4.162  12.377  0.0477  0.5103  0.4215
 4277TIP3    H134246   4.884   4.116  12.442  0.5453 -1.0991 -0.2961
 4277TIP3    H234247   4.879   4.232  12.345 -1.6447 -1.1999 -0.3323
 4278TIP3   OH234248   0.717   5.587  10.582  0.3036 -0.1558 -0.4733
 4278TIP3    H134249   0.768   5.642  10.642  0.9931 -0.3312 -0.8959
 4278TIP3    H234250   0.772   5.510  10.568 -0.4993 -0.7951 -0.1712
 4279TIP3   OH234251   1.904   5.408  14.761  0.2678 -0.4748 -0.2265
 4279TIP3    H134252   1.969   5.471  14.793  2.6394 -1.9028 -2.0951
 4279TIP3    H234253   1.874   5.445  14.678 -2.3594  0.8374  1.2387
 4280TIP3   OH234254   2.757   1.981  12.740  0.2475 -0.0346 -0.6359
 4280TIP3    H134255   2.774   2.055  12.682  2.3092  2.7117  3.2658
 4280TIP3    H234256   2.840   1.932  12.742  0.0659 -0.3362 -0.3182
 4281TIP3   OH234257   5.591   0.606  13.499  0.3012  0.2665  0.0596
 4281TIP3    H134258   5.672   0.573  13.537  0.9998  1.8635  0.0130
 4281TIP3    H234259   5.613   0.626  13.408 -0.6809 -1.1258 -0.5138
 4282TIP3   OH234260   0.377   2.609   1.560 -0.3835  0.0084 -0.1322
 4282TIP3    H134261   0.291   2.603   1.603 -1.1790  1.0360 -1.5311
 4282TIP3    H234262   0.406   2.698   1.577  0.1358 -0.1450 -0.2017
 4283TIP3   OH234263   0.733   0.366  15.027 -0.0733  0.4744  0.1311
 4283TIP3    H134264   0.662   0.342  14.967  0.4900 -2.5746  0.6109
 4283TIP3    H234265   0.804   0.394  14.970 -0.3710 -0.0702 -0.5072
 4284TIP3   OH234266   2.877   5.695  11.669  0.4986  0.3117 -0.2899
 4284TIP3    H134267   2.914   5.779  11.641 -2.5797  2.2149  1.0373
 4284TIP3    H234268   2.813   5.674  11.602 -1.7449  1.2159  1.5286
 4285TIP3   OH234269   0.470   2.085   1.694 -0.3000 -0.0272 -0.4323
 4285TIP3    H134270   0.554   2.128   1.707 -1.1167  0.9251  1.8774
 4285TIP3    H234271   0.440   2.063   1.782 -1.2094 -2.8337 -1.3851
 4286TIP3   OH234272   1.646   2.658   3.964  0.5526  0.7708 -0.1628
 4286TIP3    H134273   1.633   2.728   4.027  0.3780  0.1311  0.5191
 4286TIP3    H234274   1.700   2.697   3.896 -0.3054  1.8245 -0.2466
 4287TIP3   OH234275   6.184   1.089   3.488  0.3854 -0.1005 -0.4072
 4287TIP3    H134276   6.181   0.996   3.466 -1.3816 -0.3167  0.6088
 4287TIP3    H234277   6.118   1.129   3.431  0.5887  0.4054 -0.2872
 4288TIP3   OH234278   5.786   3.708   2.242  0.5287  0.3755  0.1373
 4288TIP3    H134279   5.870   3.684   2.281 -0.2165 -0.5675  1.1925
 4288TIP3    H234280   5.725   3.709   2.316 -0.9108 -1.4541 -0.9864
 4289TIP3   OH234281   1.602   4.642   0.886  0.2719 -0.4110  0.3464
 4289TIP3    H134282   1.652   4.712   0.927  0.6691 -0.7095  0.3800
 4289TIP3    H234283   1.521   4.637   0.937  0.9619 -1.0924  1.3983
 4290TIP3   OH234284   1.228   4.564   6.414  0.0297  0.1600  0.4507
 4290TIP3    H134285   1.309   4.523   6.386  0.2561  1.2587 -0.5271
 4290TIP3    H234286   1.166   4.492   6.422  0.1239 -0.2675 -2.2905
 4291TIP3   OH234287   0.923   3.606  15.029  0.2234  0.0677  0.7043
 4291TIP3    H134288   0.921   3.532  14.967 -0.2936  0.6371  0.0391
 4291TIP3    H234289   0.927   3.564  15.115 -0.2645 -0.7453  0.3424
 4292TIP3   OH234290   5.912   2.801  15.500 -0.1116  0.1766 -0.6354
 4292TIP3    H134291   5.833   2.848  15.472  0.6485  2.0704  0.3487
 4292TIP3    H234292   5.897   2.783  15.592 -0.5412 -1.8655 -1.0775
 4293TIP3   OH234293   1.522   4.902   2.409  0.3263 -0.2094  0.0472
 4293TIP3    H134294   1.614   4.911   2.431  0.3811  0.7289 -0.5527
 4293TIP3    H234295   1.509   4.959   2.334 -0.9197  0.2444  0.5924
 4294TIP3   OH234296   1.096   4.412  14.751 -0.6814 -0.2507  0.1031
 4294TIP3    H134297   1.155   4.424  14.826 -1.5190  1.0508  0.5799
 4294TIP3    H234298   1.151   4.426  14.675  0.1429 -1.4116  0.4669
 4295TIP3   OH234299   0.708   1.401   2.233 -0.5904 -0.1275 -0.6994
 4295TIP3    H134300   0.715   1.400   2.137  0.3393  1.5782 -0.6599
 4295TIP3    H234301   0.626   1.447   2.250 -1.0978 -1.0154 -0.6632
 4296TIP3   OH234302   0.330   2.497  16.822 -0.2906  0.0296 -0.0533
 4296TIP3    H134303   0.373   2.460  16.900  1.2700  1.0404 -0.4052
 4296TIP3    H234304   0.300   2.420  16.773  0.2988 -0.6837  0.6762
 4297TIP3   OH234305   3.717   5.486   5.890  0.0191  0.0409 -0.4660
 4297TIP3    H134306   3.746   5.427   5.820 -0.9352 -0.9871 -0.0227
 4297TIP3    H234307   3.792   5.491   5.950 -0.0468 -1.1127 -0.2745
 4298TIP3   OH234308   5.607   0.526  12.955  0.2027  0.2148 -0.2893
 4298TIP3    H134309   5.569   0.567  12.878  0.6959  0.4603 -0.4070
 4298TIP3    H234310   5.629   0.437  12.928  0.2120  0.2445 -0.3769
 4299TIP3   OH234311   3.717   2.177   3.284  0.5281 -0.2666  0.1680
 4299TIP3    H134312   3.780   2.135   3.225  0.8326 -0.4774  0.6393
 4299TIP3    H234313   3.644   2.201   3.227  0.1775 -1.7872 -0.0648
 4300TIP3   OH234314   1.054   3.306  12.451 -0.0013 -0.5543  0.0307
 4300TIP3    H134315   0.994   3.254  12.398 -1.2855  1.1785 -0.2225
 4300TIP3    H234316   1.112   3.347  12.388  0.0802 -0.4986  0.1409
 4301TIP3   OH234317   6.767   5.530  13.676  0.4630 -0.1313 -0.1819
 4301TIP3    H134318   6.854   5.529  13.637  0.5302  1.2873 -0.0946
 4301TIP3    H234319   6.707   5.547  13.603  0.1557 -2.0704 -0.4034
 4302TIP3   OH234320   0.609   3.634   2.588  0.3779  0.0560  0.2245
 4302TIP3    H134321   0.642   3.706   2.536  1.8167 -1.2091 -0.6484
 4302TIP3    H234322   0.638   3.653   2.677  2.2278 -0.2994 -0.2852
 4303TIP3   OH234323   5.476   0.825   4.096  0.0604  0.5071 -0.1467
 4303TIP3    H134324   5.504   0.888   4.163  1.2154 -0.9972  0.8148
 4303TIP3    H234325   5.532   0.844   4.020  1.0090  0.0913  0.4370
 4304TIP3   OH234326   2.191   0.348   3.212 -0.3409 -0.1995 -0.1368
 4304TIP3    H134327   2.223   0.315   3.129 -1.5664 -3.2051  0.5358
 4304TIP3    H234328   2.205   0.443   3.207  0.3657 -0.4199 -3.3910
 4305TIP3   OH234329   0.659   3.015   2.719  0.1137  0.1717  0.1856
 4305TIP3    H134330   0.623   3.080   2.780  0.2127  0.1010  0.3199
 4305TIP3    H234331   0.743   2.990   2.757 -0.0073 -0.1722  0.2327
 4306TIP3   OH234332   4.436   1.358   1.334 -0.1813 -0.5848 -0.3291
 4306TIP3    H134333   4.428   1.301   1.410  1.7408 -1.6577 -0.9084
 4306TIP3    H234334   4.373   1.429   1.351 -1.8290 -2.2819  0.8999
 4307TIP3   OH234335   2.493   2.487  16.297  0.7318 -0.0282 -0.6073
 4307TIP3    H134336   2.472   2.573  16.335  1.4753 -0.7823  1.5771
 4307TIP3    H234337   2.587   2.491  16.281  0.3794  0.3756 -2.6670
 4308TIP3   OH234338   5.414   0.500   4.363  0.5896  0.5123 -0.4249
 4308TIP3    H134339   5.372   0.585   4.377  0.0670  0.2457 -0.3660
 4308TIP3    H234340   5.446   0.474   4.449  0.3405  0.4318 -0.3584
 4309TIP3   OH234341   3.445   1.711  15.907  0.6338 -0.2610  0.2555
 4309TIP3    H134342   3.534   1.683  15.924  1.3072  2.5287  1.5986
 4309TIP3    H234343   3.442   1.723  15.812  1.4155 -1.1692  0.1077
 4310TIP3   OH234344   4.893   4.038   1.882  0.1215 -0.0188 -0.5456
 4310TIP3    H134345   4.923   4.120   1.844 -3.2104  0.7526 -1.7050
 4310TIP3    H234346   4.829   4.004   1.819  1.7378 -3.7849 -0.3372
 4311TIP3   OH234347   4.987   4.194  12.847  0.1011  0.2012  0.2142
 4311TIP3    H134348   5.019   4.127  12.787  1.7383  1.4437 -0.3303
 4311TIP3    H234349   4.917   4.238  12.800  1.5436  1.3344 -0.9201
 4312TIP3   OH234350   2.403   6.284  11.040 -0.1431  0.8990 -0.0252
 4312TIP3    H134351   2.467   6.253  10.976 -0.3728  1.5514 -0.5667
 4312TIP3    H234352   2.378   6.371  11.010 -1.6881  0.4429 -0.1035
 4313TIP3   OH234353   4.729   4.857  14.797 -0.1437 -0.7345  0.3111
 4313TIP3    H134354   4.757   4.923  14.860  1.1907 -2.7907  1.9385
 4313TIP3    H234355   4.635   4.873  14.785 -0.2200  0.2893  2.0965
 4314TIP3   OH234356   2.128   4.015  14.495  0.0868  0.2818  0.1768
 4314TIP3    H134357   2.036   4.019  14.467  0.2176 -1.5939 -0.6106
 4314TIP3    H234358   2.126   3.963  14.575  0.6436 -1.2284 -0.7724
 4315TIP3   OH234359   4.823   4.034  12.585  0.3052  0.8587 -0.2771
 4315TIP3    H134360   4.733   4.005  12.604  0.3689 -0.6692 -2.1671
 4315TIP3    H234361   4.877   3.989  12.651  0.0010 -0.5803 -0.9958
 4316TIP3   OH234362   2.374   3.355   4.545  0.0827 -0.6547 -0.1657
 4316TIP3    H134363   2.344   3.360   4.635  2.0356  0.4439  0.4403
 4316TIP3    H234364   2.404   3.443   4.523 -0.7763 -0.7951 -2.0330
 4317TIP3   OH234365   0.019   0.269   0.788 -0.2059  0.5792  0.0030
 4317TIP3    H134366  -0.027   0.300   0.866  1.7943 -0.1044  1.4949
 4317TIP3    H234367   0.029   0.175   0.801  2.5742  0.8509  0.3069
 4318TIP3   OH234368   3.109   4.462  14.177  0.0341 -0.1959  0.5905
 4318TIP3    H134369   3.025   4.504  14.161 -0.7472 -1.4306  1.4237
 4318TIP3    H234370   3.136   4.429  14.092 -0.8199 -0.7174  0.5211
 4319TIP3   OH234371   5.292   0.151  13.504  0.1794  0.1398 -0.0169
 4319TIP3    H134372   5.322   0.068  13.466 -1.6493 -1.1960  1.3355
 4319TIP3    H234373   5.338   0.156  13.588 -2.4002 -1.3495  1.5460
 4320TIP3   OH234374   2.056   3.179  11.628 -0.2711 -0.3118  0.3725
 4320TIP3    H134375   2.044   3.106  11.688  0.3948  0.9848  2.1180
 4320TIP3    H234376   2.147   3.206  11.639  0.4433 -1.2609 -2.6568
 4321TIP3   OH234377   6.134   0.910  13.374  0.1869 -0.2853 -0.4113
 4321TIP3    H134378   6.089   0.910  13.290  0.2030 -2.0721 -0.4411
 4321TIP3    H234379   6.220   0.948  13.355  0.2585 -0.8348 -1.2544
 4322TIP3   OH234380   3.289   2.784   4.700 -0.2752  0.5678 -0.4208
 4322TIP3    H134381   3.249   2.855   4.649  1.1121  1.4796 -0.2809
 4322TIP3    H234382   3.340   2.829   4.767  1.3903 -0.5470 -0.9150
 4323TIP3   OH234383   2.522   3.389   4.149  0.2893  0.1498 -0.6052
 4323TIP3    H134384   2.583   3.322   4.181  0.1716 -0.5116 -1.7586
 4323TIP3    H234385   2.481   3.423   4.229 -0.5655 -2.0180 -0.0777
 4324TIP3   OH234386   4.337   2.625   5.473 -0.5876  0.2838 -0.1512
 4324TIP3    H134387   4.398   2.691   5.506 -0.0243 -0.9732  1.4428
 4324TIP3    H234388   4.393   2.563   5.426 -1.0159  0.5833 -1.0544
 4325TIP3   OH234389   1.206   4.780   2.159  0.0588 -0.1444  0.0814
 4325TIP3    H134390   1.236   4.783   2.250 -0.6014  0.6442  0.2751
 4325TIP3    H234391   1.122   4.733   2.163 -0.0827  0.0945 -0.0910
 4326TIP3   OH234392   5.212   5.550  14.519  0.4345 -0.0258 -0.2075
 4326TIP3    H134393   5.178   5.627  14.475  1.6484  0.4715 -0.2915
 4326TIP3    H234394   5.304   5.570  14.535  0.5241 -1.0615  0.6430
 4327TIP3   OH234395   0.285   3.713   0.215  0.0724  0.3883 -0.1186
 4327TIP3    H134396   0.375   3.719   0.247  0.0410 -1.5957  0.3924
 4327TIP3    H234397   0.295   3.692   0.122  0.1440  2.1557 -0.5133
 4328TIP3   OH234398   1.653   3.263   1.389  0.1074 -0.2913 -0.5654
 4328TIP3    H134399   1.714   3.204   1.346 -0.0856 -0.3756 -0.7258
 4328TIP3    H234400   1.683   3.267   1.480  0.5099 -0.1202 -0.7062
 4329TIP3   OH234401   2.794   0.127  13.153  0.1589  0.9704  0.5933
 4329TIP3    H134402   2.744   0.055  13.114 -0.5981  1.2340  1.0857
 4329TIP3    H234403   2.834   0.088  13.231  1.2187  0.5979 -0.1153
 4330TIP3   OH234404   6.468   6.603  12.350  0.2385 -0.0689  0.3795
 4330TIP3    H134405   6.406   6.591  12.422  1.1550 -1.3758  0.9804
 4330TIP3    H234406   6.552   6.575  12.386  1.1375  1.4264 -0.5118
 4331TIP3   OH234407   5.188   6.333   2.483  0.1540  0.8979 -0.0142
 4331TIP3    H134408   5.124   6.274   2.443  0.3724  0.9896 -0.5028
 4331TIP3    H234409   5.239   6.366   2.410  0.7318  0.8692  0.3753
 4332TIP3   OH234410   1.573   2.236  14.073  0.4799  0.4888 -0.7974
 4332TIP3    H134411   1.504   2.298  14.097 -0.5628 -0.4866 -1.1983
 4332TIP3    H234412   1.592   2.255  13.981  1.7672  1.6983 -0.2944
 4333TIP3   OH234413   4.968   1.659   1.136  0.1076 -0.1555 -0.1531
 4333TIP3    H134414   5.021   1.704   1.070  0.8376 -1.4275 -0.4417
 4333TIP3    H234415   4.917   1.596   1.087 -0.7745  0.2099  0.2808
 4334TIP3   OH234416   3.923   1.586   3.412 -0.0441 -0.1396 -0.0859
 4334TIP3    H134417   3.992   1.644   3.380  0.3796 -0.6203 -0.0384
 4334TIP3    H234418   3.930   1.507   3.358 -0.0828 -0.4811  0.4081
 4335TIP3   OH234419   4.434   4.074  11.527  0.2671 -0.1809  0.7061
 4335TIP3    H134420   4.502   4.022  11.571  1.8736 -0.9397 -2.5321
 4335TIP3    H234421   4.483   4.134  11.470 -1.6888  2.3670  1.6104
 4336TIP3   OH234422   2.782   1.502   2.555 -0.4971  0.5940  0.2879
 4336TIP3    H134423   2.698   1.528   2.517 -1.3165 -1.6007  0.5260
 4336TIP3    H234424   2.760   1.429   2.614  1.4509  0.5931  1.0336
 4337TIP3   OH234425   5.472   1.832  14.174 -0.5041 -0.1072  0.0443
 4337TIP3    H134426   5.441   1.922  14.166  0.1052  0.0169 -0.9000
 4337TIP3    H234427   5.400   1.779  14.140 -0.6796  0.0478  0.1749
 4338TIP3   OH234428   5.342   6.639   3.601 -0.8438 -0.2418  0.4696
 4338TIP3    H134429   5.303   6.577   3.663  0.0095 -1.0953  0.1717
 4338TIP3    H234430   5.345   6.590   3.518 -0.0495  0.1568  0.2653
 4339TIP3   OH234431   1.322   3.589  11.452  0.6353 -0.2515 -0.5328
 4339TIP3    H134432   1.347   3.645  11.379  1.9543 -0.9897 -0.6712
 4339TIP3    H234433   1.383   3.614  11.522 -1.4922  1.4030  0.7651
 4340TIP3   OH234434   3.525   1.662  16.552 -0.2379 -0.4498  0.0164
 4340TIP3    H134435   3.461   1.643  16.483  0.1931  0.7118 -0.7101
 4340TIP3    H234436   3.577   1.734  16.517  1.8174 -1.7303  0.3748
 4341TIP3   OH234437   5.279   2.400   5.753 -0.2137  0.2972  0.1063
 4341TIP3    H134438   5.214   2.347   5.800  0.5067  0.8811  1.8192
 4341TIP3    H234439   5.228   2.468   5.710 -0.9048 -0.3138 -0.0555
 4342TIP3   OH234440   4.132   1.137  13.675 -0.5584  0.0801 -0.1434
 4342TIP3    H134441   4.177   1.183  13.746 -0.6580 -0.3777  0.2171
 4342TIP3    H234442   4.200   1.086  13.633 -0.8482 -1.1269  0.8145
 4343TIP3   OH234443   2.801   1.909   4.451 -0.8302  0.3994 -0.0759
 4343TIP3    H134444   2.878   1.893   4.397 -1.5307 -0.5192 -0.8090
 4343TIP3    H234445   2.796   1.832   4.508 -0.1034  1.3543  1.3025
 4344TIP3   OH234446   6.058   4.943   4.204  0.6456 -0.7464  0.3616
 4344TIP3    H134447   6.059   4.855   4.243 -0.3426 -0.0710  1.9477
 4344TIP3    H234448   6.114   4.995   4.261 -0.3875  0.1227  0.5975
 4345TIP3   OH234449   3.992   4.871  10.834  0.4755 -0.7187  0.4905
 4345TIP3    H134450   4.029   4.959  10.831  2.2342 -1.4063  1.1980
 4345TIP3    H234451   4.031   4.826  10.758  0.4729 -1.2206  0.7842
 4346TIP3   OH234452   3.903   3.224  10.836 -0.1767 -0.2357  0.1392
 4346TIP3    H134453   3.932   3.281  10.765 -0.0990 -2.0852 -1.3511
 4346TIP3    H234454   3.928   3.270  10.916  1.2917  1.0760 -1.0538
 4347TIP3   OH234455   4.225   6.542  13.484  0.5907 -0.7122 -0.2351
 4347TIP3    H134456   4.299   6.548  13.423  0.9713  1.4503  0.4086
 4347TIP3    H234457   4.174   6.622  13.468 -0.1641 -0.8943  1.1903
 4348TIP3   OH234458   3.552   5.268  16.932 -0.2337 -0.0305 -0.6020
 4348TIP3    H134459   3.577   5.353  16.893 -0.3717 -0.8620 -2.5797
 4348TIP3    H234460   3.635   5.225  16.951 -0.1605  0.3591 -0.0532
 4349TIP3   OH234461   6.451   6.390  11.665 -0.7604  0.4050 -0.1787
 4349TIP3    H134462   6.401   6.309  11.675  0.5930 -0.5787 -1.1828
 4349TIP3    H234463   6.543   6.362  11.669 -0.2756  2.0077  0.3263
 4350TIP3   OH234464   4.687   3.764  15.767 -0.5871 -0.0445 -0.2075
 4350TIP3    H134465   4.715   3.758  15.676 -0.2933  0.1282 -0.1290
 4350TIP3    H234466   4.766   3.747  15.818 -0.7436 -0.1109  0.0131
 4351TIP3   OH234467   2.266   3.947   1.707  0.0868 -0.4885 -0.7102
 4351TIP3    H134468   2.255   3.933   1.613  1.2905  1.1091 -1.0937
 4351TIP3    H234469   2.271   3.858   1.743  1.7044 -1.1116 -2.4048
 4352TIP3   OH234470   1.624   1.442   6.212  0.6647 -0.0886 -1.0777
 4352TIP3    H134471   1.562   1.379   6.174 -0.0072 -0.4009  0.4933
 4352TIP3    H234472   1.672   1.476   6.137  0.9936 -2.4224 -1.9735
 4353TIP3   OH234473   0.867   3.228  12.247 -0.5642  0.3847 -0.5450
 4353TIP3    H134474   0.854   3.298  12.184 -0.9768  1.0851  0.2989
 4353TIP3    H234475   0.780   3.188  12.256 -0.5578  0.4361 -0.2499
 4354TIP3   OH234476   2.206   2.172  16.238 -0.3136 -0.1439 -0.0836
 4354TIP3    H134477   2.116   2.140  16.242  0.0160 -1.2187 -0.8540
 4354TIP3    H234478   2.255   2.114  16.297  0.3551 -1.3621 -1.7747
 4355TIP3   OH234479   1.484   5.958  16.250 -0.5512  0.4731 -0.7381
 4355TIP3    H134480   1.490   5.867  16.219 -1.2536  0.4573 -0.8503
 4355TIP3    H234481   1.419   5.955  16.320  0.3031  0.6904  0.0637
 4356TIP3   OH234482   0.763   1.948   4.120 -0.6475  0.5021 -0.1489
 4356TIP3    H134483   0.781   1.884   4.189 -1.7686  2.1936  1.7741
 4356TIP3    H234484   0.848   1.990   4.104 -0.7192  1.3177  1.4926
 4357TIP3   OH234485   3.016   1.120   1.460 -0.8691  0.1139  0.4866
 4357TIP3    H134486   2.952   1.186   1.487 -0.2888  0.7152  0.3879
 4357TIP3    H234487   3.101   1.159   1.480 -0.4652  0.0394 -0.9997
 4358TIP3   OH234488   5.987   5.100   0.561  0.5835 -0.1942 -0.0094
 4358TIP3    H134489   5.948   5.038   0.499  1.9668 -1.9247  0.8301
 4358TIP3    H234490   5.952   5.185   0.534 -0.5322 -1.1890 -1.8154
 4359TIP3   OH234491   3.586   4.027   6.399 -0.0771  0.0602 -0.1872
 4359TIP3    H134492   3.637   4.024   6.479 -0.6187 -1.8540  0.1181
 4359TIP3    H234493   3.495   4.039   6.428 -0.6219 -3.2081 -0.2949
 4360TIP3   OH234494   6.275   2.140  15.651  0.1462 -0.2660 -0.1294
 4360TIP3    H134495   6.275   2.158  15.745 -1.3676  1.7727 -0.4805
 4360TIP3    H234496   6.231   2.055  15.643 -0.3118 -0.1391  0.9516
 4361TIP3   OH234497   4.554   4.841   1.880  0.1348 -0.3559  0.0347
 4361TIP3    H134498   4.529   4.871   1.793 -2.2880  0.8489  1.0915
 4361TIP3    H234499   4.472   4.809   1.918  1.0508 -0.3450  2.0672
 4362TIP3   OH234500   3.060   0.711   1.948 -0.2057 -0.0370  0.1778
 4362TIP3    H134501   2.977   0.709   1.902 -0.7163  1.6493  0.9469
 4362TIP3    H234502   3.107   0.785   1.909  0.1720  0.1473  0.9630
 4363TIP3   OH234503   3.840   4.518   3.246  0.1805 -0.1113 -0.2251
 4363TIP3    H134504   3.809   4.507   3.336 -0.4794  2.7898 -0.0671
 4363TIP3    H234505   3.932   4.543   3.255  0.0689  0.3453 -0.3621
 4364TIP3   OH234506   5.374   2.663   3.960 -0.5378 -0.0164  0.3796
 4364TIP3    H134507   5.441   2.598   3.984  0.2399  0.5832 -0.1417
 4364TIP3    H234508   5.397   2.740   4.011  0.8910  1.1389 -1.9601
 4365TIP3   OH234509   0.318   0.227   4.115 -0.5801  0.1697 -0.0384
 4365TIP3    H134510   0.225   0.208   4.127 -0.4809  0.0392  0.5295
 4365TIP3    H234511   0.360   0.195   4.194  0.0871 -0.6638 -0.7207
 4366TIP3   OH234512   2.106   2.405  16.466 -0.0882 -0.3310 -0.8158
 4366TIP3    H134513   2.058   2.487  16.472  0.3444 -0.1445  0.1371
 4366TIP3    H234514   2.156   2.413  16.385  2.3920  1.6921  0.8190
 4367TIP3   OH234515   0.777   3.499   3.685 -0.0456 -0.1585  0.5173
 4367TIP3    H134516   0.747   3.417   3.725 -0.1905 -0.5936 -0.4549
 4367TIP3    H234517   0.758   3.488   3.592  1.4052  0.3227  0.1463
 4368TIP3   OH234518   6.075   2.701   0.138 -0.7565 -0.1057  0.3806
 4368TIP3    H134519   6.067   2.750   0.220 -0.8289  0.2629  0.1535
 4368TIP3    H234520   5.984   2.678   0.115 -0.7551 -0.0225  0.2910
 4369TIP3   OH234521   1.640   6.599   0.831 -0.8647  0.1664  0.1132
 4369TIP3    H134522   1.686   6.683   0.838 -0.0525 -0.4238  2.2063
 4369TIP3    H234523   1.554   6.616   0.870 -0.3433 -0.2216  1.4474
 4370TIP3   OH234524   6.673   3.723  16.897 -0.2180 -0.4680 -0.0349
 4370TIP3    H134525   6.749   3.714  16.839 -1.2720 -2.6104 -1.1536
 4370TIP3    H234526   6.710   3.752  16.980  1.6786 -0.2903 -0.8925
 4371TIP3   OH234527   1.292   2.196   0.250 -0.1423  0.0474  0.6535
 4371TIP3    H134528   1.365   2.205   0.311 -0.3556 -0.6582  1.0213
 4371TIP3    H234529   1.254   2.110   0.270 -3.7349  2.1506  3.4649
 4372TIP3   OH234530   1.125   0.540  10.698  0.1928  0.7316 -0.1448
 4372TIP3    H134531   1.089   0.546  10.610 -1.4911  1.2042  0.5707
 4372TIP3    H234532   1.097   0.453  10.729  0.7606  0.5770 -0.0579
 4373TIP3   OH234533   4.910   2.606   4.517 -0.5285  0.2847  0.2568
 4373TIP3    H134534   4.911   2.520   4.475  3.3711  0.8728 -1.0357
 4373TIP3    H234535   4.931   2.589   4.608 -1.7042 -0.3027  0.4211
 4374TIP3   OH234536   2.254   0.509  15.769 -0.6146 -0.1333 -0.1793
 4374TIP3    H134537   2.331   0.460  15.739 -0.0858  0.5770  0.0085
 4374TIP3    H234538   2.212   0.450  15.831  0.1789 -0.2377  0.2673
 4375TIP3   OH234539   3.352   4.448   4.174  0.0262 -0.2821 -0.1448
 4375TIP3    H134540   3.371   4.377   4.235  2.5239 -0.0341 -0.5738
 4375TIP3    H234541   3.308   4.405   4.100 -2.4076 -0.6833  1.4741
 4376TIP3   OH234542   0.217   2.098   2.148 -0.3412 -0.1162  0.4996
 4376TIP3    H134543   0.246   2.021   2.099 -0.8342 -0.8658  1.3543
 4376TIP3    H234544   0.174   2.062   2.226  0.1510  1.0364  1.3286
 4377TIP3   OH234545   5.022   4.920   0.116 -0.0255  0.2145  0.1662
 4377TIP3    H134546   5.055   4.903   0.027 -1.8198  1.3489 -0.7342
 4377TIP3    H234547   5.102   4.930   0.169  1.0643 -0.8519 -1.2238
 4378TIP3   OH234548   0.163   5.673  14.124 -0.6715 -0.3351  0.7274
 4378TIP3    H134549   0.255   5.669  14.100 -0.8852  1.1620 -0.3509
 4378TIP3    H234550   0.118   5.627  14.054 -0.9603  0.9550  0.0604
 4379TIP3   OH234551   1.786   0.959   4.890 -0.1643 -0.2709  0.2619
 4379TIP3    H134552   1.801   1.043   4.932 -1.0836 -0.0113  0.0764
 4379TIP3    H234553   1.725   0.913   4.947  0.6082 -0.9624  0.5469
 4380TIP3   OH234554   1.582   5.393   0.273 -0.4974  0.3200  0.0657
 4380TIP3    H134555   1.650   5.426   0.215 -2.0505  2.0882 -0.8000
 4380TIP3    H234556   1.577   5.458   0.344 -0.6666 -0.2753  0.6050
 4381TIP3   OH234557   2.089   4.896  16.092  0.9813 -0.0991 -0.4017
 4381TIP3    H134558   2.140   4.851  16.160  0.7707  1.4892  0.8185
 4381TIP3    H234559   2.009   4.923  16.136 -0.2325 -1.1539 -1.9104
 4382TIP3   OH234560   3.981   3.281   0.387  0.1272 -0.3721  0.0449
 4382TIP3    H134561   3.947   3.268   0.476  0.7238 -1.3090  0.1430
 4382TIP3    H234562   3.910   3.326   0.341 -0.4734 -0.5435  0.7866
 4383TIP3   OH234563   1.302   2.880  13.539  0.4134 -0.2718 -0.0090
 4383TIP3    H134564   1.288   2.967  13.577  0.7510  0.0578 -0.6197
 4383TIP3    H234565   1.244   2.822  13.588 -1.7212  0.7360 -1.3059
 4384TIP3   OH234566   2.182   3.688   0.952 -0.6736  0.2706  0.3453
 4384TIP3    H134567   2.125   3.755   0.916 -0.6010  0.4704  0.5991
 4384TIP3    H234568   2.240   3.735   1.012 -0.8938 -0.0764  0.8403
 4385TIP3   OH234569   3.422   2.997  17.218 -0.0300  1.0084  0.4120
 4385TIP3    H134570   3.344   2.942  17.213 -0.5111  1.7179  0.1973
 4385TIP3    H234571   3.493   2.940  17.189 -0.3506  0.1384  1.3047
 4386TIP3   OH234572   3.017   6.237   1.295  0.0204  0.0559  0.2700
 4386TIP3    H134573   3.034   6.233   1.200 -1.1719 -0.2652  0.0570
 4386TIP3    H234574   3.103   6.250   1.334  0.9633 -2.8877 -0.6652
 4387TIP3   OH234575   1.272   0.836   5.540  0.2153  0.2762  0.1589
 4387TIP3    H134576   1.295   0.785   5.618  1.0142 -1.5839 -1.2384
 4387TIP3    H234577   1.185   0.870   5.558  0.8434  0.8395  2.3305
 4388TIP3   OH234578   3.073   1.338  14.438  0.3779  0.5745 -0.0643
 4388TIP3    H134579   3.038   1.293  14.515  0.7291 -1.4966 -1.0622
 4388TIP3    H234580   3.082   1.429  14.465  0.7400 -0.1528  2.4198
 4389TIP3   OH234581   1.779   5.249  17.141 -0.0989 -0.0991 -0.4330
 4389TIP3    H134582   1.866   5.219  17.169 -0.1761  1.6881  1.8899
 4389TIP3    H234583   1.782   5.344  17.150 -1.9498  0.0809 -1.4353
 4390TIP3   OH234584   5.068   2.835   0.968 -0.1978  0.1089 -0.2187
 4390TIP3    H134585   5.125   2.799   1.036  0.1747 -0.8211 -1.0117
 4390TIP3    H234586   5.126   2.849   0.893 -0.8094  0.1529 -0.6845
 4391TIP3   OH234587   5.405   0.477  12.089  0.5255 -0.4075  0.0155
 4391TIP3    H134588   5.442   0.473  12.001 -0.5036 -2.3510 -0.3530
 4391TIP3    H234589   5.318   0.438  12.081  0.6124 -1.0841  1.9832
 4392TIP3   OH234590   4.021   0.376   5.326 -0.2516 -0.1083  0.6771
 4392TIP3    H134591   3.998   0.413   5.411  1.7553 -0.4350  1.4008
 4392TIP3    H234592   4.117   0.373   5.326 -0.2521 -1.3357 -1.0600
 4393TIP3   OH234593   3.222   5.839   3.531  0.1137  0.0671 -0.0965
 4393TIP3    H134594   3.304   5.825   3.483  1.3604  0.7473  1.7664
 4393TIP3    H234595   3.215   5.934   3.540 -0.8152  0.0015 -0.1374
 4394TIP3   OH234596   2.780   3.121   2.617 -0.3451  0.5170  0.0368
 4394TIP3    H134597   2.859   3.067   2.608 -0.3894  0.7331 -1.9083
 4394TIP3    H234598   2.714   3.077   2.564 -0.5349  2.1524 -1.1352
 4395TIP3   OH234599   4.921   4.541   2.278  0.0264  0.4296  0.0874
 4395TIP3    H134600   4.974   4.584   2.345 -0.8297  0.5631  0.6859
 4395TIP3    H234601   4.958   4.453   2.271 -0.6857 -0.0024  1.6442
 4396TIP3   OH234602   5.743   6.069   3.983 -0.3502  0.4007 -0.0328
 4396TIP3    H134603   5.684   6.141   3.964 -0.2426  0.7853  1.0768
 4396TIP3    H234604   5.687   5.991   3.979 -1.3585  0.9263  2.8494
 4397TIP3   OH234605   0.161   3.917   5.218  0.6099  0.0541  0.0819
 4397TIP3    H134606   0.138   4.005   5.250  3.8475  1.1816 -0.4810
 4397TIP3    H234607   0.185   3.868   5.297  2.9487  1.0444  0.0323
 4398TIP3   OH234608   1.666   2.176  13.151 -0.5286 -0.3909 -0.1494
 4398TIP3    H134609   1.693   2.186  13.243 -1.7063  1.2429  0.0316
 4398TIP3    H234610   1.614   2.254  13.132  1.6781  0.4994 -2.9285
 4399TIP3   OH234611   2.509   0.619  13.421  0.2860  0.0856  0.0159
 4399TIP3    H134612   2.420   0.635  13.390  0.8170  0.4399 -1.3311
 4399TIP3    H234613   2.549   0.563  13.354  0.7180 -1.0120  1.1752
 4400TIP3   OH234614   1.823   5.694   0.968  0.4120 -0.7449  1.1510
 4400TIP3    H134615   1.784   5.607   0.974  0.5264 -0.9268 -0.4018
 4400TIP3    H234616   1.897   5.692   1.028 -0.6534 -1.1132  2.4804
 4401TIP3   OH234617   0.137   4.488   2.886 -0.3615 -0.1137  0.8235
 4401TIP3    H134618   0.220   4.496   2.932  0.0456  0.6914 -0.0470
 4401TIP3    H234619   0.111   4.578   2.867 -0.0160 -0.4476 -1.4229
 4402TIP3   OH234620   5.994   3.830  12.495 -0.4381  0.7826  0.4259
 4402TIP3    H134621   5.908   3.808  12.459 -0.2600  1.3167 -0.3661
 4402TIP3    H234622   6.031   3.747  12.523 -0.8695  0.4423 -0.0098
 4403TIP3   OH234623   0.995   0.873   0.266  0.6202  0.1084  0.3817
 4403TIP3    H134624   0.913   0.835   0.298  0.6194 -0.7970 -0.6734
 4403TIP3    H234625   1.024   0.814   0.197  2.3108  0.2722  0.9222
 4404TIP3   OH234626   0.438   5.320   4.106 -0.0235  0.3117  0.3717
 4404TIP3    H134627   0.488   5.241   4.126 -0.1075  0.7297  2.3324
 4404TIP3    H234628   0.392   5.299   4.025  0.3394 -1.4910  0.6074
 4405TIP3   OH234629   1.858   4.726   4.367 -0.1588  0.3539 -0.0743
 4405TIP3    H134630   1.782   4.710   4.311  0.2943 -0.3040 -0.5023
 4405TIP3    H234631   1.924   4.664   4.337 -0.0641 -0.3239  1.4949
 4406TIP3   OH234632   1.962   3.896  14.141  0.1113  0.1963 -0.3701
 4406TIP3    H134633   2.011   3.943  14.073 -0.6407  1.0026 -0.3662
 4406TIP3    H234634   1.979   3.804  14.124  0.9742  0.4352 -0.8665
 4407TIP3   OH234635   4.251   2.623  11.862 -0.2117 -0.2319  0.1201
 4407TIP3    H134636   4.316   2.641  11.930  1.3847 -1.1570 -1.1412
 4407TIP3    H234637   4.281   2.673  11.786 -0.8038 -0.9064 -0.5672
 4408TIP3   OH234638   2.302   4.166  13.991 -0.8739  0.0724 -0.0670
 4408TIP3    H134639   2.282   4.143  14.082  0.2104  0.6456  0.3408
 4408TIP3    H234640   2.384   4.119  13.973  0.2963  1.9717  0.1280
 4409TIP3   OH234641   3.748   2.223  11.591 -0.0063  0.0714  0.0236
 4409TIP3    H134642   3.672   2.281  11.602 -0.1204 -0.2373  0.9047
 4409TIP3    H234643   3.773   2.233  11.499 -0.8006  0.5612 -0.1407
 4410TIP3   OH234644   0.108   1.480  13.077 -0.2359 -0.1496 -0.2670
 4410TIP3    H134645   0.072   1.568  13.091  1.1355  0.3827  0.0418
 4410TIP3    H234646   0.147   1.457  13.162 -0.2773 -0.9121 -0.4502
 4411TIP3   OH234647   0.281   3.911  12.905  0.1160  0.0176 -0.2747
 4411TIP3    H134648   0.190   3.918  12.935  0.4460 -0.3233  0.8083
 4411TIP3    H234649   0.325   3.861  12.973  1.3752  1.1072 -0.2704
 4412TIP3   OH234650   5.828   4.021   1.745 -0.7077 -0.4976  0.6093
 4412TIP3    H134651   5.761   4.015   1.676 -0.1409 -0.4156  0.0517
 4412TIP3    H234652   5.911   4.025   1.698 -0.2134 -1.9534  1.3422
 4413TIP3   OH234653   6.453   0.156   3.312  0.1168  0.2184  0.3141
 4413TIP3    H134654   6.448   0.060   3.306 -2.7496  0.3883 -0.8339
 4413TIP3    H234655   6.379   0.180   3.368 -1.0447  1.9130 -1.8395
 4414TIP3   OH234656   0.236   0.070  11.187  0.3165 -0.1475  0.3903
 4414TIP3    H134657   0.164   0.012  11.160 -0.0783  0.1122  0.8942
 4414TIP3    H234658   0.193   0.144  11.229  0.8672  0.1310  0.4618
 4415TIP3   OH234659   1.763   6.683   2.801 -0.2346 -0.1805 -0.1997
 4415TIP3    H134660   1.712   6.760   2.776  0.2874  0.0704 -0.4869
 4415TIP3    H234661   1.803   6.654   2.719 -0.2735 -0.6410 -0.0547
 4416TIP3   OH234662   5.532   6.534   1.112  0.4646  0.0911 -0.0237
 4416TIP3    H134663   5.538   6.455   1.058 -0.7248 -1.5702  2.1671
 4416TIP3    H234664   5.609   6.529   1.169  0.7406  0.8822 -0.3223
 4417TIP3   OH234665   2.553   2.134   4.825 -0.5339  0.1487 -0.6349
 4417TIP3    H134666   2.523   2.224   4.838 -1.0758 -0.2000  0.4873
 4417TIP3    H234667   2.649   2.142   4.821 -0.5795  0.7697 -0.5838
 4418TIP3   OH234668   1.599   2.789   5.264 -0.2373 -0.2859  0.1293
 4418TIP3    H134669   1.528   2.796   5.328  1.4471  1.4596  1.8780
 4418TIP3    H234670   1.589   2.865   5.207  1.0309  0.7564  1.2621
 4419TIP3   OH234671   0.550   2.107  13.788 -0.4247  0.1631  0.0759
 4419TIP3    H134672   0.521   2.081  13.876 -0.0743 -0.9900 -0.1376
 4419TIP3    H234673   0.624   2.165  13.803  1.0386 -1.7674  0.5287
 4420TIP3   OH234674   1.968   3.254   1.519  0.2773  0.2813 -0.3182
 4420TIP3    H134675   1.901   3.276   1.584 -0.1585 -1.2474 -0.2165
 4420TIP3    H234676   2.013   3.336   1.502 -0.6286  1.0219  0.7607
 4421TIP3   OH234677   3.729   4.907   3.853 -0.1325 -0.1156 -0.5126
 4421TIP3    H134678   3.656   4.942   3.905  0.5709  1.7169 -0.7123
 4421TIP3    H234679   3.800   4.898   3.916 -0.5006 -1.9101 -0.3172
 4422TIP3   OH234680   1.120   5.674   2.254 -0.3527 -0.1452  0.1948
 4422TIP3    H134681   1.030   5.684   2.223 -0.5892 -0.3004  0.8309
 4422TIP3    H234682   1.170   5.659   2.174 -0.5477  2.1387 -0.3942
 4423TIP3   OH234683   4.658   4.938  15.133  0.3114 -0.4782 -0.2798
 4423TIP3    H134684   4.574   4.984  15.140  0.2399 -0.2461 -2.3973
 4423TIP3    H234685   4.635   4.850  15.103  0.9244  0.1195 -2.5805
 4424TIP3   OH234686   3.202   5.624  14.173 -0.1784  0.0538 -0.1434
 4424TIP3    H134687   3.218   5.655  14.262 -1.2755 -0.4709  0.2506
 4424TIP3    H234688   3.125   5.566  14.181 -1.2367  1.2015 -1.6843
 4425TIP3   OH234689   3.029   2.889  17.051 -0.3104  1.0318 -0.3818
 4425TIP3    H134690   3.097   2.907  16.987  0.8068  1.1696  0.8386
 4425TIP3    H234691   2.947   2.900  17.003  0.5219  1.0469 -1.7989
 4426TIP3   OH234692   3.047   3.325  16.531  0.5895 -0.2487  0.3248
 4426TIP3    H134693   3.050   3.229  16.524 -1.5262 -0.2038 -1.5314
 4426TIP3    H234694   3.139   3.352  16.526  1.1083 -2.0879 -0.6618
 4427TIP3   OH234695   3.524   4.691  12.317  0.8458  0.6822 -0.4011
 4427TIP3    H134696   3.436   4.711  12.285  1.1596  2.0360 -0.4654
 4427TIP3    H234697   3.572   4.662  12.240 -0.0101 -1.7691 -0.0504
 4428TIP3   OH234698   5.744   2.194   1.408 -0.4350  0.2722  0.0466
 4428TIP3    H134699   5.702   2.109   1.400 -1.2018  0.8215 -2.1053
 4428TIP3    H234700   5.688   2.243   1.469 -1.2623  0.0139 -0.5064
 4429TIP3   OH234701   1.062   1.390   4.310  0.6123  0.0603  0.2668
 4429TIP3    H134702   1.075   1.331   4.236  0.6999 -0.2591  0.5374
 4429TIP3    H234703   0.976   1.429   4.295  2.1291  2.7332 -1.9219
 4430TIP3   OH234704   0.422   5.766  16.097 -0.2255  0.0997  0.0753
 4430TIP3    H134705   0.361   5.693  16.101 -0.2165  0.0422 -0.7383
 4430TIP3    H234706   0.495   5.740  16.153 -2.0675  1.2537  3.1204
 4431TIP3   OH234707   3.345   5.746  16.389  0.3941 -0.0182 -0.0452
 4431TIP3    H134708   3.252   5.731  16.372  0.2487 -1.4262  1.8123
 4431TIP3    H234709   3.353   5.841  16.399 -0.6281  0.2172 -1.3167
 4432TIP3   OH234710   5.356   4.428  14.566 -0.1080 -0.4970  0.5609
 4432TIP3    H134711   5.451   4.419  14.570 -0.0907 -0.1284  1.1343
 4432TIP3    H234712   5.332   4.397  14.479  0.5861 -0.1777  0.2488
 4433TIP3   OH234713   3.367   2.182  16.740  0.0514 -0.5986  0.4860
 4433TIP3    H134714   3.344   2.164  16.831 -1.1192  0.5430  0.4260
 4433TIP3    H234715   3.315   2.258  16.717 -0.5338 -1.5820 -1.5197
 4434TIP3   OH234716   3.108   1.487   3.402 -0.0402 -0.0754 -0.1757
 4434TIP3    H134717   3.102   1.394   3.423  1.0034 -0.3862 -1.1981
 4434TIP3    H234718   3.197   1.498   3.369  0.9623  1.9081  2.9225
 4435TIP3   OH234719   5.735   1.476  16.088 -0.5048  0.1965  0.3188
 4435TIP3    H134720   5.753   1.536  16.160 -0.7783  0.3436  0.2645
 4435TIP3    H234721   5.758   1.524  16.009  0.8082 -0.3440  0.3629
 4436TIP3   OH234722   0.835   6.184   5.855 -0.2029 -0.2435  0.4111
 4436TIP3    H134723   0.898   6.199   5.925  0.7529  0.5627 -0.6047
 4436TIP3    H234724   0.772   6.256   5.864 -0.9958 -1.0372  1.4125
 4437TIP3   OH234725   4.617   0.730  12.685 -0.4269  0.1061 -0.2596
 4437TIP3    H134726   4.664   0.776  12.754 -1.5447  1.1017 -0.1421
 4437TIP3    H234727   4.594   0.646  12.724 -1.1655  0.7107  0.6371
 4438TIP3   OH234728   1.268   2.939   4.716 -0.5253 -0.5736  0.3583
 4438TIP3    H134729   1.242   3.030   4.699  3.1162  0.2694 -1.2279
 4438TIP3    H234730   1.265   2.931   4.811  1.3706  1.9621  0.6801
 4439TIP3   OH234731   4.887   2.763  12.753 -0.1702 -0.3234 -0.1245
 4439TIP3    H134732   4.935   2.843  12.733  1.2114 -0.7018  1.5267
 4439TIP3    H234733   4.891   2.712  12.672  2.5428 -0.4878  0.0681
 4440TIP3   OH234734   0.893   1.347  12.508  0.3536 -0.5870  0.2204
 4440TIP3    H134735   0.815   1.344  12.563 -0.4377  0.4336 -0.8140
 4440TIP3    H234736   0.965   1.319  12.565 -0.2301  1.6066  2.1284
 4441TIP3   OH234737   1.273   3.182  15.460  0.6254 -0.0397  0.6058
 4441TIP3    H134738   1.237   3.094  15.470 -0.5553  0.1651 -1.5010
 4441TIP3    H234739   1.248   3.228  15.540 -0.7805 -0.9540  0.6960
 4442TIP3   OH234740   5.457   1.124  11.519 -0.4566 -0.3095  0.1799
 4442TIP3    H134741   5.411   1.208  11.520  1.4357  0.7698  0.8622
 4442TIP3    H234742   5.464   1.099  11.611 -0.9136 -1.1710 -0.0138
 4443TIP3   OH234743   5.940   4.642  12.287 -0.0731  0.0123 -0.5194
 4443TIP3    H134744   5.997   4.688  12.225 -0.1094  0.8082  0.0373
 4443TIP3    H234745   5.878   4.708  12.317  0.6566 -0.0726  1.2297
 4444TIP3   OH234746   0.633   2.406  14.488  0.6432  0.1465 -0.2592
 4444TIP3    H134747   0.627   2.501  14.475 -0.3864  0.2130  0.6737
 4444TIP3    H234748   0.662   2.396  14.578 -0.3127 -0.4428 -0.0132
 4445TIP3   OH234749   0.059   3.030   5.565 -0.6811 -0.0677 -0.1015
 4445TIP3    H134750  -0.028   3.066   5.551 -1.1596 -0.7415  1.0416
 4445TIP3    H234751   0.050   2.937   5.544  0.3741  0.3148 -2.3729
 4446TIP3   OH234752   0.478   6.270  15.483  0.5912 -0.1247 -0.1772
 4446TIP3    H134753   0.496   6.210  15.411  0.9821  1.4438 -1.4029
 4446TIP3    H234754   0.547   6.336  15.478  2.5092 -1.6664  3.5573
 4447TIP3   OH234755   5.427   2.967   3.958  0.0549 -0.1280 -0.2245
 4447TIP3    H134756   5.396   2.955   3.869 -0.5646 -0.5958  0.0523
 4447TIP3    H234757   5.387   3.049   3.988  1.2630  0.6872 -0.8029
 4448TIP3   OH234758   6.334   5.247  16.445 -0.5184  0.3227 -0.1813
 4448TIP3    H134759   6.400   5.276  16.509  1.0274 -1.5863 -0.8627
 4448TIP3    H234760   6.252   5.283  16.478  0.3370 -0.0677  2.5484
 4449TIP3   OH234761   4.789   1.782   4.010 -0.1451 -0.0239  0.3991
 4449TIP3    H134762   4.764   1.848   4.075  0.3190 -0.4587  1.0184
 4449TIP3    H234763   4.711   1.772   3.955 -1.2158 -1.0671  2.0803
 4450TIP3   OH234764   5.109   6.359   4.915 -0.0933  0.4598 -0.1333
 4450TIP3    H134765   5.063   6.306   4.980 -0.7019  0.7257 -0.3464
 4450TIP3    H234766   5.056   6.351   4.835  1.8114 -1.6791 -1.2429
 4451TIP3   OH234767   1.989   6.338  14.155 -0.0815 -0.4277 -0.4689
 4451TIP3    H134768   2.017   6.392  14.228 -1.8564  0.1262 -0.1707
 4451TIP3    H234769   2.056   6.270  14.148 -0.1573 -0.7965  2.0095
 4452TIP3   OH234770   5.713   5.350   3.010  0.1758 -0.7347 -0.1467
 4452TIP3    H134771   5.650   5.280   3.025 -0.3752  0.0298  1.2256
 4452TIP3    H234772   5.684   5.422   3.066  2.5599 -0.5693  0.9716
 4453TIP3   OH234773   3.963   4.959   1.048  0.3358  0.1524 -0.0455
 4453TIP3    H134774   3.876   4.921   1.055  0.1674  0.8811  2.2241
 4453TIP3    H234775   4.023   4.887   1.067  0.2356 -0.2848 -1.3485
 4454TIP3   OH234776   1.837   6.156   3.837  0.1585 -0.5115 -0.2059
 4454TIP3    H134777   1.791   6.170   3.754 -1.8947 -1.8890  0.6495
 4454TIP3    H234778   1.923   6.195   3.823 -0.8723  1.1962 -2.2501
 4455TIP3   OH234779   3.287   1.808  12.123 -0.0457 -0.1037 -0.1214
 4455TIP3    H134780   3.365   1.794  12.176 -0.2380 -0.2526  0.1207
 4455TIP3    H234781   3.214   1.795  12.183 -0.2421  1.7319  0.0813
 4456TIP3   OH234782   1.060   5.472   3.083  0.1799 -0.0666  0.0999
 4456TIP3    H134783   1.087   5.502   3.169  0.1727  0.7556 -0.1799
 4456TIP3    H234784   1.078   5.378   3.083  1.3653  0.1582  0.5416
 4457TIP3   OH234785   4.365   2.026   3.574 -0.1996 -0.2356  0.3828
 4457TIP3    H134786   4.288   2.054   3.524  0.0323  0.8555  0.6374
 4457TIP3    H234787   4.328   1.985   3.653 -0.5442 -1.1281 -0.2260
 4458TIP3   OH234788   5.254   3.322   1.216 -0.8662  0.1396  0.2873
 4458TIP3    H134789   5.334   3.276   1.239 -0.2353  1.2503  0.3596
 4458TIP3    H234790   5.211   3.265   1.152  0.8698  0.3706 -1.1332
 4459TIP3   OH234791   3.085   4.933   0.955  0.0373  0.0671  0.0868
 4459TIP3    H134792   3.042   5.010   0.992 -0.3286  1.1444 -2.4381
 4459TIP3    H234793   3.137   4.967   0.882  1.1620 -1.8817 -0.0751
 4460TIP3   OH234794   0.779   0.441  12.322 -0.2711  0.0329 -0.2471
 4460TIP3    H134795   0.694   0.427  12.365 -1.6324  1.8051 -2.2683
 4460TIP3    H234796   0.783   0.372  12.255  0.5720 -0.9626  0.8090
 4461TIP3   OH234797   3.288   5.987  14.195 -0.0887 -0.7359  0.3545
 4461TIP3    H134798   3.269   5.915  14.256  1.4183 -3.0689 -1.8299
 4461TIP3    H234799   3.382   5.980  14.179  0.0741  1.7614  0.1225
 4462TIP3   OH234800   3.532   4.226  12.071 -0.1806 -0.1101 -0.0143
 4462TIP3    H134801   3.475   4.204  11.998  0.7539 -0.9265 -0.5180
 4462TIP3    H234802   3.484   4.198  12.149 -1.0503  0.4858 -0.3356
 4463TIP3   OH234803   6.170   6.274   3.849 -0.7013  0.2738  0.2962
 4463TIP3    H134804   6.201   6.338   3.786 -2.2505  0.3238 -0.4373
 4463TIP3    H234805   6.196   6.310   3.934 -0.4141  1.2205 -0.1869
 4464TIP3   OH234806   1.769   5.966  17.012 -0.0617 -0.3851  0.0991
 4464TIP3    H134807   1.797   6.053  16.985  0.7177 -0.2745  1.2134
 4464TIP3    H234808   1.813   5.907  16.951  2.2575 -0.1771  1.5178
 4465TIP3   OH234809   0.791   0.379  14.444 -0.2380 -0.1532  0.2228
 4465TIP3    H134810   0.848   0.444  14.402 -0.6018  0.4134  0.5998
 4465TIP3    H234811   0.785   0.308  14.381  0.4056  0.0509 -0.0730
 4466TIP3   OH234812   3.810   3.302   0.595 -0.0052  0.0770 -0.2779
 4466TIP3    H134813   3.774   3.213   0.591  0.2364 -0.0109 -0.5428
 4466TIP3    H234814   3.785   3.334   0.681 -0.4052 -0.1168 -0.3182
 4467TIP3   OH234815   0.218   5.599  16.141  0.4154  0.3141  0.4768
 4467TIP3    H134816   0.139   5.587  16.089  2.1856 -4.5118 -1.3446
 4467TIP3    H234817   0.195   5.565  16.227  0.2842 -0.3025  0.1963
 4468TIP3   OH234818   5.157   5.225   3.167 -0.3539 -0.3497 -0.1320
 4468TIP3    H134819   5.238   5.230   3.219 -0.6491 -1.0614  0.4092
 4468TIP3    H234820   5.175   5.277   3.089  0.7448 -0.7784 -0.1703
 4469TIP3   OH234821   2.395   5.162  12.514  0.4890 -0.0956 -0.6229
 4469TIP3    H134822   2.370   5.202  12.431 -2.9750 -3.1053 -1.1404
 4469TIP3    H234823   2.355   5.218  12.580  1.1327  0.8670 -1.0271
 4470TIP3   OH234824   3.929   3.618  16.060 -0.7035 -0.0848  0.2735
 4470TIP3    H134825   3.894   3.706  16.042 -0.0656  0.0809 -0.1853
 4470TIP3    H234826   3.895   3.564  15.989 -2.0193 -0.4689  1.1745
 4471TIP3   OH234827   0.141   2.209   4.443 -0.1504 -0.1709 -0.4814
 4471TIP3    H134828   0.191   2.220   4.524  1.0361  1.5167 -1.4134
 4471TIP3    H234829   0.081   2.283   4.441 -1.8701 -1.5180  0.0143
 4472TIP3   OH234830   3.752   5.932  15.207 -0.5869  0.2037  0.1827
 4472TIP3    H134831   3.673   5.985  15.213 -0.0672  1.1814 -1.2398
 4472TIP3    H234832   3.820   5.993  15.176 -0.2613 -1.5057 -2.6753
 4473TIP3   OH234833   6.224   1.958   5.902  0.7092  0.0777  0.5178
 4473TIP3    H134834   6.178   1.892   5.849  2.9666 -0.8342 -0.3737
 4473TIP3    H234835   6.174   2.038   5.889 -1.1306 -1.0871  0.2760
 4474TIP3   OH234836   1.191   2.676  17.171 -0.6267 -0.5409 -0.3310
 4474TIP3    H134837   1.227   2.677  17.082  0.8420  0.0664  0.2547
 4474TIP3    H234838   1.221   2.593  17.208 -0.3703 -0.3235 -0.0531
 4475TIP3   OH234839   2.021   2.432  16.954 -0.4942  0.1828  0.0240
 4475TIP3    H134840   2.016   2.520  16.916 -2.1891 -0.3408 -1.0113
 4475TIP3    H234841   1.970   2.437  17.034  1.6291  0.8219  1.3820
 4476TIP3   OH234842   5.662   1.289  16.455  0.2250 -0.1825  0.5505
 4476TIP3    H134843   5.716   1.263  16.381  1.5137 -1.8836  2.0156
 4476TIP3    H234844   5.672   1.384  16.460  0.0307 -0.0354 -1.4947
 4477TIP3   OH234845   5.801   2.815  17.092  0.1483  0.2354 -0.3839
 4477TIP3    H134846   5.870   2.868  17.051  0.1897  1.6320  1.3981
 4477TIP3    H234847   5.738   2.799  17.022  0.3558  2.2993 -1.0866
 4478TIP3   OH234848   1.265   0.656   5.769 -0.1517  0.4042  0.0837
 4478TIP3    H134849   1.175   0.686   5.762  0.1813  1.3132 -0.3792
 4478TIP3    H234850   1.258   0.568   5.805 -1.1449  0.9724  1.3150
 4479TIP3   OH234851   3.383   3.544   0.021 -0.4011  0.4835 -0.1004
 4479TIP3    H134852   3.387   3.460  -0.025 -1.6421  0.6872 -0.5905
 4479TIP3    H234853   3.442   3.601  -0.028  0.1893  0.0043  0.0339
 4480TIP3   OH234854   1.233   4.195  16.545  0.1079  0.2137  0.1719
 4480TIP3    H134855   1.171   4.155  16.605  1.2370 -1.2912  0.3814
 4480TIP3    H234856   1.265   4.122  16.491  0.6640  1.1842 -0.8478
 4481TIP3   OH234857   3.015   2.261   3.840 -0.5539 -0.0888  0.0341
 4481TIP3    H134858   2.981   2.281   3.927  0.8452 -1.6314  0.9709
 4481TIP3    H234859   3.108   2.286   3.844 -0.5140 -0.0062 -1.0810
 4482TIP3   OH234860   3.210   3.820  11.906 -0.6421  0.2598  0.3338
 4482TIP3    H134861   3.170   3.886  11.849 -2.2052  0.3326  1.5088
 4482TIP3    H234862   3.228   3.866  11.988 -0.6636 -0.4749  0.7567
 4483TIP3   OH234863   5.540   6.576   2.133  0.1877  0.4075 -0.1269
 4483TIP3    H134864   5.446   6.569   2.116  0.4701 -0.2348 -1.4869
 4483TIP3    H234865   5.560   6.668   2.116 -0.4134  0.8473  1.4167
 4484TIP3   OH234866   5.139   2.052  11.363 -0.0075  0.1803  0.4263
 4484TIP3    H134867   5.183   1.993  11.303  0.8188  1.1592  0.0593
 4484TIP3    H234868   5.157   2.016  11.450 -0.6578 -0.8647  0.1418
 4485TIP3   OH234869   1.690   5.076   3.000  0.9000 -0.2475 -0.4210
 4485TIP3    H134870   1.683   4.988   2.963 -1.2383  0.0622 -0.7854
 4485TIP3    H234871   1.756   5.120   2.947  0.8554 -1.1351 -1.2139
 4486TIP3   OH234872   5.418   1.122  14.910 -0.9181 -0.5766 -0.3197
 4486TIP3    H134873   5.466   1.102  14.830 -1.9483 -1.6792 -0.6913
 4486TIP3    H234874   5.458   1.202  14.944  0.7636 -1.1539 -0.9230
 4487TIP3   OH234875   1.974   3.805   4.903  0.6788 -0.7524 -0.5155
 4487TIP3    H134876   2.033   3.854   4.845  1.1437  0.6257  1.0815
 4487TIP3    H234877   2.023   3.795   4.984 -0.9055 -0.4393  0.5085
 4488TIP3   OH234878   0.456   5.791  15.429 -0.1603  0.1039  0.8379
 4488TIP3    H134879   0.405   5.720  15.390 -2.1878  0.7108  2.2870
 4488TIP3    H234880   0.539   5.750  15.453 -0.3501 -1.1751 -0.5789
 4489TIP3   OH234881   0.655   3.147  11.540  0.1301  0.0896 -0.7817
 4489TIP3    H134882   0.620   3.180  11.623  0.0394 -0.6548 -0.5195
 4489TIP3    H234883   0.749   3.156  11.547  0.3497 -2.8151  0.6530
 4490TIP3   OH234884   3.079   2.568  13.301  0.0800  0.0668  0.1104
 4490TIP3    H134885   3.072   2.633  13.371  1.1653  0.3127  0.0060
 4490TIP3    H234886   3.061   2.617  13.220 -0.1929  0.0031  0.1340
 4491TIP3   OH234887   2.211   4.320  15.009  0.7320 -0.4946  0.0407
 4491TIP3    H134888   2.203   4.289  14.919 -2.4217 -3.0049  1.0882
 4491TIP3    H234889   2.288   4.275  15.043  2.7115  1.4658 -1.7386
 4492TIP3   OH234890   4.559   5.249   1.992 -0.2362 -0.0193  0.3246
 4492TIP3    H134891   4.567   5.303   1.913 -1.4441 -1.6918 -0.9778
 4492TIP3    H234892   4.498   5.297   2.048 -0.9923  0.1762 -0.6497
 4493TIP3   OH234893   4.146   0.820  14.752 -0.1909  0.2896  0.3510
 4493TIP3    H134894   4.124   0.763  14.826  2.6267  0.1219  1.1400
 4493TIP3    H234895   4.094   0.899  14.767  1.0588  0.6621  3.1264
 4494TIP3   OH234896   6.247   5.155  12.411  0.4613 -0.2666 -0.0894
 4494TIP3    H134897   6.264   5.219  12.480 -0.3284  1.3090 -1.3119
 4494TIP3    H234898   6.184   5.095  12.449  0.8076 -0.0188  0.9010
 4495TIP3   OH234899   2.982   5.109  11.863  0.1357 -0.2217 -0.5020
 4495TIP3    H134900   2.988   5.187  11.917  1.1245 -0.3565 -0.4114
 4495TIP3    H234901   2.964   5.038  11.925 -2.1339  0.1183 -0.7306
 4496TIP3   OH234902   2.350   0.536   3.383  0.2896  0.0626 -0.5505
 4496TIP3    H134903   2.300   0.618   3.389 -1.3201 -0.8719 -0.9565
 4496TIP3    H234904   2.442   0.564   3.385 -0.2314  1.7984  0.3810
 4497TIP3   OH234905   1.427   4.586  16.859  0.2367 -0.3401 -0.9397
 4497TIP3    H134906   1.351   4.536  16.831  0.0192 -0.0715 -0.8276
 4497TIP3    H234907   1.432   4.571  16.954  0.8668 -1.1053 -1.0865
 4498TIP3   OH234908   4.721   0.630  12.326 -0.4031 -0.1144  0.3590
 4498TIP3    H134909   4.758   0.636  12.238  0.1377 -0.3966  0.5625
 4498TIP3    H234910   4.653   0.697  12.328  1.7195  2.1040  0.7626
 4499TIP3   OH234911   1.761   3.061   2.192 -0.3908  0.5379 -0.2965
 4499TIP3    H134912   1.788   2.972   2.214 -0.4972  0.6386  0.2656
 4499TIP3    H234913   1.815   3.117   2.248  0.2765  0.8680 -1.2586
 4500TIP3   OH234914   5.425   2.098  14.178  0.2058  0.1056 -0.0583
 4500TIP3    H134915   5.359   2.166  14.168  0.4578  0.2028 -1.1371
 4500TIP3    H234916   5.504   2.144  14.206  0.3274  0.2319 -0.6118
 4501TIP3   OH234917   4.905   3.810  16.497 -0.1026  0.3373 -0.2585
 4501TIP3    H134918   4.910   3.905  16.499  0.8163  0.3077 -1.0468
 4501TIP3    H234919   4.962   3.784  16.425  0.4431 -0.8567  0.5800
 4502TIP3   OH234920   3.526   4.677   4.103  0.1825  0.0435 -0.3214
 4502TIP3    H134921   3.477   4.597   4.121  0.6465 -0.2426 -0.3075
 4502TIP3    H234922   3.460   4.741   4.077 -0.3489  0.0585  0.9980
 4503TIP3   OH234923   5.016   6.584  16.487 -0.2359  0.4010  0.1760
 4503TIP3    H134924   5.103   6.614  16.463 -0.6654  1.3896 -0.1648
 4503TIP3    H234925   5.031   6.504  16.537  0.9326  1.3362  1.3296
 4504TIP3   OH234926   2.128   1.768   4.142  0.0955 -0.1913 -0.4377
 4504TIP3    H134927   2.071   1.729   4.208  1.6508 -2.3452 -0.3014
 4504TIP3    H234928   2.210   1.719   4.150  1.3427  1.6235 -1.8493
 4505TIP3   OH234929   3.909   4.121   2.014 -0.0355 -0.4923 -0.2470
 4505TIP3    H134930   4.004   4.122   2.017 -0.0231 -0.1338 -0.6174
 4505TIP3    H234931   3.881   4.157   2.098  0.1386 -1.8414  0.4034
 4506TIP3   OH234932   4.863   4.724  13.573  0.1474 -0.5140  0.4340
 4506TIP3    H134933   4.926   4.753  13.639  0.0532  1.6465 -0.3647
 4506TIP3    H234934   4.910   4.660  13.521  1.1368 -0.1480  0.8698
 4507TIP3   OH234935   0.138   5.115   6.165  0.2613 -0.1526  1.1293
 4507TIP3    H134936   0.197   5.042   6.181 -1.5491 -2.2393 -1.4772
 4507TIP3    H234937   0.054   5.075   6.143 -0.7793  2.6777 -0.3809
 4508TIP3   OH234938   3.876   0.233   6.493 -0.7389 -0.1130 -0.2001
 4508TIP3    H134939   3.891   0.328   6.499 -0.9662 -0.1088  0.2985
 4508TIP3    H234940   3.846   0.219   6.404 -2.1708  0.4840  0.1717
 4509TIP3   OH234941   3.801   4.238   2.229  0.6397  0.6422  0.7084
 4509TIP3    H134942   3.740   4.295   2.276 -0.4171 -0.0394  0.1804
 4509TIP3    H234943   3.857   4.200   2.297 -1.3142 -0.8602  1.5220
 4510TIP3   OH234944   6.060   5.093   1.456  0.1478  0.0520  0.2318
 4510TIP3    H134945   6.057   4.998   1.469  0.3681 -0.1391 -1.0860
 4510TIP3    H234946   5.978   5.115   1.413  1.2399  0.0549 -1.9273
 4511TIP3   OH234947   3.450   3.858   0.238  0.0862  0.1663 -0.2612
 4511TIP3    H134948   3.484   3.816   0.159  0.5734 -0.5429  0.3180
 4511TIP3    H234949   3.460   3.791   0.306 -0.5452  0.6942  0.3460
 4512TIP3   OH234950   6.075   0.419   3.299  0.0280  0.4907  0.2776
 4512TIP3    H134951   6.004   0.358   3.321  1.2095 -1.1870 -0.4448
 4512TIP3    H234952   6.037   0.478   3.234 -1.0570  0.3678  0.7840
 4513TIP3   OH234953   2.938   2.807  12.838  0.0932 -0.2113 -0.0916
 4513TIP3    H134954   2.892   2.891  12.842  0.8307  0.2237 -0.6233
 4513TIP3    H234955   2.908   2.767  12.756  2.3185  1.0704 -1.5960
 4514TIP3   OH234956   5.911   4.452   5.800  0.4898  0.1107 -0.5435
 4514TIP3    H134957   5.965   4.517   5.846 -0.7211  1.5923 -1.1705
 4514TIP3    H234958   5.948   4.449   5.712  0.8286 -0.4097 -0.3890
 4515TIP3   OH234959   3.223   0.956  13.324 -0.1407 -0.5324 -0.0793
 4515TIP3    H134960   3.217   1.014  13.400  0.2110 -2.4713  1.4574
 4515TIP3    H234961   3.282   0.886  13.352 -1.3635 -2.1765 -1.5524
 4516TIP3   OH234962   6.358   2.817  11.336  0.1589  0.4047 -0.0551
 4516TIP3    H134963   6.265   2.839  11.343  0.6218  2.9665 -1.2159
 4516TIP3    H234964   6.368   2.781  11.248  0.1334 -0.7073  0.3850
 4517TIP3   OH234965   0.927   5.441  15.278  0.4665  0.6588  0.6767
 4517TIP3    H134966   0.956   5.531  15.289  0.8578  0.5961  0.1527
 4517TIP3    H234967   1.008   5.390  15.275  0.3435  0.5815 -1.6448
 4518TIP3   OH234968   4.063   2.226   1.351 -0.0479 -0.1031 -0.1868
 4518TIP3    H134969   4.029   2.238   1.440  0.8111  1.3298 -0.0301
 4518TIP3    H234970   4.122   2.300   1.338  0.3247 -0.6515 -1.7266
 4519TIP3   OH234971   5.549   6.722   0.116  0.3428 -0.1761  0.3154
 4519TIP3    H134972   5.517   6.728   0.205 -0.0012  0.0652  0.1740
 4519TIP3    H234973   5.642   6.745   0.122  0.5629 -1.1287  0.7626
 4520TIP3   OH234974   5.537   0.394  12.621 -0.1406 -0.1385  0.0766
 4520TIP3    H134975   5.445   0.374  12.637 -0.0104 -0.2478  0.7291
 4520TIP3    H234976   5.539   0.437  12.536 -0.6846 -0.9811 -0.3589
 4521TIP3   OH234977   0.550   5.983   3.093  0.0256  0.1801 -0.0257
 4521TIP3    H134978   0.535   5.980   3.187  0.9338  0.5177  0.1324
 4521TIP3    H234979   0.572   5.893   3.069  1.6156  0.4255  0.4049
 4522TIP3   OH234980   5.883   1.203   5.597  0.4109  0.8841 -0.6085
 4522TIP3    H134981   5.820   1.131   5.606  1.5854 -0.0894 -0.1189
 4522TIP3    H234982   5.940   1.176   5.525  2.2453  0.2511  1.0339
 4523TIP3   OH234983   5.692   3.169  13.972 -0.0149 -0.2245  0.0936
 4523TIP3    H134984   5.625   3.101  13.973  0.2677 -0.5508 -1.1606
 4523TIP3    H234985   5.737   3.156  13.888 -0.1823  1.7283 -0.3169
 4524TIP3   OH234986   5.111   6.242  14.087  0.5200  0.2660  0.0011
 4524TIP3    H134987   5.054   6.308  14.126  1.6162  1.5375 -0.4919
 4524TIP3    H234988   5.165   6.210  14.159  0.9230  0.8957 -0.0239
 4525TIP3   OH234989   1.671   3.309  10.907 -0.5675  0.4610 -0.3495
 4525TIP3    H134990   1.722   3.334  10.830  0.8106 -1.3199 -0.0435
 4525TIP3    H234991   1.727   3.331  10.982 -0.3105 -1.2454 -0.0054
 4526TIP3   OH234992   3.597   6.306  14.919 -0.3074 -0.0011  0.1909
 4526TIP3    H134993   3.544   6.261  14.853  0.3645 -0.6801  0.1013
 4526TIP3    H234994   3.671   6.341  14.869  0.3672 -0.7851  0.6250
 4527TIP3   OH234995   3.454   0.125  11.741  0.4431  0.2548  0.0656
 4527TIP3    H134996   3.420   0.083  11.820 -0.3433  2.1471  0.7791
 4527TIP3    H234997   3.455   0.219  11.763  1.4823  0.6825 -1.7025
 4528TIP3   OH234998   4.167   1.790  11.731  0.2185 -0.2533  0.1441
 4528TIP3    H134999   4.220   1.867  11.712 -0.7545  0.4704  0.3083
 4528TIP3    H235000   4.128   1.808  11.817 -0.6149 -0.5845 -0.1550
 4529TIP3   OH235001   6.291   3.742  14.201 -0.4194 -0.3238 -0.1028
 4529TIP3    H135002   6.356   3.765  14.268 -0.2375 -1.0255 -0.0353
 4529TIP3    H235003   6.286   3.646  14.205 -0.8786 -0.3195 -0.6554
 4530TIP3   OH235004   4.580   6.596   2.495  0.0718  0.0636 -0.2865
 4530TIP3    H135005   4.583   6.681   2.539 -0.9181 -0.1212  0.1375
 4530TIP3    H235006   4.507   6.550   2.535  1.4704 -1.5636  0.4763
 4531TIP3   OH235007   5.067   5.488  14.948 -0.4617 -0.4382 -0.1775
 4531TIP3    H135008   5.113   5.431  15.009 -0.7845 -3.1064 -2.3506
 4531TIP3    H235009   5.137   5.532  14.899 -0.2024  1.9195  2.2479
 4532TIP3   OH235010   2.570   1.387   1.734  0.5473  1.0355  0.4274
 4532TIP3    H135011   2.532   1.466   1.695  1.4859  0.5303 -1.5261
 4532TIP3    H235012   2.662   1.389   1.708  0.8079 -0.2148  1.1990
 4533TIP3   OH235013   5.315   1.714  10.610 -0.3788 -0.0074 -0.3420
 4533TIP3    H135014   5.323   1.622  10.636  0.5922  0.1992  0.0919
 4533TIP3    H235015   5.288   1.759  10.690  0.3835  0.2766 -0.2429
 4534TIP3   OH235016   0.667   3.828   4.055 -0.2981  0.2417 -0.5303
 4534TIP3    H135017   0.672   3.764   3.983 -2.6223 -1.4118  0.7011
 4534TIP3    H235018   0.626   3.905   4.016 -1.0386 -0.4449 -1.1373
 4535TIP3   OH235019   3.409   4.685  11.391 -0.5593 -0.2021 -0.7897
 4535TIP3    H135020   3.342   4.752  11.393  0.0134  0.3430  0.2486
 4535TIP3    H235021   3.481   4.721  11.443 -0.5944 -1.9826  0.5191
 4536TIP3   OH235022   3.722   3.116  12.596  0.2365 -0.5229 -0.0248
 4536TIP3    H135023   3.736   3.022  12.603  1.4729 -0.3627 -0.2306
 4536TIP3    H235024   3.668   3.127  12.518 -0.8511 -1.1405  0.6297
 4537TIP3   OH235025   6.007   0.227  15.722  0.3790 -0.2653 -0.2374
 4537TIP3    H135026   6.026   0.200  15.632  0.3792  1.2699 -0.7257
 4537TIP3    H235027   6.059   0.307  15.734 -0.9584  0.5150  0.5240
 4538TIP3   OH235028   2.511   2.566  17.128 -0.0801  0.2877 -0.0629
 4538TIP3    H135029   2.437   2.605  17.080  0.9611  1.5011 -0.7103
 4538TIP3    H235030   2.564   2.641  17.156  2.2142 -0.6320 -1.7362
 4539TIP3   OH235031   4.170   1.883   4.780 -0.3919  0.1801 -0.3907
 4539TIP3    H135032   4.204   1.841   4.859 -0.1078 -1.4454 -1.3635
 4539TIP3    H235033   4.084   1.844   4.767 -0.5965  0.7207 -0.6816
 4540TIP3   OH235034   5.177   0.631   1.013 -0.4190  0.6053 -0.0025
 4540TIP3    H135035   5.238   0.561   0.988 -0.0736  0.9877 -0.2358
 4540TIP3    H235036   5.139   0.661   0.931 -2.1094 -0.6925  0.2773
 4541TIP3   OH235037   6.505   1.853  11.778 -0.0525  0.3465  0.0718
 4541TIP3    H135038   6.474   1.863  11.688  0.4529  1.8129  0.0520
 4541TIP3    H235039   6.425   1.852  11.831 -0.3492 -0.5040 -0.3752
 4542TIP3   OH235040   2.934   6.548   0.978  0.1724  0.1253  0.4295
 4542TIP3    H135041   2.891   6.498   0.909 -0.8189  1.2761  0.2200
 4542TIP3    H235042   2.891   6.519   1.059  0.5285 -0.3482  0.4539
 4543TIP3   OH235043   0.257   2.166   1.195 -0.1061 -0.0538  0.1657
 4543TIP3    H135044   0.237   2.072   1.196 -1.5947  0.2522  1.3669
 4543TIP3    H235045   0.324   2.176   1.263  2.4764 -0.7007 -2.1759
 4544TIP3   OH235046   4.231   2.918  13.114  0.0171  0.2991  0.0321
 4544TIP3    H135047   4.281   2.993  13.081  0.2132  0.0006 -0.3593
 4544TIP3    H235048   4.186   2.884  13.036  0.9435 -0.7704 -0.0498
 4545TIP3   OH235049   4.057   0.687  13.806 -0.4090  0.1566 -0.3547
 4545TIP3    H135050   4.097   0.745  13.871  0.2233 -0.4011 -0.2477
 4545TIP3    H235051   4.006   0.625  13.858  1.6732 -1.5160 -0.2576
 4546TIP3   OH235052   0.557   0.323  11.155  0.0683  0.8230  0.1292
 4546TIP3    H135053   0.640   0.281  11.175 -0.4988 -0.0339  0.7392
 4546TIP3    H235054   0.493   0.276  11.208 -0.8177  1.4243 -0.3849
 4547TIP3   OH235055   0.290   6.460  15.518  0.1903  0.2797 -0.3559
 4547TIP3    H135056   0.280   6.511  15.437 -4.2448 -1.1364 -0.8060
 4547TIP3    H235057   0.336   6.381  15.491  1.4125  1.1570 -0.8875
 4548TIP3   OH235058   6.613   2.267   6.103  0.2708  0.0604  0.0577
 4548TIP3    H135059   6.704   2.241   6.090  0.3458  0.8548 -1.1064
 4548TIP3    H235060   6.563   2.214   6.040 -0.0057 -0.0193  0.3431
 4549TIP3   OH235061   2.896   6.649  16.131  0.1412 -0.3923 -0.3605
 4549TIP3    H135062   2.881   6.562  16.168  0.5074  0.0497  0.8528
 4549TIP3    H235063   2.894   6.636  16.036 -0.9710 -1.5195 -0.1922
 4550TIP3   OH235064   3.758   3.642   5.497 -0.2558  0.2178  0.3019
 4550TIP3    H135065   3.774   3.716   5.555  0.5782 -0.9496  1.5842
 4550TIP3    H235066   3.681   3.598   5.533  0.4859 -0.7236  0.7728
 4551TIP3   OH235067   3.285   6.676  14.084 -0.1931 -0.3229  0.3198
 4551TIP3    H135068   3.244   6.591  14.100  2.1348 -2.1225 -2.6803
 4551TIP3    H235069   3.365   6.675  14.136 -0.6351  0.4562  1.0313
 4552TIP3   OH235070   1.841   2.315  14.965  0.0968  0.3502  0.5210
 4552TIP3    H135071   1.909   2.261  14.927 -2.3737 -1.5235 -1.3852
 4552TIP3    H235072   1.882   2.401  14.976  2.0275 -0.0425 -2.8808
 4553TIP3   OH235073   0.363   2.029  11.853 -0.2051 -0.1866 -0.0245
 4553TIP3    H135074   0.366   1.970  11.928  1.4762 -1.3705 -1.0137
 4553TIP3    H235075   0.415   2.105  11.880 -0.6401 -0.0608  0.4673
 4554TIP3   OH235076   3.948   5.494   2.818  0.1236 -0.0367 -0.1101
 4554TIP3    H135077   3.924   5.422   2.876  0.7569  0.5527  0.8854
 4554TIP3    H235078   3.955   5.570   2.875  2.3313  0.2209 -0.6838
 4555TIP3   OH235079   0.011   4.855  12.408 -0.0264 -0.3842 -0.0851
 4555TIP3    H135080   0.052   4.830  12.491 -0.4291 -0.3772  0.1170
 4555TIP3    H235081   0.053   4.800  12.342 -0.0792 -0.7547  0.1948
 4556TIP3   OH235082   4.724   5.073   1.551  0.1566  0.6573 -0.4457
 4556TIP3    H135083   4.805   5.084   1.600  1.3418 -0.5276 -2.0900
 4556TIP3    H235084   4.705   5.160   1.516  1.0756  0.7989 -0.5960
 4557TIP3   OH235085   2.065   3.960   1.232  0.6453  0.4055  0.9211
 4557TIP3    H135086   2.036   3.994   1.316 -2.5618  2.6115 -0.9432
 4557TIP3    H235087   2.063   4.037   1.174  0.6808 -1.4671 -1.6499
 4558TIP3   OH235088   2.030   1.053  16.601  0.1580  0.1309 -0.1715
 4558TIP3    H135089   2.055   1.120  16.537  1.5363 -0.0333  0.1744
 4558TIP3    H235090   1.934   1.051  16.598  0.1324  1.5466 -0.7695
 4559TIP3   OH235091   5.779   2.468   5.599  0.5198  0.0642 -0.2668
 4559TIP3    H135092   5.694   2.484   5.558 -0.0324 -3.1442 -0.5623
 4559TIP3    H235093   5.836   2.442   5.527  1.0099 -0.3428  0.2612
 4560TIP3   OH235094   6.512   1.388  16.379 -0.0263  0.5537  0.3661
 4560TIP3    H135095   6.451   1.382  16.306 -0.3640 -0.1059  0.7026
 4560TIP3    H235096   6.593   1.350  16.346 -0.3423 -0.2491  0.5066
 4561TIP3   OH235097   3.017   2.248  17.129  0.4084  0.7067 -0.3095
 4561TIP3    H135098   2.962   2.326  17.130 -0.3341  0.2333 -2.0340
 4561TIP3    H235099   3.085   2.265  17.194 -0.4463  2.2708  0.1874
 4562TIP3   OH235100   3.388   4.870  16.909  0.8430 -0.7724 -0.2771
 4562TIP3    H135101   3.314   4.848  16.852  1.1551  0.4810 -1.1704
 4562TIP3    H235102   3.362   4.952  16.951  0.9549 -1.2769  0.8107
 4563TIP3   OH235103   6.529   3.434  14.999  0.2717  0.2497  0.2973
 4563TIP3    H135104   6.602   3.372  14.996  1.0866  1.1320  1.4051
 4563TIP3    H235105   6.530   3.468  15.088 -1.4518  0.3455  0.2919
 4564TIP3   OH235106   2.306   6.226   2.278 -0.3979 -0.3936 -0.5663
 4564TIP3    H135107   2.287   6.133   2.271  0.7228 -0.7611  1.0427
 4564TIP3    H235108   2.387   6.238   2.228 -0.0619 -0.4517 -0.0416
 4565TIP3   OH235109   5.766   1.008  14.959  0.2059  0.1407  0.3086
 4565TIP3    H135110   5.839   0.948  14.942  1.4546  1.8951 -0.7260
 4565TIP3    H235111   5.709   0.960  15.019  1.1446 -2.0838 -0.5174
 4566TIP3   OH235112   0.749   4.083   2.442 -0.2528 -0.2252  0.3245
 4566TIP3    H135113   0.670   4.127   2.409 -1.2086  0.2841  3.1349
 4566TIP3    H235114   0.809   4.083   2.368 -1.9247  1.7627 -1.1038
 4567TIP3   OH235115   4.263   4.531   4.385  0.4497 -0.0345 -0.4805
 4567TIP3    H135116   4.282   4.442   4.354 -0.7599 -0.3777 -0.2322
 4567TIP3    H235117   4.300   4.533   4.474  0.0400 -0.4581 -0.2937
 4568TIP3   OH235118   5.115   5.173  12.960  0.0571 -0.3278  0.3992
 4568TIP3    H135119   5.164   5.246  13.001 -2.1633  2.1863 -1.2784
 4568TIP3    H235120   5.041   5.158  13.019 -0.1907 -0.3536  0.0821
 4569TIP3   OH235121   2.980   6.484   4.380 -0.0086  0.7738 -0.0952
 4569TIP3    H135122   2.947   6.498   4.291  0.1079  3.3498  0.2205
 4569TIP3    H235123   2.922   6.418   4.418 -1.1933  1.0126 -1.4792
 4570TIP3   OH235124   4.829   0.197  11.882 -0.4660 -0.1496  0.3228
 4570TIP3    H135125   4.857   0.146  11.806  0.2947  1.8881 -0.8085
 4570TIP3    H235126   4.866   0.284  11.867 -0.9166  0.4772  2.6857
 4571TIP3   OH235127   6.665   5.807   2.686  0.0030 -0.3583  0.2898
 4571TIP3    H135128   6.719   5.737   2.723 -0.2412 -0.6986 -0.0011
 4571TIP3    H235129   6.728   5.876   2.664  0.5613 -1.4713 -1.7278
 4572TIP3   OH235130   6.275   2.868  12.373  0.0766  0.5834 -0.5248
 4572TIP3    H135131   6.278   2.854  12.278  0.7297  0.1782 -0.4467
 4572TIP3    H235132   6.269   2.780  12.410 -0.8564  0.7701 -0.2065
 4573TIP3   OH235133   4.554   1.154  11.506 -0.3436 -0.2458  0.0215
 4573TIP3    H135134   4.474   1.190  11.470 -0.8473 -0.9148  0.4688
 4573TIP3    H235135   4.592   1.102  11.435  0.6149  1.4903 -0.7782
 4574TIP3   OH235136   6.330   3.018  15.530 -0.8488 -0.4944 -0.2942
 4574TIP3    H135137   6.352   3.105  15.565 -2.0874  1.4230 -4.0262
 4574TIP3    H235138   6.235   3.012  15.538 -0.6165 -2.3139  1.5524
 4575TIP3   OH235139   6.357   3.239   0.080  0.2623 -0.4801 -0.5280
 4575TIP3    H135140   6.397   3.242  -0.007 -2.8826 -2.0332 -2.1141
 4575TIP3    H235141   6.328   3.329   0.097  1.0679 -0.1329 -0.9557
 4576TIP3   OH235142   5.014   0.442  11.806 -0.1110 -0.5523  0.1126
 4576TIP3    H135143   5.072   0.488  11.745  0.2049  1.6156  1.9852
 4576TIP3    H235144   4.930   0.436  11.760 -0.0568  1.6356 -0.3126
 4577TIP3   OH235145   2.822   0.954   4.694 -0.0016 -0.1205  0.0843
 4577TIP3    H135146   2.891   0.956   4.760  1.7713 -2.9825 -1.6134
 4577TIP3    H235147   2.860   0.999   4.618 -0.9568  0.5363 -0.0148
 4578TIP3   OH235148   1.160   0.358  12.729  0.0298  0.6150 -0.1820
 4578TIP3    H135149   1.133   0.341  12.638  1.5915  1.2255 -0.7777
 4578TIP3    H235150   1.174   0.452  12.732  1.1494  0.4308  0.3718
 4579TIP3   OH235151   4.615   1.963   3.639  0.2673  0.1699  0.0540
 4579TIP3    H135152   4.535   2.010   3.616  0.5338  1.1929  1.1509
 4579TIP3    H235153   4.625   1.897   3.571 -1.2470  0.3497 -0.3558
 4580TIP3   OH235154   4.157   6.284  17.109 -0.3279 -0.3817  0.0334
 4580TIP3    H135155   4.128   6.351  17.047 -0.3104 -2.2253 -2.0034
 4580TIP3    H235156   4.091   6.216  17.104  0.5073 -1.2721  0.8707
 4581TIP3   OH235157   5.058   1.732   4.558 -0.6098  0.3118  0.9378
 4581TIP3    H135158   5.009   1.792   4.503 -1.5868 -0.1240  1.3292
 4581TIP3    H235159   5.147   1.735   4.523 -0.6617  1.9163  0.9048
 4582TIP3   OH235160   2.855   1.929  13.944  0.4958  0.3020  0.9686
 4582TIP3    H135161   2.936   1.893  13.978 -0.4896 -0.8734  2.1077
 4582TIP3    H235162   2.825   1.866  13.878  0.2768  0.5021  0.8728
 4583TIP3   OH235163   4.613   2.244   4.728  0.2968  0.5336  0.4066
 4583TIP3    H135164   4.597   2.334   4.756  0.2293  0.0710  1.8894
 4583TIP3    H235165   4.692   2.218   4.776  0.0543 -0.3530  0.3329
 4584TIP3   OH235166   4.528   1.893  16.563 -0.0823 -0.3716 -0.1505
 4584TIP3    H135167   4.488   1.925  16.482  0.5525  0.4437 -0.1544
 4584TIP3    H235168   4.607   1.947  16.573 -0.8389  0.4490  1.6951
 4585TIP3   OH235169   2.526   0.111   0.000  0.3341  0.7314  0.5799
 4585TIP3    H135170   2.503   0.203   0.014 -1.3456  0.2686  0.9503
 4585TIP3    H235171   2.505   0.095  -0.092 -1.0886  0.2305  0.9920
 4586TIP3   OH235172   4.849   6.140   4.545  0.3965  0.0246 -0.7001
 4586TIP3    H135173   4.869   6.112   4.456  0.3698  1.1742 -1.0739
 4586TIP3    H235174   4.755   6.125   4.554  0.5343 -0.8041 -0.6011
 4587TIP3   OH235175   2.308   3.541   6.178  0.2510 -0.4583  0.1821
 4587TIP3    H135176   2.364   3.564   6.104  0.5345  1.9421  1.1268
 4587TIP3    H235177   2.235   3.603   6.174  0.0668 -0.5658  1.6922
 4588TIP3   OH235178   4.105   5.389  15.029  0.2031  0.2214 -0.0341
 4588TIP3    H135179   4.021   5.430  15.008 -0.1418  0.2139  1.3013
 4588TIP3    H235180   4.170   5.447  14.991 -0.4187 -0.0850 -1.6159
 4589TIP3   OH235181   1.833   2.983   3.243  0.2415  0.1526  0.3590
 4589TIP3    H135182   1.752   3.029   3.262 -0.8094 -0.7044 -1.7896
 4589TIP3    H235183   1.892   3.050   3.207  1.2539  1.1881  3.8050
 4590TIP3   OH235184   0.021   3.995  11.474 -0.1333 -0.4974 -0.6053
 4590TIP3    H135185  -0.054   4.049  11.446 -0.0879 -0.4490 -0.6360
 4590TIP3    H235186  -0.017   3.909  11.493 -0.2208 -0.4263 -0.4626
 4591TIP3   OH235187   0.012   2.307   2.267 -0.2920 -0.1606  0.3286
 4591TIP3    H135188   0.015   2.393   2.224 -1.1273  0.2343  1.0579
 4591TIP3    H235189   0.099   2.270   2.251  0.5071  1.3368  1.0559
 4592TIP3   OH235190   5.163   3.155  12.942 -0.1471 -0.0167  0.2265
 4592TIP3    H135191   5.073   3.181  12.961 -0.8681 -1.2999 -1.3464
 4592TIP3    H235192   5.199   3.228  12.892 -0.7721 -0.1136 -0.3744
 4593TIP3   OH235193   6.413   5.187   0.309 -0.3267 -0.2839  0.2978
 4593TIP3    H135194   6.436   5.138   0.388 -1.0718 -1.8338 -0.4253
 4593TIP3    H235195   6.332   5.146   0.278 -0.8827  1.3067 -0.4190
 4594TIP3   OH235196   3.707   1.626   5.432  0.1223  0.8807  0.2421
 4594TIP3    H135197   3.794   1.649   5.464  0.8360 -1.4611  0.1190
 4594TIP3    H235198   3.715   1.534   5.406 -2.0020  1.0584 -1.1491
 4595TIP3   OH235199   2.742   6.509   5.158  0.0669  0.1186 -0.0697
 4595TIP3    H135200   2.834   6.481   5.154  0.6970  2.0363  0.3706
 4595TIP3    H235201   2.737   6.584   5.098 -1.4524 -0.5914 -0.8408
 4596TIP3   OH235202   4.883   5.796   6.001  0.3157 -0.0028 -0.0502
 4596TIP3    H135203   4.799   5.843   6.004 -1.7189 -3.4602 -0.2802
 4596TIP3    H235204   4.914   5.798   6.091 -1.2788 -0.7938  0.5485
 4597TIP3   OH235205   1.798   4.896  17.023  0.4450  0.5118 -0.0562
 4597TIP3    H135206   1.711   4.895  16.983  0.4210 -1.8377  0.0055
 4597TIP3    H235207   1.823   4.989  17.023 -2.7533  1.4757  1.4424
 4598TIP3   OH235208   1.696   4.725  15.073 -0.5757 -0.1507 -0.0725
 4598TIP3    H135209   1.735   4.771  15.147 -0.5063  1.3019 -0.9754
 4598TIP3    H235210   1.740   4.762  14.996  0.1134 -2.3819 -0.7806
 4599TIP3   OH235211   5.001   6.523   1.308 -0.4051  0.8035 -0.1426
 4599TIP3    H135212   5.089   6.506   1.276 -0.3506  1.0992 -0.1451
 4599TIP3    H235213   4.980   6.447   1.363 -0.4562  0.3449 -0.7850
 4600TIP3   OH235214   4.355   6.514   2.633 -0.4216 -0.1666  0.1713
 4600TIP3    H135215   4.303   6.593   2.618  1.5719  1.5375  1.9103
 4600TIP3    H235216   4.312   6.470   2.706 -0.6980  0.0791  0.1558
 4601TIP3   OH235217   4.710   6.270   4.912 -0.5341  0.0102 -0.6558
 4601TIP3    H135218   4.698   6.348   4.966  3.6782  0.0543  0.4015
 4601TIP3    H235219   4.681   6.198   4.967  1.2987  0.3132  0.7848
 4602TIP3   OH235220   3.661   5.819   6.085 -0.0453 -0.2238  0.5921
 4602TIP3    H135221   3.751   5.790   6.067 -0.5159 -0.6297 -1.1484
 4602TIP3    H235222   3.614   5.739   6.105 -1.4652 -0.8983 -4.7086
 4603TIP3   OH235223   6.138   2.423   0.594  0.6216 -0.0883  0.5148
 4603TIP3    H135224   6.217   2.370   0.587  0.4000 -0.1392 -2.0531
 4603TIP3    H235225   6.163   2.509   0.561 -0.3831 -0.1095 -0.3417
 4604TIP3   OH235226   1.564   2.859  13.545 -0.0580  0.0691  0.0916
 4604TIP3    H135227   1.590   2.948  13.570 -0.1927 -0.1304  0.9792
 4604TIP3    H235228   1.469   2.865  13.534 -0.1972 -0.1670  1.0791
 4605TIP3   OH235229   2.979   4.494  14.834 -0.3480 -0.0973 -0.1412
 4605TIP3    H135230   3.005   4.586  14.838  0.0252 -0.2186  0.3363
 4605TIP3    H235231   2.982   4.464  14.925 -0.7074 -0.5158 -0.2652
 4606TIP3   OH235232   1.393   1.848   3.323  0.3371  0.3433 -0.0269
 4606TIP3    H135233   1.481   1.885   3.332  1.1320 -1.2073 -1.2503
 4606TIP3    H235234   1.346   1.880   3.400  2.2281  0.4777  1.1159
 4607TIP3   OH235235   1.110   5.316   1.489 -0.5395  0.5735 -0.5496
 4607TIP3    H135236   1.108   5.291   1.581 -1.5359  0.7437 -0.5158
 4607TIP3    H235237   1.140   5.407   1.489  2.2605 -0.3093 -0.6110
 4608TIP3   OH235238   3.876   3.986   6.397  0.0807 -0.4595  0.6428
 4608TIP3    H135239   3.947   4.008   6.337  0.3401  1.5228  1.6436
 4608TIP3    H235240   3.804   4.043   6.371 -0.9690 -2.0335  0.0264
 4609TIP3   OH235241   4.951   4.250   5.792 -0.7002 -0.2688 -0.0580
 4609TIP3    H135242   4.918   4.222   5.707 -1.1085 -0.5499  0.1925
 4609TIP3    H235243   4.964   4.169   5.841 -2.4968 -0.0113  0.8958
 4610TIP3   OH235244   6.664   0.701   4.622  0.5733  0.1878 -0.5029
 4610TIP3    H135245   6.600   0.680   4.691 -1.3655  2.0065 -1.6647
 4610TIP3    H235246   6.616   0.686   4.540  1.7408  1.2547 -1.3967
 4611TIP3   OH235247   2.797   5.843   1.159 -0.0330 -0.1756  0.8399
 4611TIP3    H135248   2.847   5.920   1.186 -0.1816  1.0114 -2.1572
 4611TIP3    H235249   2.763   5.865   1.073 -2.5612 -2.4759  1.1955
 4612TIP3   OH235250   5.327   1.194   4.697 -0.2230  0.5734 -0.1448
 4612TIP3    H135251   5.302   1.249   4.623  0.0122 -1.8434 -2.0505
 4612TIP3    H235252   5.392   1.134   4.662  0.3598 -0.2101  2.1812
 4613TIP3   OH235253   2.219   4.259  15.538 -0.1182 -0.1271  0.2193
 4613TIP3    H135254   2.174   4.337  15.570 -0.0148  0.1773 -0.3740
 4613TIP3    H235255   2.296   4.292  15.491  0.6942 -0.6407  1.1596
 4614TIP3   OH235256   4.302   3.192  16.212  0.7925  0.3226 -0.2895
 4614TIP3    H135257   4.301   3.184  16.116  0.3144  2.5093 -0.5036
 4614TIP3    H235258   4.394   3.210  16.234  0.6264  1.4601 -0.5063
 4615TIP3   OH235259   3.716   6.266   0.998  0.0094  0.1306 -0.6194
 4615TIP3    H135260   3.800   6.221   1.012  0.0270  0.4978  0.5507
 4615TIP3    H235261   3.651   6.208   1.036 -0.1111  0.4853 -0.2786
 4616TIP3   OH235262   1.586   0.366  15.355 -0.1723 -0.5602 -0.8465
 4616TIP3    H135263   1.609   0.436  15.417  1.3851 -1.9013  0.1326
 4616TIP3    H235264   1.491   0.367  15.352 -0.2585 -0.2616  1.3222
 4617TIP3   OH235265   0.021   4.844   1.903  0.3431 -0.2250  0.4803
 4617TIP3    H135266   0.069   4.777   1.950  1.7099 -1.0838 -2.0576
 4617TIP3    H235267  -0.038   4.796   1.845  1.3606  0.7024 -1.3879
 4618TIP3   OH235268   4.471   4.322  17.234 -0.2301 -0.3357  0.5153
 4618TIP3    H135269   4.396   4.319  17.175 -1.6010  0.4505  2.1833
 4618TIP3    H235270   4.447   4.266  17.307  1.1674 -0.7544  0.6746
 4619TIP3   OH235271   6.584   1.404   4.572 -0.0709 -0.0699  0.7557
 4619TIP3    H135272   6.653   1.457   4.533 -0.8290  0.8703  0.6866
 4619TIP3    H235273   6.515   1.466   4.593 -1.5766 -1.2257 -0.6700
 4620TIP3   OH235274   4.089   2.315   5.649 -0.0290 -0.3100 -0.4601
 4620TIP3    H135275   4.057   2.257   5.717 -0.2765  0.0116 -0.3031
 4620TIP3    H235276   4.010   2.347   5.605  0.1480 -0.9408 -1.2526
 4621TIP3   OH235277   1.804   3.922  17.044 -0.1807 -0.0784  0.0498
 4621TIP3    H135278   1.881   3.915  16.988 -0.5851  0.5942 -0.6053
 4621TIP3    H235279   1.818   3.858  17.113  1.6408  1.0396  0.7566
 4622TIP3   OH235280   2.068   2.833  15.259 -0.1271  0.4141 -0.0771
 4622TIP3    H135281   2.105   2.893  15.323  2.9959 -1.5253  0.0417
 4622TIP3    H235282   2.025   2.765  15.311  0.7966 -0.1678 -0.0642
 4623TIP3   OH235283   1.543   0.996  13.650  0.4126 -0.0875 -0.3442
 4623TIP3    H135284   1.571   1.083  13.624 -2.3263  0.5794 -1.2501
 4623TIP3    H235285   1.559   0.942  13.573  1.8930 -0.3531  0.1386
 4624TIP3   OH235286   2.256   1.561  12.298  0.3779  0.0514  0.2430
 4624TIP3    H135287   2.350   1.577  12.303  0.5053 -0.2658 -0.8579
 4624TIP3    H235288   2.241   1.538  12.206 -0.9682  1.3202  0.1335
 4625TIP3   OH235289   5.508   0.155   4.222 -0.2368  0.2439 -0.0771
 4625TIP3    H135290   5.486   0.230   4.167  0.6352 -0.6282 -1.6365
 4625TIP3    H235291   5.574   0.190   4.283  0.0390  0.7914 -0.6799
 4626TIP3   OH235292   2.439   6.604   3.709 -0.0707 -0.4128  0.4803
 4626TIP3    H135293   2.502   6.592   3.780 -0.2083 -0.7416  0.5498
 4626TIP3    H235294   2.450   6.527   3.654  1.0350  0.5345 -0.6364
 4627TIP3   OH235295   0.757   3.076   1.540 -0.1292 -0.1811  0.1818
 4627TIP3    H135296   0.748   2.991   1.583 -2.2467 -0.0299  0.0903
 4627TIP3    H235297   0.780   3.056   1.450 -1.1422 -0.6875  0.0290
 4628TIP3   OH235298   5.242   0.580  13.599  0.2166  0.6942  0.2696
 4628TIP3    H135299   5.239   0.494  13.641 -0.5314 -0.2603 -1.6841
 4628TIP3    H235300   5.195   0.638  13.658 -1.9185 -0.8933  0.1565
 4629TIP3   OH235301   2.528   6.190  17.167 -0.5178  0.5206  0.3146
 4629TIP3    H135302   2.535   6.270  17.218 -0.6064  1.2416 -0.8043
 4629TIP3    H235303   2.519   6.219  17.076 -0.1197 -0.7506 -0.1486
 4630TIP3   OH235304   3.859   0.976  16.600  0.0861  0.1855 -0.2126
 4630TIP3    H135305   3.899   0.928  16.527  2.3116  1.1635  0.3083
 4630TIP3    H235306   3.816   0.908  16.653 -1.9109 -0.4692 -2.6157
 4631TIP3   OH235307   4.204   3.059   5.043  0.6758 -0.3442  0.6876
 4631TIP3    H135308   4.254   3.081   5.121  2.1321  0.2562 -0.3928
 4631TIP3    H235309   4.113   3.074   5.068  1.2465  1.5981  1.7013
 4632TIP3   OH235310   0.433   0.836  17.193  0.2159 -0.4418 -0.3304
 4632TIP3    H135311   0.440   0.829  17.098  0.1311 -1.1796 -0.2868
 4632TIP3    H235312   0.481   0.916  17.215 -1.1669  0.6382 -1.1533
 4633TIP3   OH235313   2.573   3.998   3.947  0.1883 -0.3043 -0.5997
 4633TIP3    H135314   2.648   3.949   3.914  0.9170  0.8515 -0.6776
 4633TIP3    H235315   2.606   4.043   4.024 -0.2529  0.7074 -0.9986
 4634TIP3   OH235316   3.413   0.851   1.737 -0.3584 -0.0888 -0.6441
 4634TIP3    H135317   3.498   0.893   1.726 -0.1842 -0.9233 -2.8685
 4634TIP3    H235318   3.378   0.845   1.648 -2.8396  0.4324  0.2625
 4635TIP3   OH235319   0.678   1.990   5.492  0.0248  0.1446 -0.5980
 4635TIP3    H135320   0.661   2.084   5.497 -0.1151  0.0192  1.6806
 4635TIP3    H235321   0.624   1.960   5.419 -2.1778  1.3578  0.4816
 4636TIP3   OH235322   1.584   2.108   4.152  0.7953  0.2329 -1.1303
 4636TIP3    H135323   1.610   2.124   4.061 -0.1566  1.2048 -1.2466
 4636TIP3    H235324   1.624   2.179   4.202  1.2512 -0.2549 -0.8001
 4637TIP3   OH235325   2.818   1.045   1.937 -0.0461  0.0204 -0.0340
 4637TIP3    H135326   2.898   1.097   1.941 -0.6708  0.9665  0.5327
 4637TIP3    H235327   2.812   1.016   1.846  1.3258 -0.6860  0.0979
 4638TIP3   OH235328   0.914   0.357  15.672  0.3533 -0.9813  0.2426
 4638TIP3    H135329   0.968   0.435  15.660  0.6959 -1.2397  0.1182
 4638TIP3    H235330   0.938   0.324  15.759 -0.6130 -0.3070  0.7842
 4639TIP3   OH235331   5.044   2.464   0.797  0.5847 -0.3486 -0.5750
 4639TIP3    H135332   5.000   2.514   0.728  0.2307 -1.8297 -1.4663
 4639TIP3    H235333   4.989   2.477   0.875  0.1519  0.1345 -0.9581
 4640TIP3   OH235334   1.711   3.060  17.090 -0.0504  0.4570  0.4160
 4640TIP3    H135335   1.794   3.059  17.137  1.6881 -0.0128 -2.4893
 4640TIP3    H235336   1.681   2.969  17.091  1.6914 -0.2176 -2.1032
 4641TIP3   OH235337   5.762   0.118   5.436 -0.4441 -0.2563  0.0469
 4641TIP3    H135338   5.774   0.154   5.348  0.2277 -0.3516  0.0956
 4641TIP3    H235339   5.828   0.163   5.489  0.0519 -1.1656  0.2168
 4642TIP3   OH235340   3.484   1.389   5.628  0.3251  0.0675  0.2049
 4642TIP3    H135341   3.482   1.354   5.718  2.2774  0.3988  0.3988
 4642TIP3    H235342   3.577   1.389   5.605 -0.2797 -1.4190 -2.3826
 4643TIP3   OH235343   3.703   4.847   2.936 -1.0961  0.0507 -0.4555
 4643TIP3    H135344   3.725   4.770   2.883  0.2104  1.5469 -2.1626
 4643TIP3    H235345   3.786   4.873   2.976 -1.6281  0.2885  0.4983
 4644TIP3   OH235346   0.335   0.803   0.729  0.2299 -0.0668 -0.2999
 4644TIP3    H135347   0.271   0.867   0.760 -0.2803 -0.3576 -0.7350
 4644TIP3    H235348   0.312   0.722   0.775 -0.6617 -0.5511 -1.5751
 4645TIP3   OH235349   2.562   1.119   5.732  0.2410 -0.7529  0.4138
 4645TIP3    H135350   2.648   1.145   5.698 -0.0391 -0.5678 -0.1627
 4645TIP3    H235351   2.555   1.026   5.710  0.7865 -1.0626  1.5125
 4646TIP3   OH235352   1.406   0.603   1.237  0.4842 -0.0872 -0.1183
 4646TIP3    H135353   1.465   0.627   1.166  1.6800 -0.9467  0.5652
 4646TIP3    H235354   1.464   0.587   1.312 -0.6194 -0.9184  0.5723
 4647TIP3   OH235355   3.188   4.236   4.623 -0.0656  0.4469 -0.1772
 4647TIP3    H135356   3.236   4.267   4.700  1.9007  1.4904 -1.7603
 4647TIP3    H235357   3.195   4.141   4.626  0.1589  0.4960  0.8216
 4648TIP3   OH235358   2.026   2.021  12.822 -0.2419  0.2576 -0.3629
 4648TIP3    H135359   2.001   2.013  12.914 -1.3398  0.2917 -0.6495
 4648TIP3    H235360   1.942   2.022  12.775  0.2691  1.5455 -1.2669
 4649TIP3   OH235361   4.024   4.812   3.498 -0.0998  0.0212 -0.1000
 4649TIP3    H135362   3.976   4.770   3.570 -0.2768  0.8648  0.2810
 4649TIP3    H235363   3.992   4.902   3.498 -0.2840 -0.0393 -1.4019
 4650TIP3   OH235364   4.984   6.692   2.784 -0.2390  0.4152  1.0063
 4650TIP3    H135365   5.076   6.696   2.810 -0.1307 -2.4938  1.2120
 4650TIP3    H235366   4.985   6.654   2.697 -1.2781 -0.3308  1.3070
 4651TIP3   OH235367   0.524   4.891  11.404 -0.2763 -0.6038  0.2240
 4651TIP3    H135368   0.515   4.838  11.483 -0.3827  0.2209  0.7617
 4651TIP3    H235369   0.452   4.861  11.347 -1.5910  0.3635  1.3399
 4652TIP3   OH235370   4.468   6.411  15.593 -0.5336  0.0883 -0.0964
 4652TIP3    H135371   4.468   6.332  15.646  1.3015 -0.2212 -0.5402
 4652TIP3    H235372   4.382   6.411  15.550 -1.7786 -0.0142  2.2926
 4653TIP3   OH235373   1.553   6.281  12.777 -0.3530 -0.1185  0.7398
 4653TIP3    H135374   1.586   6.199  12.814  0.2887 -1.0035 -1.7260
 4653TIP3    H235375   1.630   6.338  12.773 -0.2035 -0.3813 -0.1744
 4654TIP3   OH235376   5.187   4.992  13.809 -0.1191 -0.2458 -0.1934
 4654TIP3    H135377   5.184   5.079  13.769 -0.7739  0.0649  0.5121
 4654TIP3    H235378   5.242   5.004  13.886 -0.0146 -0.5104 -0.2290
 4655TIP3   OH235379   0.798   5.031  10.651  0.0836 -0.0408  0.2216
 4655TIP3    H135380   0.862   4.966  10.681 -0.9212 -0.3293  1.8261
 4655TIP3    H235381   0.794   5.020  10.556 -1.7458 -3.9600  0.6526
 4656TIP3   OH235382   3.807   0.898   6.149  0.4032  0.0105  0.1446
 4656TIP3    H135383   3.749   0.974   6.159 -0.9404 -1.1024  1.0683
 4656TIP3    H235384   3.748   0.823   6.154  1.8865 -1.1323  0.7068
 4657TIP3   OH235385   3.953   2.369  13.940 -0.3581 -0.5999 -0.4298
 4657TIP3    H135386   3.990   2.302  13.882 -2.3219 -2.2966  0.1943
 4657TIP3    H235387   3.914   2.318  14.012  2.4960  1.4266  2.7179
 4658TIP3   OH235388   2.107   0.343  14.207  0.0032 -0.0107 -0.4764
 4658TIP3    H135389   2.105   0.323  14.114 -0.6875 -1.3100 -0.2138
 4658TIP3    H235390   2.049   0.418  14.217  0.6418  0.5757 -1.1871
 4659TIP3   OH235391   5.111   0.478  13.372 -0.2996  0.1180  0.0390
 4659TIP3    H135392   5.154   0.518  13.447  0.2281  0.1378 -0.2725
 4659TIP3    H235393   5.018   0.490  13.389 -0.1868  0.1045  0.7018
 4660TIP3   OH235394   2.340   1.569   2.386 -0.2906  0.0171 -0.2571
 4660TIP3    H135395   2.378   1.657   2.397  0.5534 -0.1602 -1.7325
 4660TIP3    H235396   2.415   1.511   2.378 -0.8634 -0.7083 -0.4301
 4661TIP3   OH235397   5.334   4.584   5.284  0.1655  0.3370  0.2596
 4661TIP3    H135398   5.357   4.518   5.349  0.0082 -0.5012 -0.5413
 4661TIP3    H235399   5.277   4.539   5.222  0.9616  0.9219 -0.9177
 4662TIP3   OH235400   5.501   0.879  11.321  0.0808  0.0252  0.2145
 4662TIP3    H135401   5.471   0.944  11.383  0.4130 -2.3343  2.9591
 4662TIP3    H235402   5.477   0.914  11.235 -1.0427  3.0070  1.6957
 4663TIP3   OH235403   3.021   5.067   5.849 -0.9168 -0.3510 -0.0141
 4663TIP3    H135404   3.046   4.985   5.807 -0.6134 -0.9685  1.3611
 4663TIP3    H235405   2.936   5.088   5.811 -0.7036 -0.9692 -0.8455
 4664TIP3   OH235406   6.731   3.480  12.905 -0.2438  0.2657  0.1830
 4664TIP3    H135407   6.695   3.566  12.884  1.1864  0.7487 -0.4235
 4664TIP3    H235408   6.716   3.428  12.826  0.0486  0.3580  0.0649
 4665TIP3   OH235409   0.075   4.230   0.237  0.4263 -0.5392  0.2123
 4665TIP3    H135410   0.098   4.138   0.255  0.2623 -0.3708  1.3073
 4665TIP3    H235411   0.152   4.279   0.267 -0.2139 -0.1858  1.3000
 4666TIP3   OH235412   0.372   6.701   4.364  0.3606 -0.6607 -0.6875
 4666TIP3    H135413   0.316   6.687   4.288  1.8009  0.6768 -2.0409
 4666TIP3    H235414   0.360   6.794   4.386 -0.4515 -1.1556  1.0702
 4667TIP3   OH235415   1.398   6.422  16.025 -0.0283  0.0798 -0.3571
 4667TIP3    H135416   1.368   6.357  15.962  1.5768  0.2260 -1.3007
 4667TIP3    H235417   1.491   6.435  16.004  0.4756  0.3014  1.8817
 4668TIP3   OH235418   2.717   4.850  17.001 -0.1570  0.1186  0.1594
 4668TIP3    H135419   2.768   4.931  17.007 -1.1691  0.7865 -0.0660
 4668TIP3    H235420   2.726   4.809  17.087 -1.0671  1.3600  0.8566
 4669TIP3   OH235421   1.685   4.382  13.324  0.2681 -0.2804 -0.0185
 4669TIP3    H135422   1.745   4.315  13.358 -0.3360 -0.3074  1.0253
 4669TIP3    H235423   1.604   4.334  13.307  0.3591 -0.1342 -0.8688
 4670TIP3   OH235424   0.083   2.164  12.730 -0.3298 -0.3085  0.2272
 4670TIP3    H135425   0.054   2.080  12.767  0.5996 -2.2118 -3.1388
 4670TIP3    H235426   0.070   2.154  12.636  3.3776  1.8602 -0.6269
 4671TIP3   OH235427   2.653   0.666   2.302  0.2492 -0.9516 -0.1153
 4671TIP3    H135428   2.724   0.615   2.341 -2.4111 -1.0615  4.9354
 4671TIP3    H235429   2.671   0.757   2.327 -1.5986 -1.0434  1.6405
 4672TIP3   OH235430   5.170   3.083  10.797 -0.6611 -0.1241  0.2023
 4672TIP3    H135431   5.253   3.072  10.751  0.1133  0.1325  1.5176
 4672TIP3    H235432   5.103   3.072  10.729  0.3961 -1.7594 -0.6058
 4673TIP3   OH235433   1.480   0.344  14.282 -0.2984 -0.1401 -0.4300
 4673TIP3    H135434   1.395   0.367  14.243 -0.7844 -0.4145  0.4661
 4673TIP3    H235435   1.468   0.357  14.376  0.7371  0.0718 -0.3278
 4674TIP3   OH235436   5.436   2.996   3.238  0.2227  0.4300 -0.0146
 4674TIP3    H135437   5.359   2.980   3.183 -1.1096 -0.9510  2.1750
 4674TIP3    H235438   5.500   2.931   3.210  0.7686  1.8337 -2.1111
 4675TIP3   OH235439   4.368   6.487   3.458 -0.0283  0.2160  0.1599
 4675TIP3    H135440   4.410   6.539   3.527 -1.0002  0.3126  0.6782
 4675TIP3    H235441   4.293   6.539   3.431 -0.1567 -0.2362 -0.3626
 4676TIP3   OH235442   3.995   5.354   5.480 -0.2502 -0.0953 -0.0844
 4676TIP3    H135443   4.081   5.366   5.441  0.9680  0.6725  2.7571
 4676TIP3    H235444   4.009   5.294   5.553 -2.1870 -0.2606  0.1925
 4677TIP3   OH235445   1.544   0.258  12.168  0.7093 -0.7323 -0.8252
 4677TIP3    H135446   1.518   0.231  12.256  1.2527  0.7971 -0.1687
 4677TIP3    H235447   1.574   0.348  12.179  2.2188 -1.0305 -2.3104
 4678TIP3   OH235448   0.091   6.325   0.979 -0.5194  0.1381 -0.0633
 4678TIP3    H135449   0.117   6.329   0.887 -0.6314 -0.1029 -0.1055
 4678TIP3    H235450   0.118   6.238   1.008 -0.6807  0.1311  0.0713
 4679TIP3   OH235451   1.263   4.867   1.908  0.0560  0.3902  0.4264
 4679TIP3    H135452   1.174   4.876   1.876  0.3009 -0.2979 -0.4521
 4679TIP3    H235453   1.253   4.833   1.997 -0.5284 -0.8949 -0.1190
 4680TIP3   OH235454   6.570   0.375  11.566 -0.0522 -0.8214  0.0312
 4680TIP3    H135455   6.547   0.460  11.603  0.0789 -1.0217  0.5769
 4680TIP3    H235456   6.597   0.322  11.641  3.1323 -0.3053 -0.6855
 4681TIP3   OH235457   0.472   5.266   2.270 -0.1219  0.5426  0.2527
 4681TIP3    H135458   0.454   5.191   2.328 -0.4900 -1.2035 -2.0326
 4681TIP3    H235459   0.400   5.265   2.207  0.0445  2.6757 -0.0053
 4682TIP3   OH235460   2.082   5.371  17.035  0.2740  0.2588  0.2734
 4682TIP3    H135461   2.081   5.282  17.070  2.3402  0.4399  0.8207
 4682TIP3    H235462   1.990   5.392  17.022 -0.2178 -2.4414 -1.0818
 4683TIP3   OH235463   5.989   2.422   2.335  0.0782  0.1502 -0.2479
 4683TIP3    H135464   5.984   2.426   2.430  0.3154 -0.5173 -0.2078
 4683TIP3    H235465   6.064   2.365   2.317 -0.0196  0.2032 -0.8337
 4684TIP3   OH235466   0.437   2.111   3.254 -0.5041 -0.5363  0.2418
 4684TIP3    H135467   0.451   2.108   3.159 -0.7279  3.3241 -0.0099
 4684TIP3    H235468   0.344   2.133   3.263  0.0090  1.3809  1.2356
 4685TIP3   OH235469   3.316   3.167  12.801 -0.2726  0.2074  0.0283
 4685TIP3    H135470   3.243   3.226  12.821  0.7740  1.3372  0.5990
 4685TIP3    H235471   3.325   3.173  12.706 -0.5559  0.5051  0.0149
 4686TIP3   OH235472   1.737   6.595  11.102 -0.3847  0.5481 -0.3651
 4686TIP3    H135473   1.659   6.540  11.105  0.7679 -1.0542  2.1960
 4686TIP3    H235474   1.803   6.539  11.061 -0.0229  1.1226 -0.5659
 4687TIP3   OH235475   4.363   4.382   2.993 -0.3945  0.6869  0.3736
 4687TIP3    H135476   4.351   4.309   3.053  0.5852  1.4019  1.4646
 4687TIP3    H235477   4.275   4.419   2.982 -0.3640  1.5702  2.6982
 4688TIP3   OH235478   5.953   2.863   4.469  0.3623  0.1032 -0.1745
 4688TIP3    H135479   5.939   2.899   4.556 -0.5210  2.2802 -1.1808
 4688TIP3    H235480   5.865   2.841   4.438  0.6382 -0.3564 -0.6380
 4689TIP3   OH235481   6.757   0.659   5.540 -0.8728 -0.2342 -0.6190
 4689TIP3    H135482   6.682   0.623   5.588  0.1093 -0.3429  0.8408
 4689TIP3    H235483   6.832   0.642   5.596 -0.0932  2.1584 -0.8877
 4690TIP3   OH235484   1.141   4.075  14.055 -0.2501 -0.3895 -0.3376
 4690TIP3    H135485   1.107   4.155  14.096 -0.1210  0.1230 -1.2209
 4690TIP3    H235486   1.089   4.066  13.975 -0.5909 -1.4593 -0.0073
 4691TIP3   OH235487   3.321   4.565   5.678 -0.3504 -0.0708 -0.1186
 4691TIP3    H135488   3.372   4.499   5.631  0.3336  0.5576 -0.2517
 4691TIP3    H235489   3.296   4.628   5.612 -1.0301 -0.2012  0.0073
 4692TIP3   OH235490   6.304   4.830   3.681  0.7661 -0.7976  0.0782
 4692TIP3    H135491   6.328   4.918   3.651 -0.4527 -0.9277 -1.3556
 4692TIP3    H235492   6.351   4.819   3.763  0.7691  1.2814  0.3779
 4693TIP3   OH235493   0.114   3.201   3.064  0.0506  0.1786 -0.9445
 4693TIP3    H135494   0.096   3.123   3.117  1.3263  0.2619 -0.3590
 4693TIP3    H235495   0.208   3.196   3.047  0.5849  2.7515  0.9859
 4694TIP3   OH235496   2.863   0.738  12.234  0.2469  0.3569  0.9731
 4694TIP3    H135497   2.773   0.735  12.200  0.2437  0.6255  0.9566
 4694TIP3    H235498   2.860   0.683  12.312 -0.5354  2.3118  2.3678
 4695TIP3   OH235499   4.662   3.464   4.331  0.3111  0.0115  0.1160
 4695TIP3    H135500   4.725   3.459   4.403  0.9445 -1.5313 -0.5278
 4695TIP3    H235501   4.715   3.487   4.254 -0.0556 -0.3878 -0.2578
 4696TIP3   OH235502   5.649   6.506   2.363  0.8997  0.2856 -0.5859
 4696TIP3    H135503   5.743   6.494   2.375  0.5156 -2.4126  0.0239
 4696TIP3    H235504   5.640   6.544   2.275  2.4286 -2.2126 -1.8810
 4697TIP3   OH235505   4.942   5.711  15.113 -0.4063  0.2871 -1.4762
 4697TIP3    H135506   5.005   5.781  15.094 -0.4727  0.6686 -0.3104
 4697TIP3    H235507   4.952   5.650  15.040  1.1718  0.4326 -1.4057
 4698TIP3   OH235508   2.204   0.093  15.439  0.3255 -0.2770  0.2206
 4698TIP3    H135509   2.116   0.069  15.467  0.6263  0.1883  1.6234
 4698TIP3    H235510   2.223   0.034  15.366 -0.7057 -1.1582  0.6484
 4699TIP3   OH235511   6.096   1.521  10.472 -0.4455  1.2246 -0.1757
 4699TIP3    H135512   6.002   1.503  10.468 -0.3900  0.9154 -0.1123
 4699TIP3    H235513   6.110   1.589  10.406 -1.1160  3.0317  1.4668
 4700TIP3   OH235514   5.806   2.402   1.205 -0.0296  0.0891 -0.0385
 4700TIP3    H135515   5.899   2.383   1.212  0.0200 -0.4492 -1.8678
 4700TIP3    H235516   5.764   2.333   1.257  0.5076 -0.8330 -0.8123
 4701TIP3   OH235517   2.156   5.906   2.749 -0.1718 -0.3796  0.1340
 4701TIP3    H135518   2.140   5.950   2.833  0.0368 -0.8855  0.4418
 4701TIP3    H235519   2.248   5.923   2.731 -0.3193  0.0706 -0.1934
 4702TIP3   OH235520   4.803   3.755  15.515 -0.8066 -0.2805  0.3669
 4702TIP3    H135521   4.888   3.741  15.472 -0.6800  0.2169  0.4547
 4702TIP3    H235522   4.759   3.819  15.459 -0.0162  1.5696  1.8165
 4703TIP3   OH235523   4.668   5.514  15.278 -0.2322  0.0476 -0.0573
 4703TIP3    H135524   4.696   5.605  15.289 -0.0196 -0.0332  0.0890
 4703TIP3    H235525   4.747   5.463  15.296 -0.7961 -0.2363  1.6944
 4704TIP3   OH235526   5.376   2.132  15.191 -0.2120  0.3537 -0.1394
 4704TIP3    H135527   5.325   2.053  15.173  0.8348 -0.1075 -1.1199
 4704TIP3    H235528   5.467   2.102  15.194  0.2157  1.5501 -0.7231
 4705TIP3   OH235529   2.811   5.417   1.221  0.0415  0.7278 -0.0156
 4705TIP3    H135530   2.732   5.458   1.258 -0.0248  1.8394 -1.3620
 4705TIP3    H235531   2.861   5.489   1.184  1.2291 -0.0982 -0.0488
 4706TIP3   OH235532   5.077   0.812   5.742 -0.3334  0.2971 -0.1811
 4706TIP3    H135533   5.016   0.778   5.676  0.4819 -1.0447 -0.2655
 4706TIP3    H235534   5.035   0.793   5.826  0.7879 -2.3135 -0.1775
 4707TIP3   OH235535   1.315   5.245   3.657 -0.1690  0.1077  0.0554
 4707TIP3    H135536   1.332   5.335   3.629 -0.3239  0.0374 -0.2667
 4707TIP3    H235537   1.399   5.201   3.644  0.5701  0.7540  2.4194
 4708TIP3   OH235538   5.191   4.547  12.880 -0.2856  0.2559  0.2968
 4708TIP3    H135539   5.221   4.476  12.823 -2.5563  1.0588 -1.9998
 4708TIP3    H235540   5.268   4.602  12.893  0.5344 -0.5576 -1.0622
 4709TIP3   OH235541   2.588   3.419   1.677  0.2253  0.1025 -0.1961
 4709TIP3    H135542   2.618   3.348   1.734  1.3809  1.1302  0.4998
 4709TIP3    H235543   2.621   3.499   1.718  2.1725  0.7935 -2.9381
 4710TIP3   OH235544   4.014   3.554  12.585  0.7463  0.6080  0.1253
 4710TIP3    H135545   4.016   3.565  12.680  0.5049  2.2209 -0.0537
 4710TIP3    H235546   3.982   3.464  12.572  0.6027  0.4426  1.5524
 4711TIP3   OH235547   6.209   3.894   3.594  0.2318  0.3739  0.0464
 4711TIP3    H135548   6.269   3.969   3.598  0.6690 -0.0709  2.5709
 4711TIP3    H235549   6.170   3.890   3.682 -0.2388 -1.9810 -0.2521
 4712TIP3   OH235550   3.852   4.826   6.361 -0.3947 -0.1939 -0.2143
 4712TIP3    H135551   3.815   4.807   6.447  0.3519 -0.3002  0.0862
 4712TIP3    H235552   3.828   4.750   6.308 -3.2635  1.1145 -0.8879
 4713TIP3   OH235553   0.218   2.018  13.473  0.4364  0.0148  0.2956
 4713TIP3    H135554   0.309   2.010  13.501  0.5213  0.8433  0.2871
 4713TIP3    H235555   0.212   2.107  13.437  0.2244 -0.8788 -1.9537
 4714TIP3   OH235556   6.577   1.466   2.578 -0.3026  0.0030 -0.4125
 4714TIP3    H135557   6.623   1.445   2.659 -1.0070 -3.6484 -0.8749
 4714TIP3    H235558   6.490   1.426   2.589 -0.2858 -0.8518 -3.0712
 4715TIP3   OH235559   3.938   6.244  15.879 -0.3858 -0.0001  0.3112
 4715TIP3    H135560   4.033   6.232  15.871 -0.7084 -2.3204 -0.3894
 4715TIP3    H235561   3.923   6.334  15.851  1.5924  0.3471  0.2840
 4716TIP3   OH235562   2.141   2.527  10.581  0.3461 -0.3495 -0.2853
 4716TIP3    H135563   2.124   2.439  10.547 -0.0419 -0.7408  0.9197
 4716TIP3    H235564   2.226   2.551  10.544  0.4726 -1.2373 -0.5772
 4717TIP3   OH235565   1.783   2.318   3.130 -0.6205  0.5584  0.0103
 4717TIP3    H135566   1.869   2.360   3.127 -0.4901  0.2860 -0.1221
 4717TIP3    H235567   1.721   2.390   3.141 -0.4085  0.7953 -0.3218
 4718TIP3   OH235568   3.740   0.819  12.839  0.0566 -0.4487 -0.0705
 4718TIP3    H135569   3.736   0.808  12.744 -2.3477  2.7111 -0.4326
 4718TIP3    H235570   3.797   0.895  12.851  1.3445 -1.5947  1.1017
 4719TIP3   OH235571   1.133   6.658   2.397 -0.1003  0.3998  0.0775
 4719TIP3    H135572   1.184   6.724   2.349  2.0581  0.2912  2.1081
 4719TIP3    H235573   1.124   6.586   2.335  0.6900  1.1544 -0.9471
 4720TIP3   OH235574   1.175   4.904  15.552  0.9162  0.0640  0.2597
 4720TIP3    H135575   1.243   4.837  15.560 -0.0468 -0.7543  1.8226
 4720TIP3    H235576   1.104   4.862  15.505  2.0260  1.3761 -2.6955
 4721TIP3   OH235577   4.166   5.820   0.129  0.1596  0.6007  0.4994
 4721TIP3    H135578   4.214   5.832   0.047 -1.5256  0.6135 -0.5238
 4721TIP3    H235579   4.101   5.890   0.129  2.2921  2.6911  3.5016
 4722TIP3   OH235580   0.439   5.745   1.590  0.3640  0.5519  0.2627
 4722TIP3    H135581   0.429   5.757   1.496  2.1343  1.1422  0.1347
 4722TIP3    H235582   0.383   5.812   1.629  0.2974  0.8667 -0.3767
 4723TIP3   OH235583   5.998   1.309  14.960 -0.1716  0.5012 -0.6525
 4723TIP3    H135584   5.962   1.253  14.892 -0.0018 -0.4158 -0.0003
 4723TIP3    H235585   5.941   1.386  14.961 -0.5047  0.2657 -1.4401
 4724TIP3   OH235586   2.241   0.647   5.649 -0.2819 -0.3672  0.2112
 4724TIP3    H135587   2.148   0.625   5.638 -0.7997  1.5158  0.5076
 4724TIP3    H235588   2.281   0.568   5.684 -1.6483 -1.4277 -0.5861
 4725TIP3   OH235589   4.697   5.335   0.211  0.2027  0.4780  0.0421
 4725TIP3    H135590   4.757   5.266   0.181 -1.1537 -0.7134 -0.0249
 4725TIP3    H235591   4.714   5.409   0.153  1.2667 -0.0063 -0.2790
 4726TIP3   OH235592   1.763   1.343  16.769 -0.5862  0.4294 -0.0207
 4726TIP3    H135593   1.699   1.373  16.704 -0.3943  0.8206 -0.0273
 4726TIP3    H235594   1.816   1.420  16.789  0.3022 -0.0395 -0.5044
 4727TIP3   OH235595   2.240   2.895   3.720  0.2379 -0.2057 -0.3578
 4727TIP3    H135596   2.159   2.934   3.755  2.2231  2.0208  1.9610
 4727TIP3    H235597   2.264   2.952   3.647 -1.3325 -2.0604 -2.3692
 4728TIP3   OH235598   4.240   4.331  12.595 -0.2295  0.0157  0.0444
 4728TIP3    H135599   4.285   4.303  12.516  0.5855 -0.8945  0.8199
 4728TIP3    H235600   4.271   4.420  12.610 -1.6458  0.8167 -1.5621
 4729TIP3   OH235601   2.766   2.889  16.958  0.5323 -0.0066 -0.0019
 4729TIP3    H135602   2.726   2.858  17.039  0.7157 -0.8672 -0.2291
 4729TIP3    H235603   2.702   2.868  16.890  0.9009 -0.4128 -0.2296
 4730TIP3   OH235604   3.931   0.968  14.837  0.2357 -0.9345  0.5420
 4730TIP3    H135605   3.881   0.927  14.907 -1.8930  0.5244 -0.0612
 4730TIP3    H235606   3.985   1.033  14.881 -1.1214  0.0038  0.8699
 4731TIP3   OH235607   3.419   4.342  13.569  0.2741 -0.4505 -0.1163
 4731TIP3    H135608   3.390   4.313  13.655  2.1658 -0.3189  0.5913
 4731TIP3    H235609   3.338   4.365  13.523 -0.9758 -3.0657  0.6660
 4732TIP3   OH235610   0.984   2.257   0.360  0.2534 -0.2353  0.4852
 4732TIP3    H135611   0.995   2.351   0.341  0.4981 -0.4966 -0.7138
 4732TIP3    H235612   1.069   2.229   0.392  0.3394 -0.1651  0.3213
 4733TIP3   OH235613   5.912   2.925   4.742  0.0785  0.2239  0.2359
 4733TIP3    H135614   5.816   2.924   4.739  0.1092 -0.5217 -3.7214
 4733TIP3    H235615   5.935   3.011   4.776 -1.9662 -0.3066  3.1258
 4734TIP3   OH235616   2.787   2.100  17.196 -0.1865 -0.1377  0.3790
 4734TIP3    H135617   2.742   2.155  17.261  0.4383  1.4622 -0.5173
 4734TIP3    H235618   2.863   2.152  17.170 -0.7983 -0.4766 -2.1370
 4735TIP3   OH235619   0.451   4.549   5.682 -0.0260  0.3510  0.0900
 4735TIP3    H135620   0.491   4.583   5.763 -0.8683  0.2465  0.5502
 4735TIP3    H235621   0.423   4.628   5.635  2.9261  0.5937 -1.4213
 4736TIP3   OH235622   5.441   4.151  14.682 -0.7226 -0.1610  0.2867
 4736TIP3    H135623   5.436   4.144  14.778 -0.3997 -0.6405  0.2707
 4736TIP3    H235624   5.404   4.237  14.663  1.4670  0.9920  1.0280
 4737TIP3   OH235625   6.590   6.425   0.706 -1.0233 -0.4963 -0.5058
 4737TIP3    H135626   6.674   6.440   0.748 -0.2675 -2.1357 -1.3476
 4737TIP3    H235627   6.573   6.504   0.655 -0.6155  0.3506  0.6619
 4738TIP3   OH235628   1.405   1.990   5.680 -0.1120 -0.0047  0.4695
 4738TIP3    H135629   1.485   1.937   5.686 -0.2007 -0.0215  1.4683
 4738TIP3    H235630   1.336   1.936   5.718 -0.7924 -0.3519 -1.2116
 4739TIP3   OH235631   5.619   1.060   0.848 -0.0080  0.7754  0.1372
 4739TIP3    H135632   5.527   1.045   0.826  0.3068  0.1886 -0.8328
 4739TIP3    H235633   5.667   1.034   0.769  1.0738 -0.0845  1.0511
 4740TIP3   OH235634   6.644   6.616  14.375 -0.1926 -0.3046 -0.3550
 4740TIP3    H135635   6.679   6.703  14.355 -0.3361 -0.2929 -0.5544
 4740TIP3    H235636   6.658   6.566  14.294 -1.3670 -0.0767 -0.7094
 4741TIP3   OH235637   5.148   4.743   3.286  0.1719 -0.0484  0.0879
 4741TIP3    H135638   5.058   4.754   3.257 -0.4950 -0.1298  2.0360
 4741TIP3    H235639   5.197   4.810   3.238 -1.4612  2.0720  1.2448
 4742TIP3   OH235640   5.573   3.323  10.702  0.2429 -0.0470 -0.2169
 4742TIP3    H135641   5.571   3.398  10.761  0.0685 -1.6760  1.9425
 4742TIP3    H235642   5.630   3.349  10.630  1.1749  1.6962  1.1197
 4743TIP3   OH235643   3.948   6.297  16.242  0.2318 -0.1267 -0.2591
 4743TIP3    H135644   4.016   6.233  16.222  1.3036  1.1470 -0.7379
 4743TIP3    H235645   3.908   6.265  16.323  0.4284 -1.6590 -0.7645
 4744TIP3   OH235646   0.524   3.707  13.620  0.2743  0.2363  0.4273
 4744TIP3    H135647   0.531   3.730  13.713 -0.1069 -0.0127  0.5170
 4744TIP3    H235648   0.550   3.787  13.574 -0.6199  0.7231  0.7468
 4745TIP3   OH235649   6.624   4.557   1.148  0.3657  0.0511 -0.0068
 4745TIP3    H135650   6.592   4.616   1.216 -0.4492 -0.4568  0.0525
 4745TIP3    H235651   6.545   4.514   1.115  1.0100 -1.3786  0.3024
 4746TIP3   OH235652   5.354   5.305  15.490 -0.4320 -0.0817  0.0701
 4746TIP3    H135653   5.410   5.382  15.478 -2.8683  1.8454  0.7794
 4746TIP3    H235654   5.332   5.278  15.401  0.1633  0.2182 -0.1768
 4747TIP3   OH235655   6.159   4.412  13.719  0.1277 -0.9394  0.1678
 4747TIP3    H135656   6.214   4.364  13.658  0.7086 -0.2075  0.1028
 4747TIP3    H235657   6.210   4.491  13.740 -2.0652  1.1086 -1.9993
 4748TIP3   OH235658   4.048   4.581  16.390  0.3516 -0.4510 -0.1993
 4748TIP3    H135659   3.992   4.649  16.427  0.6833  0.3039 -1.0752
 4748TIP3    H235660   4.000   4.550  16.314  0.8363 -0.2456 -0.5878
 4749TIP3   OH235661   5.556   2.579  15.502 -0.3565 -0.1411  0.2475
 4749TIP3    H135662   5.577   2.502  15.448  0.3147 -0.1160  0.4647
 4749TIP3    H235663   5.511   2.638  15.442 -1.9486 -1.1973  0.3866
 4750TIP3   OH235664   4.721   0.508   5.276 -0.3021 -0.2289  0.2163
 4750TIP3    H135665   4.733   0.492   5.183 -1.4721  1.6307 -0.2949
 4750TIP3    H235666   4.731   0.422   5.317 -0.9064 -1.2745 -1.7451
 4751TIP3   OH235667   1.921   0.132  12.728 -0.1779 -0.1662 -0.5324
 4751TIP3    H135668   1.986   0.063  12.714  1.8538  1.2154  1.6095
 4751TIP3    H235669   1.960   0.211  12.689 -0.7342  0.6016  0.4295
 4752TIP3   OH235670   4.400   4.641   6.076  0.0214 -0.0411 -0.2152
 4752TIP3    H135671   4.318   4.620   6.032  0.2222 -0.5117 -0.3707
 4752TIP3    H235672   4.377   4.711   6.137 -0.6550 -0.6498  0.2470
 4753TIP3   OH235673   2.989   5.361  14.621  0.2003  0.2736  0.4365
 4753TIP3    H135674   2.953   5.360  14.710 -0.1728 -0.7803  0.2884
 4753TIP3    H235675   3.032   5.276  14.613  0.5567  0.5221 -0.2629
 4754TIP3   OH235676   0.104   0.900  15.082  0.4324  0.2818 -0.3069
 4754TIP3    H135677   0.123   0.924  15.173 -0.6519  0.4788 -0.1179
 4754TIP3    H235678   0.097   0.805  15.083  3.6420  0.0036 -0.8348
 4755TIP3   OH235679   5.746   3.787   3.451 -0.6303 -0.2844  0.2314
 4755TIP3    H135680   5.744   3.691   3.448  2.0206 -0.3426 -0.9694
 4755TIP3    H235681   5.742   3.813   3.359 -0.4260  0.7307  0.5091
 4756TIP3   OH235682   2.964   5.964   5.821  0.1709 -0.4311 -0.0727
 4756TIP3    H135683   3.031   5.915   5.869  0.3084 -0.1529  0.0170
 4756TIP3    H235684   3.012   6.003   5.747  0.1474 -0.0547  0.1138
 4757TIP3   OH235685   2.573   2.757  11.432 -0.3484 -0.0944  0.7566
 4757TIP3    H135686   2.586   2.693  11.362 -1.3248  3.0285 -2.3565
 4757TIP3    H235687   2.518   2.711  11.496 -2.1761 -1.9421 -2.0287
 4758TIP3   OH235688   4.065   1.997   1.701 -0.3052 -0.2445  0.3373
 4758TIP3    H135689   4.084   1.923   1.644  0.5765 -0.5688  1.0410
 4758TIP3    H235690   4.096   1.970   1.787 -2.0762  0.0335  1.1003
 4759TIP3   OH235691   6.593   6.234   5.146  0.5216  0.1386  0.3005
 4759TIP3    H135692   6.636   6.173   5.206  0.0051  0.0700  0.6118
 4759TIP3    H235693   6.561   6.304   5.203 -1.7211 -0.9039  0.4136
 4760TIP3   OH235694   1.638   5.640  11.669 -0.1713 -0.1322 -0.2780
 4760TIP3    H135695   1.562   5.658  11.724  0.6575 -0.0386  0.8577
 4760TIP3    H235696   1.638   5.545  11.658  1.7712 -0.5834  3.0401
 4761TIP3   OH235697   4.854   2.524   0.199  0.5580  0.4550 -0.1501
 4761TIP3    H135698   4.887   2.614   0.204 -0.1555  0.6626  1.0289
 4761TIP3    H235699   4.909   2.475   0.260  0.3339  0.2757 -0.0919
 4762TIP3   OH235700   0.998   3.398  14.881  0.4403  0.0707  0.3771
 4762TIP3    H135701   1.066   3.332  14.897 -0.6800 -1.0619  0.4769
 4762TIP3    H235702   0.918   3.348  14.866 -0.4456  1.4065  0.5303
 4763TIP3   OH235703   5.713   6.451  15.387 -0.1941 -0.1449  0.2270
 4763TIP3    H135704   5.743   6.538  15.413 -0.3418  0.6757 -2.2538
 4763TIP3    H235705   5.618   6.459  15.380 -0.0873 -0.0840 -1.4064
 4764TIP3   OH235706   0.311   4.452   3.584  0.5675  0.2734  0.1459
 4764TIP3    H135707   0.229   4.408   3.559  1.1338 -0.9696  0.4198
 4764TIP3    H235708   0.375   4.381   3.590  1.7776  1.3002 -0.5065
 4765TIP3   OH235709   1.238   4.942   5.799  0.0396  0.0856 -0.4185
 4765TIP3    H135710   1.290   4.898   5.731 -1.1335  2.3144 -2.8660
 4765TIP3    H235711   1.158   4.890   5.806  0.6573 -0.8024  0.0972
 4766TIP3   OH235712   2.419   0.046   5.513  0.2618  0.4588  0.3553
 4766TIP3    H135713   2.344   0.043   5.572 -0.2533 -0.6623 -0.3497
 4766TIP3    H235714   2.490   0.005   5.563 -0.0139  0.0559  0.4129
 4767TIP3   OH235715   5.224   6.577  14.735 -0.0483  0.5829 -0.5416
 4767TIP3    H135716   5.157   6.622  14.683 -1.1079 -0.3170  0.0252
 4767TIP3    H235717   5.192   6.583  14.825  1.0667  0.8912 -0.1627
 4768TIP3   OH235718   4.450   4.207  16.691 -0.1543 -0.2768  0.1694
 4768TIP3    H135719   4.480   4.214  16.781  1.3862 -0.2497 -0.3218
 4768TIP3    H235720   4.359   4.236  16.693 -0.1658 -0.3823  1.7215
 4769TIP3   OH235721   5.258   6.733  11.069 -0.2958 -0.0205  0.0783
 4769TIP3    H135722   5.306   6.661  11.110 -1.4368 -0.5182  0.5576
 4769TIP3    H235723   5.168   6.721  11.098 -0.2332  2.4982  1.3952
 4770TIP3   OH235724   2.988   5.136  13.772  0.6089 -0.2012  0.9117
 4770TIP3    H135725   3.048   5.067  13.743  0.3516  0.1085 -0.4268
 4770TIP3    H235726   2.956   5.175  13.690 -0.9609  0.0329  1.6289
 4771TIP3   OH235727   1.047   4.449  11.328 -0.1201 -0.2907 -0.0526
 4771TIP3    H135728   0.969   4.451  11.384 -1.1396  0.6434 -1.4660
 4771TIP3    H235729   1.120   4.460  11.388 -1.1496 -0.1273  1.1953
 4772TIP3   OH235730   0.357   0.494  14.648  0.2525  0.0018  0.3311
 4772TIP3    H135731   0.285   0.537  14.601  0.3934  0.2042  0.2988
 4772TIP3    H235732   0.387   0.426  14.589  0.0190 -0.1522  0.3852
 4773TIP3   OH235733   5.748   6.721   5.926  0.1351  0.1316 -0.4363
 4773TIP3    H135734   5.782   6.803   5.889 -2.9584  1.7676  0.1456
 4773TIP3    H235735   5.704   6.748   6.007 -0.5535 -2.1936 -0.0074
 4774TIP3   OH235736   1.855   2.798   4.802  0.1877  0.2177 -0.1082
 4774TIP3    H135737   1.840   2.828   4.891 -2.2677 -1.2078 -0.0107
 4774TIP3    H235738   1.787   2.841   4.750  0.0732 -0.8579 -0.8708
 4775TIP3   OH235739   2.685   3.923   2.633 -0.3787 -0.0993 -0.4151
 4775TIP3    H135740   2.738   3.847   2.613  2.0301  1.6712 -0.9692
 4775TIP3    H235741   2.615   3.921   2.568  0.9060 -0.6404 -1.8086
 4776TIP3   OH235742   2.518   5.809  12.659 -0.2134 -0.1542 -0.0841
 4776TIP3    H135743   2.467   5.872  12.711 -1.8037 -2.9438  1.9188
 4776TIP3    H235744   2.488   5.821  12.569 -1.6448  0.8431  0.5172
 4777TIP3   OH235745   4.822   1.138  15.976  0.1346 -0.2069 -1.0099
 4777TIP3    H135746   4.889   1.195  16.014  0.3603 -1.2121  0.1767
 4777TIP3    H235747   4.769   1.111  16.051 -0.9236 -0.3010 -1.7815
 4778TIP3   OH235748   0.470   5.128  13.937 -0.4070 -0.2687 -0.3550
 4778TIP3    H135749   0.465   5.173  13.853  1.6569  0.5426 -0.0630
 4778TIP3    H235750   0.513   5.044  13.917 -1.4133 -0.7962 -0.3683
 4779TIP3   OH235751   6.571   0.192  13.894  1.1545 -0.0650 -0.5972
 4779TIP3    H135752   6.533   0.262  13.947 -2.0856 -2.6350  0.6771
 4779TIP3    H235753   6.573   0.228  13.805 -4.3838  0.3981 -0.7551
 4780TIP3   OH235754   1.641   1.245   0.548 -0.0651 -0.7405 -0.2963
 4780TIP3    H135755   1.647   1.153   0.519  1.0947 -1.0724  0.9481
 4780TIP3    H235756   1.676   1.295   0.474  1.3827 -1.4702 -0.1373
 4781TIP3   OH235757   4.615   5.096  16.124  0.0194 -0.4357  0.9392
 4781TIP3    H135758   4.599   5.138  16.208  1.4705 -0.0214  1.0154
 4781TIP3    H235759   4.684   5.148  16.083 -0.1644 -1.0615 -0.2027
 4782TIP3   OH235760   1.469   2.022  15.963  0.9249  0.3947  0.0967
 4782TIP3    H135761   1.443   1.930  15.955  0.1605  0.6586 -0.5737
 4782TIP3    H235762   1.520   2.039  15.884  1.7878  0.3156  0.6357
 4783TIP3   OH235763   1.742   2.750  13.295  0.2691 -0.2075  0.3825
 4783TIP3    H135764   1.692   2.811  13.349 -0.9499 -1.0455  0.2323
 4783TIP3    H235765   1.823   2.796  13.275 -0.0244  0.7983  1.4560
 4784TIP3   OH235766   5.248   1.600  16.853  0.0282 -0.3625 -0.2370
 4784TIP3    H135767   5.294   1.662  16.911  1.8218 -0.3628 -1.6223
 4784TIP3    H235768   5.159   1.636  16.846  0.9329  1.8798 -0.7369
 4785TIP3   OH235769   3.283   1.062   3.910 -0.6510 -0.1277 -0.0348
 4785TIP3    H135770   3.358   1.115   3.936 -0.2218 -1.1946  0.9679
 4785TIP3    H235771   3.219   1.076   3.979 -0.4328 -1.1106  0.3768
 4786TIP3   OH235772   6.340   3.311  12.194 -0.0241  0.5817 -0.2342
 4786TIP3    H135773   6.382   3.391  12.225 -1.0114  0.8402  0.4732
 4786TIP3    H235774   6.381   3.241  12.244 -0.3671  0.8278  0.3979
 4787TIP3   OH235775   6.691   1.868   3.993 -0.3222 -0.4993 -0.1173
 4787TIP3    H135776   6.662   1.833   4.077 -0.4025 -1.8454 -0.6761
 4787TIP3    H235777   6.610   1.891   3.947 -0.2049  2.0451  0.8971
 4788TIP3   OH235778   4.133   5.942  12.186  0.0804 -0.1918 -0.2955
 4788TIP3    H135779   4.171   5.974  12.268 -0.1646  0.3931 -0.4055
 4788TIP3    H235780   4.127   5.847  12.198 -0.3985 -0.0645  0.5573
 4789TIP3   OH235781   1.765   1.310  16.353 -0.1527 -0.3104 -0.0901
 4789TIP3    H135782   1.840   1.349  16.399  0.9513 -1.3671 -0.9842
 4789TIP3    H235783   1.710   1.385  16.330  1.2369  0.5924 -0.5235
 4790TIP3   OH235784   5.847   2.635  11.384 -0.1741  0.1633  0.4209
 4790TIP3    H135785   5.941   2.618  11.379 -0.1888  0.3828 -0.8470
 4790TIP3    H235786   5.812   2.604  11.300 -1.3350 -0.4947  1.1213
 4791TIP3   OH235787   2.870   2.869   4.764 -0.3616 -0.3899  0.3195
 4791TIP3    H135788   2.899   2.947   4.810  2.9081 -1.3750  0.0652
 4791TIP3    H235789   2.796   2.898   4.710 -1.4239  1.7071  2.8300
 4792TIP3   OH235790   6.543   0.228  16.168  0.2816 -0.2912  0.2503
 4792TIP3    H135791   6.563   0.257  16.257  3.0190 -2.0463  0.2548
 4792TIP3    H235792   6.493   0.301  16.130 -1.5857  0.1712  3.4190
 4793TIP3   OH235793   2.213   1.186   0.971 -0.0512 -0.2215  0.4516
 4793TIP3    H135794   2.188   1.213   0.883  0.4088 -0.9167  0.0966
 4793TIP3    H235795   2.286   1.244   0.995  1.1780 -1.3682 -0.4525
 4794TIP3   OH235796   1.872   1.825   0.819 -0.4725  0.5727  0.4310
 4794TIP3    H135797   1.877   1.799   0.911  0.8356 -1.6773 -0.2144
 4794TIP3    H235798   1.809   1.765   0.780  2.1522 -1.3840 -0.9783
 4795TIP3   OH235799   1.664   2.452  10.227  0.2942 -0.5071  0.0963
 4795TIP3    H135800   1.585   2.409  10.259  0.8313 -1.1837  0.5285
 4795TIP3    H235801   1.659   2.541  10.261 -0.5907 -0.3616 -0.4083
 4796TIP3   OH235802   2.667   0.123  12.658 -0.1282 -0.0470  0.5832
 4796TIP3    H135803   2.680   0.207  12.703  0.5182  0.1105  0.1119
 4796TIP3    H235804   2.678   0.143  12.565  2.9863 -1.1587  0.6389
 4797TIP3   OH235805   6.632   4.758   1.713 -0.2342 -0.4254 -0.1855
 4797TIP3    H135806   6.625   4.761   1.618  0.7881 -1.9394 -0.3345
 4797TIP3    H235807   6.571   4.688   1.739  0.2927 -0.7592  0.1642
 4798TIP3   OH235808   1.652   1.006  13.034  0.9291  0.2000 -1.4334
 4798TIP3    H135809   1.613   0.994  12.947  0.1635  1.3049 -1.2595
 4798TIP3    H235810   1.634   0.925  13.080  0.6528 -0.0964 -2.0491
 4799TIP3   OH235811   1.714   4.499   3.654  0.1139 -0.3106  0.1163
 4799TIP3    H135812   1.729   4.448   3.734 -1.1854  1.1054  1.3017
 4799TIP3    H235813   1.619   4.514   3.652  0.2307  0.3673 -1.2526
 4800TIP3   OH235814   0.975   3.395   6.025  0.2596 -0.6158  0.2652
 4800TIP3    H135815   0.969   3.410   5.931  1.0874  2.1721  0.5938
 4800TIP3    H235816   0.888   3.363   6.050 -0.1089 -0.9244 -1.3747
 4801TIP3   OH235817   1.561   2.999  16.642 -0.1869 -0.3715  0.4388
 4801TIP3    H135818   1.585   3.086  16.610  0.5072 -0.3014  1.1569
 4801TIP3    H235819   1.466   2.997  16.636 -0.0984 -0.2271 -1.3066
 4802TIP3   OH235820   5.486   4.609   3.488 -0.0087  0.4287  0.2485
 4802TIP3    H135821   5.499   4.526   3.442  0.4417  0.5947  0.0788
 4802TIP3    H235822   5.557   4.665   3.457 -0.1032  0.7612  0.6362
 4803TIP3   OH235823   0.173   5.689   2.181  0.2108  0.1617  0.2861
 4803TIP3    H135824   0.104   5.738   2.135 -0.3152  0.1307  1.0307
 4803TIP3    H235825   0.152   5.701   2.274 -0.6039 -2.4220  0.4837
 4804TIP3   OH235826   0.344   1.257  15.747 -0.5980 -0.3482 -0.6214
 4804TIP3    H135827   0.315   1.243  15.656 -2.3608  2.3203 -0.5328
 4804TIP3    H235828   0.386   1.175  15.771 -3.4711 -2.5157 -2.6012
 4805TIP3   OH235829   5.054   2.385  14.995  0.0731  0.3207 -0.3242
 4805TIP3    H135830   4.962   2.361  14.997  0.2516 -0.3418  2.0643
 4805TIP3    H235831   5.098   2.308  14.959  0.1627 -1.3385  3.1209
 4806TIP3   OH235832   4.171   4.045  11.205  0.5515 -0.2833  0.1285
 4806TIP3    H135833   4.266   4.047  11.194  0.3497 -0.8722 -1.7971
 4806TIP3    H235834   4.138   4.003  11.126 -1.2458 -1.0902  1.2654
 4807TIP3   OH235835   3.981   0.401   4.876  0.1337  0.2357 -0.2349
 4807TIP3    H135836   4.042   0.401   4.950  0.9964  0.5540 -0.9364
 4807TIP3    H235837   3.894   0.403   4.916  0.5637 -1.1278  0.7837
 4808TIP3   OH235838   4.846   4.684   4.586 -0.3525  0.7294 -0.0649
 4808TIP3    H135839   4.838   4.615   4.519 -3.0771 -0.6002  1.5320
 4808TIP3    H235840   4.805   4.760   4.546 -0.0612  0.5565 -0.7055
 4809TIP3   OH235841   4.186   4.084   5.851 -0.1384 -0.3501 -0.1398
 4809TIP3    H135842   4.153   4.173   5.859 -1.7044 -0.7924 -1.6217
 4809TIP3    H235843   4.191   4.068   5.757  0.7244 -1.6146  0.1100
 4810TIP3   OH235844   1.420   1.531   3.991 -0.3516 -0.6321  0.3685
 4810TIP3    H135845   1.413   1.506   4.084 -0.6203  0.6264  0.6964
 4810TIP3    H235846   1.441   1.624   3.993  1.3832 -0.9713 -0.8239
 4811TIP3   OH235847   3.551   6.482  16.054 -0.2428  0.7559 -0.4409
 4811TIP3    H135848   3.461   6.461  16.079 -0.0343 -0.1119 -0.3773
 4811TIP3    H235849   3.593   6.510  16.135 -0.5224  1.4052 -0.5205
 4812TIP3   OH235850   4.785   3.929   2.285 -0.2391 -0.6817 -0.0340
 4812TIP3    H135851   4.777   3.932   2.380  1.3667  0.1415  0.1007
 4812TIP3    H235852   4.728   3.999   2.254  0.6223  0.2549  0.4460
 4813TIP3   OH235853   2.912   3.121  15.725  0.3853  0.7593  0.2276
 4813TIP3    H135854   2.984   3.070  15.761 -0.6285 -0.7218  0.1731
 4813TIP3    H235855   2.836   3.063  15.728 -0.7786  2.2293  0.1058
 4814TIP3   OH235856   5.157   1.714   0.505 -0.1461 -0.2991  0.3959
 4814TIP3    H135857   5.152   1.622   0.479 -0.0504 -0.2549  0.2200
 4814TIP3    H235858   5.180   1.761   0.424 -1.0442 -0.0204  0.2912
 4815TIP3   OH235859   3.678   2.908   3.462  0.0722 -0.6001  0.5682
 4815TIP3    H135860   3.604   2.940   3.514 -0.8441 -1.7840  0.0148
 4815TIP3    H235861   3.733   2.862   3.525 -0.3803 -0.9197  0.7351
 4816TIP3   OH235862   4.271   3.670  14.995 -0.1701 -0.7273 -0.2813
 4816TIP3    H135863   4.315   3.745  15.036 -1.1439 -0.7477  0.8192
 4816TIP3    H235864   4.343   3.610  14.973  0.6641  0.7100 -1.6009
 4817TIP3   OH235865   6.017   5.362   1.899  0.0844 -0.4653 -0.5944
 4817TIP3    H135866   5.977   5.275   1.899  0.9564 -0.8770  0.0465
 4817TIP3    H235867   6.108   5.346   1.926  0.4334  0.5594 -1.1628
 4818TIP3   OH235868   4.976   0.366   3.083 -0.2378 -0.6433 -0.1223
 4818TIP3    H135869   5.000   0.391   3.172  2.4163  0.4827 -1.0998
 4818TIP3    H235870   4.959   0.272   3.088  2.4061 -1.1149  1.1268
 4819TIP3   OH235871   5.625   4.955  12.377  0.0362 -0.2279  0.0887
 4819TIP3    H135872   5.541   4.940  12.334  1.9344 -1.5341 -3.3478
 4819TIP3    H235873   5.663   4.868  12.389  1.4821  0.4047  0.3114
 4820TIP3   OH235874   6.409   5.355  12.110 -0.0729  0.1294  0.0846
 4820TIP3    H135875   6.320   5.320  12.122  0.3362 -1.0328 -0.2789
 4820TIP3    H235876   6.464   5.278  12.096  1.1192  0.8016  1.0333
 4821TIP3   OH235877   1.175   1.128  16.891 -0.1942  0.2592  0.3463
 4821TIP3    H135878   1.227   1.207  16.873  0.4212 -0.3693 -0.6718
 4821TIP3    H235879   1.193   1.108  16.983 -0.7898  1.6189  0.7859
 4822TIP3   OH235880   0.117   6.592  12.620  0.0157 -0.3003 -0.1616
 4822TIP3    H135881   0.128   6.642  12.701  1.1084  0.4847 -0.7797
 4822TIP3    H235882   0.199   6.544  12.611  1.3841  2.3733 -2.6542
 4823TIP3   OH235883   0.162   0.653  15.503 -0.6356  0.6352  0.1488
 4823TIP3    H135884   0.207   0.620  15.580  0.2699  0.5516 -0.4132
 4823TIP3    H235885   0.137   0.574  15.454 -0.3925  0.7199 -0.1098
 4824TIP3   OH235886   4.533   5.208  14.856  0.2569  0.1218  0.5149
 4824TIP3    H135887   4.509   5.220  14.948  1.4462  2.0382  0.6035
 4824TIP3    H235888   4.620   5.247  14.849  0.1621  0.0209 -1.4318
 4825TIP3   OH235889   6.097   5.871  12.483  0.3905  0.2789 -0.0928
 4825TIP3    H135890   6.179   5.825  12.502 -0.4350 -1.3886 -0.5507
 4825TIP3    H235891   6.120   5.932  12.413  1.9035  1.8629  1.6960
 4826TIP3   OH235892   3.816   3.671  13.333 -0.1949 -0.4960  0.1481
 4826TIP3    H135893   3.908   3.678  13.358  0.1495 -0.4171 -1.0932
 4826TIP3    H235894   3.793   3.758  13.301 -0.1986 -0.9620 -1.1607
 4827TIP3   OH235895   4.454   6.202   0.207 -0.1223 -0.1187  0.0994
 4827TIP3    H135896   4.445   6.235   0.297 -0.0168  2.5569 -0.8275
 4827TIP3    H235897   4.528   6.141   0.211  1.5309  1.9070  1.3355
 4828TIP3   OH235898   6.078   4.906   5.874 -0.6589  0.2082  0.4147
 4828TIP3    H135899   5.997   4.870   5.909 -0.4458 -1.7865 -1.1175
 4828TIP3    H235900   6.054   4.995   5.846 -2.3628 -0.4573 -0.2906
 4829TIP3   OH235901   4.214   5.062   5.336  0.0021 -0.9527 -0.4582
 4829TIP3    H135902   4.304   5.095   5.336 -0.0028 -0.9293  0.2195
 4829TIP3    H235903   4.167   5.120   5.277  0.0041  0.2367  0.6820
 4830TIP3   OH235904   1.914   1.299  13.106 -0.1695  0.0543  0.0758
 4830TIP3    H135905   1.865   1.282  13.186  0.0271  2.4831  0.7640
 4830TIP3    H235906   1.940   1.213  13.074 -1.7749 -1.0424  1.6534
 4831TIP3   OH235907   1.783   6.600   5.234 -0.3541  0.0517  0.3597
 4831TIP3    H135908   1.786   6.671   5.170 -0.8510  1.2113  1.6051
 4831TIP3    H235909   1.692   6.571   5.232 -0.4474  0.3223  0.8055
 4832TIP3   OH235910   1.816   3.346  10.666 -0.4945 -0.3471  0.3308
 4832TIP3    H135911   1.878   3.344  10.593  0.4283  0.1777  1.0834
 4832TIP3    H235912   1.736   3.308  10.631  0.5128 -1.8525 -0.4262
 4833TIP3   OH235913   6.707   5.258   0.691  0.5039  0.2233  0.0282
 4833TIP3    H135914   6.701   5.165   0.712  2.2500  0.1718  0.3732
 4833TIP3    H235915   6.687   5.304   0.773 -2.1482  0.2280 -0.5569
 4834TIP3   OH235916   2.990   4.759  10.651 -0.5168  0.5721  0.0821
 4834TIP3    H135917   3.002   4.670  10.618 -1.4821 -0.1336  1.6056
 4834TIP3    H235918   3.010   4.754  10.744 -1.5673  1.7215  0.3914
 4835TIP3   OH235919   3.802   3.697   2.917 -1.1972 -0.6991  0.0851
 4835TIP3    H135920   3.781   3.684   2.824 -0.4599  0.7595 -0.3059
 4835TIP3    H235921   3.791   3.611   2.956 -0.3708 -1.5919 -1.5934
 4836TIP3   OH235922   6.236   3.220   1.598 -0.2981  1.0387  0.5699
 4836TIP3    H135923   6.198   3.289   1.544  0.6497  1.3629  0.3024
 4836TIP3    H235924   6.293   3.172   1.538 -0.4429  0.4419  0.9161
 4837TIP3   OH235925   2.870   1.965  16.725 -0.0406 -0.5041 -0.3112
 4837TIP3    H135926   2.925   1.946  16.800 -0.0581  0.5676 -0.0181
 4837TIP3    H235927   2.796   2.014  16.761 -0.1674 -0.1868 -0.9863
 4838TIP3   OH235928   6.139   4.527  11.199 -0.3438 -0.2711 -0.3544
 4838TIP3    H135929   6.113   4.460  11.135 -0.0324 -1.3652  0.6485
 4838TIP3    H235930   6.056   4.557  11.237 -0.3999 -1.2222  0.3038
 4839TIP3   OH235931   5.296   0.742  11.960 -0.1937  0.1774 -0.4422
 4839TIP3    H135932   5.367   0.687  11.927 -0.2393  0.6935 -1.4273
 4839TIP3    H235933   5.330   0.781  12.040  1.4009  2.0244 -1.9759
 4840TIP3   OH235934   1.418   6.029   3.028  0.2714 -0.0315 -0.3625
 4840TIP3    H135935   1.424   5.947   3.076 -0.5343  0.1133 -0.0074
 4840TIP3    H235936   1.337   6.069   3.058 -1.1714 -0.7591 -3.1552
 4841TIP3   OH235937   0.279   0.799  14.720 -0.5011 -0.4963  0.1780
 4841TIP3    H135938   0.278   0.894  14.725  1.1100 -0.5350  2.0680
 4841TIP3    H235939   0.266   0.779  14.627 -0.3698  1.5688 -0.2963
 4842TIP3   OH235940   5.168   2.731   1.557  0.0262  0.3276  0.1614
 4842TIP3    H135941   5.207   2.808   1.514 -1.7514  0.9903 -0.3077
 4842TIP3    H235942   5.225   2.715   1.632 -0.2842  2.8947  0.9892
 4843TIP3   OH235943   2.897   0.485   5.839  0.1543 -0.0390  0.1820
 4843TIP3    H135944   2.807   0.453   5.839 -0.1459  0.7502 -0.8053
 4843TIP3    H235945   2.951   0.407   5.852 -0.6759 -0.4964  0.9073
 4844TIP3   OH235946   1.973   5.289   5.260 -0.1098 -0.4049  0.2704
 4844TIP3    H135947   2.053   5.335   5.285 -1.6831  2.0800  0.9316
 4844TIP3    H235948   1.916   5.297   5.336 -1.5981 -0.6703 -0.7961
 4845TIP3   OH235949   1.597   5.970   2.199  0.2639 -0.6279  0.2066
 4845TIP3    H135950   1.645   6.049   2.173  0.3892 -0.0523  2.0899
 4845TIP3    H235951   1.648   5.898   2.162  1.2511  0.0999  0.1209
 4846TIP3   OH235952   5.308   4.074   1.560  0.1589  0.1549 -0.1013
 4846TIP3    H135953   5.340   3.991   1.525 -0.6974 -0.2216 -0.0048
 4846TIP3    H235954   5.334   4.139   1.495  0.4194 -0.2507 -0.4063
 4847TIP3   OH235955   5.125   1.983   1.052 -0.1661  0.3987  0.2563
 4847TIP3    H135956   5.200   2.015   1.002  0.2001 -3.1681 -1.5504
 4847TIP3    H235957   5.051   2.037   1.022  0.8251  1.0068 -1.1326
 4848TIP3   OH235958   6.448   6.074   2.550 -0.3381  0.5007 -0.4825
 4848TIP3    H135959   6.544   6.072   2.544 -0.2996 -1.1562  0.2345
 4848TIP3    H235960   6.425   6.166   2.541  1.3884  1.0193  0.1820
 4849TIP3   OH235961   6.231   1.200  12.614  0.5131 -0.1188  0.3369
 4849TIP3    H135962   6.198   1.200  12.524  0.2101 -0.6779  0.4424
 4849TIP3    H235963   6.164   1.248  12.663 -0.6044 -2.0071  0.7027
 4850TIP3   OH235964   3.589   3.347   0.157  0.1559 -0.1861  0.1183
 4850TIP3    H135965   3.514   3.395   0.122 -0.3357 -1.2227 -0.2748
 4850TIP3    H235966   3.607   3.388   0.241 -0.6395  0.2967  0.0576
 4851TIP3   OH235967   4.131   2.085   3.435 -0.5028 -0.2788  0.3625
 4851TIP3    H135968   4.111   2.072   3.342  0.2144 -1.7040  0.3882
 4851TIP3    H235969   4.045   2.089   3.478 -0.8095 -1.0967 -0.1701
 4852TIP3   OH235970   0.777   5.572   1.900  0.8080 -0.2613  0.0919
 4852TIP3    H135971   0.816   5.649   1.859  1.2977 -1.1542 -1.1454
 4852TIP3    H235972   0.849   5.531   1.949  1.2884 -1.4914 -1.5800
 4853TIP3   OH235973   3.223   2.109   3.459 -0.0003  0.2933 -0.0448
 4853TIP3    H135974   3.293   2.084   3.519 -0.4272  0.1271  0.3916
 4853TIP3    H235975   3.158   2.039   3.468  0.9763 -1.0061 -2.4748
 4854TIP3   OH235976   2.561   0.326  14.278  0.2033  0.2859  0.2047
 4854TIP3    H135977   2.527   0.256  14.334 -0.2218 -1.0223 -1.6402
 4854TIP3    H235978   2.592   0.281  14.200 -1.5764  2.2775 -1.7341
 4855TIP3   OH235979   0.614   4.210  11.260 -0.7240 -0.0868 -0.0576
 4855TIP3    H135980   0.697   4.163  11.254 -0.6490 -0.4438  2.7380
 4855TIP3    H235981   0.577   4.207  11.172  1.2749 -1.6940 -0.8730
 4856TIP3   OH235982   4.610   3.516   5.908 -0.8439  0.0341 -0.5686
 4856TIP3    H135983   4.616   3.577   5.981  1.5470  0.5692 -1.1624
 4856TIP3    H235984   4.521   3.483   5.912 -0.9843  0.5781  2.1653
 4857TIP3   OH235985   0.536   4.271   2.409  0.3963 -0.5408  0.2915
 4857TIP3    H135986   0.459   4.230   2.447  0.3570 -1.9858 -1.2846
 4857TIP3    H235987   0.516   4.280   2.315  2.5119 -1.8797 -0.3330
 4858TIP3   OH235988   3.632   1.345  13.832 -0.6557  0.7093 -0.7724
 4858TIP3    H135989   3.715   1.300  13.815 -0.5659  1.3079 -1.9273
 4858TIP3    H235990   3.632   1.358  13.927 -0.3542 -1.0749 -0.4984
 4859TIP3   OH235991   2.814   4.672  11.979  0.5714  0.3394 -1.2745
 4859TIP3    H135992   2.744   4.638  12.034  0.3244 -0.1172 -1.8706
 4859TIP3    H235993   2.858   4.737  12.034  0.6777 -0.5184 -0.3544
 4860TIP3   OH235994   5.739   4.076   3.230 -0.1408 -0.2005  0.7187
 4860TIP3    H135995   5.734   3.991   3.185  0.2304 -0.8230  1.8416
 4860TIP3    H235996   5.649   4.108   3.231 -0.5280 -1.2711  1.5976
 4861TIP3   OH235997   4.831   0.851  16.047 -0.1405 -0.1865 -0.2932
 4861TIP3    H135998   4.825   0.780  16.110 -0.2536 -1.3661 -1.5904
 4861TIP3    H235999   4.816   0.931  16.098 -1.1325 -1.1710  0.9880
 4862TIP3   OH236000   1.500   2.993  14.246 -0.0890  0.1755  0.1080
 4862TIP3    H136001   1.554   2.918  14.271  0.8732  1.7583  3.0535
 4862TIP3    H236002   1.412   2.971  14.279 -0.0464 -0.1153  0.0294
 4863TIP3   OH236003   4.993   4.664   0.229 -0.0042  0.0854  0.9286
 4863TIP3    H136004   4.975   4.750   0.191 -0.1506 -0.2259  0.2930
 4863TIP3    H236005   5.052   4.622   0.166  0.3325 -0.1593  1.3987
 4864TIP3   OH236006   0.076   6.309  13.255 -0.1676  0.1782 -0.1317
 4864TIP3    H136007   0.044   6.378  13.197  1.7166 -0.8579 -2.5056
 4864TIP3    H236008   0.051   6.228  13.211  2.4197 -0.6339 -0.1702
 4865TIP3   OH236009   4.439   1.537  11.222  0.0979  0.1993 -0.3019
 4865TIP3    H136010   4.353   1.529  11.181 -1.2872 -0.4543  2.5734
 4865TIP3    H236011   4.442   1.628  11.254  0.4763  0.2215 -0.3955
 4866TIP3   OH236012   2.503   4.650   4.844  0.0655  0.2496  0.2172
 4866TIP3    H136013   2.525   4.617   4.757 -0.1730  0.5681  0.0329
 4866TIP3    H236014   2.521   4.577   4.904  1.3030  0.3970  0.0293
 4867TIP3   OH236015   3.617   4.014   4.576 -0.3841  0.2241 -0.5648
 4867TIP3    H136016   3.546   4.004   4.641  1.8003 -2.6123  1.5488
 4867TIP3    H236017   3.685   4.063   4.622 -0.3043  1.5460 -2.0547
 4868TIP3   OH236018   0.216   6.700  16.504  0.1844  0.0838 -0.3916
 4868TIP3    H136019   0.246   6.612  16.484  2.6366  0.4242  1.4666
 4868TIP3    H236020   0.217   6.746  16.420  1.1084 -1.0235 -0.9989
 4869TIP3   OH236021   2.471   3.591  14.167 -0.4381 -0.0523 -0.3962
 4869TIP3    H136022   2.392   3.619  14.213 -0.6537 -0.3983 -0.5600
 4869TIP3    H236023   2.531   3.565  14.236 -0.7901 -0.6500 -0.3168
 4870TIP3   OH236024   3.159   4.046   0.537 -0.2857  0.4880  0.1887
 4870TIP3    H136025   3.161   3.952   0.558 -1.6131  0.1485 -1.1296
 4870TIP3    H236026   3.066   4.067   0.529  0.0318  1.7411 -0.2996
 4871TIP3   OH236027   0.204   0.144   2.156  0.3718  0.4979  0.6124
 4871TIP3    H136028   0.240   0.178   2.074 -0.9186  1.1676  0.3078
 4871TIP3    H236029   0.246   0.059   2.167  0.6904  0.4776 -0.6452
 4872TIP3   OH236030   3.137   3.962   5.693 -0.4426 -0.5048 -0.3970
 4872TIP3    H136031   3.111   3.871   5.712  0.3319 -0.4511  0.9748
 4872TIP3    H236032   3.100   4.012   5.766 -0.8526  0.2907 -1.1463
 4873TIP3   OH236033   0.521   0.165  16.068  0.1300 -0.2657  0.1844
 4873TIP3    H136034   0.486   0.245  16.108  1.0969 -0.4677  1.4884
 4873TIP3    H236035   0.606   0.192  16.032 -0.3808 -0.2736 -1.0428
 4874TIP3   OH236036   2.237   6.062   0.773  0.3268  0.1312 -0.2335
 4874TIP3    H136037   2.327   6.030   0.775 -0.0548 -1.0589 -1.9217
 4874TIP3    H236038   2.185   5.990   0.809 -0.1118  0.2932 -0.5426
 4875TIP3   OH236039   4.427   2.159   4.962  0.1062 -0.1403  0.3964
 4875TIP3    H136040   4.421   2.208   4.880  0.4315  1.7575  1.4977
 4875TIP3    H236041   4.336   2.145   4.988  0.0246  0.3529  0.3705
 4876TIP3   OH236042   2.874   2.471   3.702 -0.1542  0.5243 -0.5219
 4876TIP3    H136043   2.930   2.476   3.624  1.7349 -2.4824  0.5916
 4876TIP3    H236044   2.935   2.473   3.776 -1.5872 -1.6913  0.7561
 4877TIP3   OH236045   2.214   2.838  15.012 -0.0657  0.0001 -0.2700
 4877TIP3    H136046   2.136   2.868  14.964  0.6282 -2.0380 -2.7778
 4877TIP3    H236047   2.179   2.809  15.097 -1.4922  2.4881  0.0724
 4878TIP3   OH236048   0.151   4.956  10.596 -0.0678 -0.2509 -0.5889
 4878TIP3    H136049   0.230   4.904  10.611 -0.7570 -0.5973  2.0282
 4878TIP3    H236050   0.184   5.041  10.567  1.2931 -0.3988  0.4534
 4879TIP3   OH236051   2.114   5.160   1.011  0.2790  0.0136  0.1751
 4879TIP3    H136052   2.050   5.095   0.983  0.3577 -0.0249  0.0831
 4879TIP3    H236053   2.068   5.244   1.006  0.8710  0.2351 -1.9173
 4880TIP3   OH236054   5.727   3.659   1.977 -0.2318 -0.1075 -0.4274
 4880TIP3    H136055   5.709   3.565   1.976 -1.5162  0.0729  1.8231
 4880TIP3    H236056   5.776   3.673   2.059 -0.7413  1.2911 -0.3389
 4881TIP3   OH236057   2.465   3.386  16.352 -0.2708 -0.1860  0.2185
 4881TIP3    H136058   2.500   3.304  16.317 -2.0480 -0.9733  0.2534
 4881TIP3    H236059   2.424   3.362  16.435 -2.9298  0.2793 -0.9077
 4882TIP3   OH236060   5.745   3.641   0.545  0.4490 -0.0711  0.0285
 4882TIP3    H136061   5.826   3.597   0.519  0.7794  0.6710 -0.2296
 4882TIP3    H236062   5.705   3.668   0.462  0.0462 -0.2536  0.1646
 4883TIP3   OH236063   2.825   1.851  15.102 -0.1255 -0.7681  1.1885
 4883TIP3    H136064   2.919   1.834  15.103  0.3481  1.6678  2.9975
 4883TIP3    H236065   2.812   1.914  15.032 -0.3648 -0.8835  1.1271
 4884TIP3   OH236066   6.755   2.609  11.730  0.2268 -0.3894  0.8872
 4884TIP3    H136067   6.843   2.635  11.703 -0.3647  0.1362 -0.5756
 4884TIP3    H236068   6.718   2.566  11.653  0.2140 -3.2398  2.3944
 4885TIP3   OH236069   0.969   5.559  10.946  0.4078 -0.0785  0.0194
 4885TIP3    H136070   0.958   5.645  10.988 -0.9216  0.1765 -0.8136
 4885TIP3    H236071   1.014   5.579  10.864  1.0633 -0.3159  0.3183
 4886TIP3   OH236072   0.707   0.232  12.990  0.0604 -0.1544 -0.4960
 4886TIP3    H136073   0.632   0.282  12.959  0.0362 -0.4256 -0.8760
 4886TIP3    H236074   0.727   0.171  12.919 -0.8837 -1.7612  0.5727
 4887TIP3   OH236075   3.805   6.145  11.820  0.3931  0.1912  0.3277
 4887TIP3    H136076   3.858   6.102  11.887  1.3762 -0.8261 -1.0771
 4887TIP3    H236077   3.837   6.235  11.818  1.4104 -0.1627  0.1747
 4888TIP3   OH236078   1.997   6.167   5.088 -0.0457  0.3418 -0.2684
 4888TIP3    H136079   2.083   6.157   5.047 -0.3044 -0.4495 -0.6388
 4888TIP3    H236080   2.015   6.158   5.182  0.5488  2.1636 -0.1976
 4889TIP3   OH236081   5.217   1.894   1.314  0.2875 -0.7848  0.2892
 4889TIP3    H136082   5.306   1.895   1.277  0.8261  0.5592  1.5628
 4889TIP3    H236083   5.161   1.921   1.242  1.2197  0.8540  0.1459
 4890TIP3   OH236084   0.084   4.809   5.272  0.3266  0.2874 -0.0197
 4890TIP3    H136085   0.014   4.873   5.280 -0.2477 -0.4147  0.6022
 4890TIP3    H236086   0.094   4.796   5.178 -1.8397 -1.1996 -0.0605
 4891TIP3   OH236087   1.018   4.729  13.256 -0.5437 -0.1362 -0.0220
 4891TIP3    H136088   0.992   4.656  13.200 -1.5435 -0.3095  0.6564
 4891TIP3    H236089   1.018   4.805  13.197  1.8662 -0.8916 -1.0398
 4892TIP3   OH236090   6.186   1.016  14.843  0.3023  0.2926 -0.2063
 4892TIP3    H136091   6.281   1.003  14.846  0.0838 -1.7013 -1.0409
 4892TIP3    H236092   6.168   1.077  14.915  1.9210 -1.2070  1.5410
 4893TIP3   OH236093   5.527   1.895  14.947  0.7924  0.4753 -0.1818
 4893TIP3    H136094   5.535   1.805  14.915 -1.0652 -0.6840  2.4385
 4893TIP3    H236095   5.585   1.946  14.890  0.5766 -2.0847 -2.8016
 4894TIP3   OH236096   5.360   1.630  15.895  0.4667 -0.2171 -0.0107
 4894TIP3    H136097   5.398   1.562  15.840 -0.6124 -0.6889 -0.2001
 4894TIP3    H236098   5.370   1.711  15.844  0.6591 -0.4367 -0.3200
 4895TIP3   OH236099   1.728   2.202  13.409 -0.4702 -0.4305 -0.2922
 4895TIP3    H136100   1.798   2.257  13.446  1.1763 -1.3638 -1.9153
 4895TIP3    H236101   1.721   2.129  13.470 -1.3861  0.6170  0.8919
 4896TIP3   OH236102   4.091   3.311  17.053 -0.2971  0.1777  0.3731
 4896TIP3    H136103   4.105   3.326  16.959 -1.0032  0.9942  0.3884
 4896TIP3    H236104   4.115   3.220  17.067 -0.6389 -0.0824 -0.6980
 4897TIP3   OH236105   1.029   1.158  15.591 -0.7016 -0.0459 -0.1765
 4897TIP3    H136106   0.999   1.230  15.536 -0.2219  0.9799  0.8916
 4897TIP3    H236107   1.028   1.193  15.680  1.2434 -0.7866  0.1660
 4898TIP3   OH236108   1.638   0.290  11.023 -0.1867  0.3429  0.6167
 4898TIP3    H136109   1.659   0.373  10.981  0.5656  0.8284  1.9319
 4898TIP3    H236110   1.723   0.251  11.043 -0.5275  0.3477  2.1250
 4899TIP3   OH236111   6.341   4.804   3.129  0.0823  0.2132 -0.2060
 4899TIP3    H136112   6.419   4.756   3.158 -1.6485 -2.0350  0.9034
 4899TIP3    H236113   6.328   4.871   3.196 -0.3444 -0.9956  0.9299
 4900TIP3   OH236114   6.169   4.387   2.334  0.0312 -0.9411 -0.6618
 4900TIP3    H136115   6.107   4.351   2.270  1.4563 -1.3580 -1.8459
 4900TIP3    H236116   6.179   4.317   2.398 -2.1727 -0.1463  0.6207
 4901TIP3   OH236117   5.979   1.305  13.306  0.4312 -0.7802 -0.4899
 4901TIP3    H136118   5.981   1.217  13.268  0.7481 -0.4866 -1.1703
 4901TIP3    H236119   6.064   1.315  13.348 -0.0736 -1.2549  0.6478
 4902TIP3   OH236120   3.177   4.909   4.728 -1.1425 -0.3331  0.8131
 4902TIP3    H136121   3.198   4.941   4.816  1.0129  0.3444  0.0955
 4902TIP3    H236122   3.093   4.950   4.707 -0.8655  0.8329  1.9055
 4903TIP3   OH236123   0.332   4.147   1.936  0.7095 -0.5144 -0.7934
 4903TIP3    H136124   0.295   4.061   1.916  0.1940 -0.0530 -1.8586
 4903TIP3    H236125   0.280   4.208   1.884  0.4494  0.5396  0.7060
 4904TIP3   OH236126   4.986   6.626  16.113 -0.0714  0.1849  0.0298
 4904TIP3    H136127   5.014   6.690  16.179 -0.1213  0.8967 -0.6403
 4904TIP3    H236128   5.046   6.553  16.124  1.4305  1.2781 -0.7102
 4905TIP3   OH236129   5.523   0.231  10.891 -0.4769  0.1240  0.2355
 4905TIP3    H136130   5.582   0.175  10.842  0.0192  0.4669  0.4418
 4905TIP3    H236131   5.493   0.296  10.828  0.3492  0.7112  0.4432
 4906TIP3   OH236132   4.910   2.648  16.004 -0.4121  0.7350 -0.9010
 4906TIP3    H136133   4.976   2.715  15.985 -0.6398  0.7576 -1.6284
 4906TIP3    H236134   4.866   2.679  16.083  1.5662 -0.1048  0.5746
 4907TIP3   OH236135   2.235   4.143   3.601 -0.4333 -0.5834 -0.3400
 4907TIP3    H136136   2.242   4.118   3.693 -0.4262 -0.0501 -0.1924
 4907TIP3    H236137   2.233   4.060   3.554  1.9204 -0.8350 -0.0293
 4908TIP3   OH236138   1.263   4.818   3.807  0.0073  0.5122 -0.1903
 4908TIP3    H136139   1.351   4.781   3.817 -0.3682 -0.1874  0.4996
 4908TIP3    H236140   1.224   4.765   3.737  0.0037  0.5860 -0.2438
 4909TIP3   OH236141   3.610   0.671  10.469  0.1817 -0.1069  0.0419
 4909TIP3    H136142   3.671   0.742  10.449 -1.0147  0.9138 -0.1015
 4909TIP3    H236143   3.661   0.609  10.520  1.3269  0.7339 -0.0538
 4910TIP3   OH236144   0.137   6.019  15.292  0.4473  0.3768  1.1252
 4910TIP3    H136145   0.104   6.013  15.202  0.7683  0.5985  0.9917
 4910TIP3    H236146   0.121   5.932  15.329 -0.0763  0.4148  0.9901
 4911TIP3   OH236147   2.599   5.416   4.759  0.0370  0.0024 -0.3338
 4911TIP3    H136148   2.656   5.475   4.808  0.1286 -0.2874 -0.0839
 4911TIP3    H236149   2.521   5.406   4.814  1.1714 -2.2788  0.9553
 4912TIP3   OH236150   3.027   3.927  17.215  0.0370 -0.1772 -0.0017
 4912TIP3    H136151   3.089   3.910  17.285  1.1733 -0.6704 -1.1045
 4912TIP3    H236152   3.009   4.021  17.221  0.4372 -0.1428  0.6877
 4913TIP3   OH236153   4.635   6.643  11.494  0.3744 -0.2308 -0.0414
 4913TIP3    H136154   4.631   6.547  11.497  0.7085 -0.2277  0.7836
 4913TIP3    H236155   4.702   6.665  11.558  0.9415  0.5165 -0.8950
 4914TIP3   OH236156   3.629   3.779  12.147 -0.2568 -0.5013  0.1439
 4914TIP3    H136157   3.651   3.787  12.054  0.8664 -0.7472  0.3831
 4914TIP3    H236158   3.534   3.765  12.148 -0.3360 -0.0906 -0.9417
 4915TIP3   OH236159   6.516   4.765   5.857  0.0182  0.2833  1.0326
 4915TIP3    H136160   6.585   4.830   5.871  0.8515 -0.4668  0.4473
 4915TIP3    H236161   6.494   4.775   5.764  0.3321 -0.4514  0.8806
 4916TIP3   OH236162   5.117   0.717  16.150 -0.5302  0.3449  0.0494
 4916TIP3    H136163   5.117   0.811  16.169 -0.8163  0.4745 -0.5489
 4916TIP3    H236164   5.027   0.690  16.169 -1.0808  0.6651 -1.9347
 4917TIP3   OH236165   2.468   6.693  14.631  0.1754 -0.3548 -0.5046
 4917TIP3    H136166   2.481   6.730  14.718  0.6217 -1.1207 -0.2376
 4917TIP3    H236167   2.375   6.673  14.627  0.3100 -1.1510  0.1435
 4918TIP3   OH236168   3.529   1.974   2.044 -0.4957  0.0707  0.3934
 4918TIP3    H136169   3.564   1.901   1.994 -1.3282 -0.4845  0.6141
 4918TIP3    H236170   3.518   2.044   1.979  1.2999  0.3570  0.3884
 4919TIP3   OH236171   5.705   5.589   3.205  0.5620  0.3596 -0.2846
 4919TIP3    H136172   5.726   5.683   3.205 -0.2596  0.5539 -0.5328
 4919TIP3    H236173   5.611   5.587   3.223  0.4780 -0.3960 -0.8117
 4920TIP3   OH236174   2.643   6.043   2.411  0.4192  0.4215  0.3245
 4920TIP3    H136175   2.623   6.036   2.317 -1.2326  1.1924  0.5912
 4920TIP3    H236176   2.652   5.953   2.440 -1.2643  0.0665 -0.1579
 4921TIP3   OH236177   4.886   1.279  15.243 -0.2638  0.3026 -0.6127
 4921TIP3    H136178   4.810   1.234  15.279 -0.3491  2.2893  1.7790
 4921TIP3    H236179   4.953   1.210  15.236 -1.1380 -0.7001  0.7200
 4922TIP3   OH236180   5.357   6.114   5.720  0.3370  0.2365 -0.1211
 4922TIP3    H136181   5.357   6.206   5.696  1.0688 -0.1600 -1.7347
 4922TIP3    H236182   5.344   6.067   5.637  1.3725 -1.1365  0.4553
 4923TIP3   OH236183   4.561   4.598  12.050 -0.0795  0.3485 -0.1492
 4923TIP3    H136184   4.572   4.670  11.988  1.0398  0.2252 -0.1119
 4923TIP3    H236185   4.627   4.615  12.118 -1.5522  0.7074  1.2273
 4924TIP3   OH236186   2.906   2.921   5.101  0.2769 -0.0625 -0.1916
 4924TIP3    H136187   2.927   3.011   5.126 -0.4332  0.0104  0.1436
 4924TIP3    H236188   2.813   2.923   5.079 -0.1422 -1.0736  1.3996
 4925TIP3   OH236189   2.281   3.266  13.770 -0.1545 -0.5569 -0.4175
 4925TIP3    H136190   2.212   3.224  13.820  1.4329 -0.5656  1.8193
 4925TIP3    H236191   2.297   3.349  13.816  0.7789 -0.1970 -1.3653
 4926TIP3   OH236192   0.689   5.500  15.142 -0.6728  0.4281  0.0434
 4926TIP3    H136193   0.672   5.594  15.142  2.8953  1.1515 -1.8081
 4926TIP3    H236194   0.766   5.488  15.197 -0.4843 -1.2787 -0.5421
 4927TIP3   OH236195   1.422   0.620  13.743  0.2023  0.0225  0.0606
 4927TIP3    H136196   1.350   0.645  13.685 -0.2196 -0.9806  0.1483
 4927TIP3    H236197   1.479   0.697  13.745 -0.5695  0.6104 -0.4687
 4928TIP3   OH236198   3.381   0.948   0.515  0.2290  0.4289 -0.4380
 4928TIP3    H136199   3.390   0.854   0.525  0.5811  0.5459  0.3553
 4928TIP3    H236200   3.435   0.985   0.585  2.2209  1.2473 -2.3390
 4929TIP3   OH236201   1.688   0.780   2.340  0.4664  0.0092  0.0952
 4929TIP3    H136202   1.647   0.851   2.290  2.5141  0.5757 -0.8411
 4929TIP3    H236203   1.673   0.804   2.431  0.1570  1.0521 -0.2112
 4930TIP3   OH236204   6.583   6.076  14.171  0.2097 -0.0578 -0.2109
 4930TIP3    H136205   6.489   6.059  14.169  0.2388 -0.3094  0.4246
 4930TIP3    H236206   6.617   6.030  14.094 -0.3995  1.4245 -1.3825
 4931TIP3   OH236207   6.488   0.684   2.772  0.2132 -0.0683  0.0103
 4931TIP3    H136208   6.463   0.738   2.847  0.3186 -0.5171  0.3669
 4931TIP3    H236209   6.582   0.698   2.762  0.3478 -0.6182  0.4542
 4932TIP3   OH236210   6.079   3.756  12.053 -0.1011  0.2955  0.3107
 4932TIP3    H136211   6.014   3.805  12.103 -1.4431  1.6738 -2.6806
 4932TIP3    H236212   6.030   3.718  11.981  2.0871 -0.1250 -0.9985
 4933TIP3   OH236213   1.468   4.807  10.936 -0.3011  0.3126 -0.4053
 4933TIP3    H136214   1.491   4.727  10.984 -1.6303 -0.4817 -1.0403
 4933TIP3    H236215   1.544   4.825  10.881  0.0854 -0.4261 -0.1135
 4934TIP3   OH236216   4.618   2.736   5.301  0.1204  0.7658  0.1043
 4934TIP3    H136217   4.695   2.686   5.328 -0.6848  0.3330  1.6511
 4934TIP3    H236218   4.564   2.674   5.253  0.2144  0.7890 -0.0344
 4935TIP3   OH236219   4.114   1.394  11.843  0.1243  0.4008 -0.1860
 4935TIP3    H136220   4.188   1.394  11.904 -0.1075 -0.2612  0.0974
 4935TIP3    H236221   4.141   1.335  11.773 -0.4299 -0.4135  0.2820
 4936TIP3   OH236222   0.868   5.809   2.249 -0.0587 -0.1414  0.0359
 4936TIP3    H136223   0.854   5.857   2.331  0.3562  0.0061  0.0236
 4936TIP3    H236224   0.935   5.859   2.203 -0.3275 -0.1986 -0.4182
 4937TIP3   OH236225   0.317   2.174   4.671  0.2941  0.1177 -0.0726
 4937TIP3    H136226   0.329   2.248   4.731  0.1958  1.1565 -1.3072
 4937TIP3    H236227   0.361   2.101   4.714 -1.5278  0.3369  2.2173
 4938TIP3   OH236228   3.214   3.098   4.168 -0.0647 -0.3526 -0.0855
 4938TIP3    H136229   3.137   3.041   4.171 -0.1720 -0.2520 -0.7707
 4938TIP3    H236230   3.178   3.185   4.152 -0.0954  0.3331  3.4052
 4939TIP3   OH236231   0.492   3.319  13.808 -0.1017 -0.3697  0.6895
 4939TIP3    H136232   0.428   3.342  13.741  0.7633 -0.6461 -0.2469
 4939TIP3    H236233   0.471   3.376  13.882  0.2230  1.4439 -0.5687
 4940TIP3   OH236234   2.388   0.019   4.350  0.0601  0.2814 -0.1338
 4940TIP3    H136235   2.384   0.034   4.445  2.1468 -1.5321  0.3013
 4940TIP3    H236236   2.414   0.104   4.314  0.4098  0.7006  1.0586
 4941TIP3   OH236237   5.786   5.908  11.417 -0.0289 -0.1884  0.2314
 4941TIP3    H136238   5.760   5.987  11.370  1.6449  1.0169  1.2473
 4941TIP3    H236239   5.707   5.881  11.464 -0.8381  0.4063 -0.7643
 4942TIP3   OH236240   4.576   3.699  12.776  0.0804  0.4474 -0.5151
 4942TIP3    H136241   4.660   3.721  12.736 -0.5924 -1.2272 -2.9674
 4942TIP3    H236242   4.538   3.634  12.718 -1.7258 -0.8554  2.0247
 4943TIP3   OH236243   0.789   1.867   6.121  0.1959 -0.3839 -0.7328
 4943TIP3    H136244   0.843   1.793   6.094 -0.6684 -0.6140 -1.8716
 4943TIP3    H236245   0.812   1.881   6.213  2.3212 -0.3451 -1.2453
 4944TIP3   OH236246   2.640   3.585   4.751  0.4342 -0.5056 -0.1112
 4944TIP3    H136247   2.689   3.547   4.678  0.5642  1.8169 -1.2951
 4944TIP3    H236248   2.671   3.676   4.756 -0.5667 -0.2386  1.9621
 4945TIP3   OH236249   4.205   0.366  12.557  0.0834  0.1119 -0.4118
 4945TIP3    H136250   4.246   0.416  12.486  0.0347 -0.8375 -1.1254
 4945TIP3    H236251   4.114   0.354  12.528  0.1363 -0.5249 -0.3329
 4946TIP3   OH236252   0.268   1.880   3.890 -0.1565  0.0702 -0.1273
 4946TIP3    H136253   0.280   1.786   3.905  0.5385  0.0458 -0.8019
 4946TIP3    H236254   0.173   1.893   3.891 -0.3000 -0.8272 -1.0788
 4947TIP3   OH236255   6.138   0.405   4.700 -0.3264  0.4390 -0.7318
 4947TIP3    H136256   6.043   0.398   4.694 -0.4517  0.5696  0.9064
 4947TIP3    H236257   6.169   0.315   4.704 -0.5380  0.4389  0.9057
 4948TIP3   OH236258   5.323   0.971  15.129  0.3151 -0.0048  0.3434
 4948TIP3    H136259   5.343   1.013  15.045 -0.6176 -1.4198 -0.6170
 4948TIP3    H236260   5.397   0.911  15.144 -0.1328 -0.6854 -0.1197
 4949TIP3   OH236261   1.182   5.546  12.325 -0.5238 -0.1419  0.6331
 4949TIP3    H136262   1.167   5.575  12.415  0.5646  0.3371  0.6640
 4949TIP3    H236263   1.206   5.454  12.333  2.8702  0.7385  1.1381
 4950TIP3   OH236264   3.139   1.258   0.635 -0.1191 -0.3916  0.5389
 4950TIP3    H136265   3.079   1.230   0.566 -0.9603 -1.0423  1.5060
 4950TIP3    H236266   3.176   1.177   0.669  0.9591 -0.0237  0.2838
 4951TIP3   OH236267   6.385   2.867  13.097 -0.6434 -0.4429 -0.4526
 4951TIP3    H136268   6.329   2.851  13.022  0.8280 -1.1719 -1.4081
 4951TIP3    H236269   6.463   2.813  13.082  0.5511  0.9455  0.5866
 4952TIP3   OH236270   6.452   0.288  13.661  0.2409  0.2399 -0.0412
 4952TIP3    H136271   6.393   0.314  13.732  0.3669  1.1972 -0.2820
 4952TIP3    H236272   6.493   0.370  13.633  1.0952 -0.3082 -0.4048
 4953TIP3   OH236273   6.293   0.287   0.201 -0.6667  0.1164  0.1578
 4953TIP3    H136274   6.299   0.360   0.262  1.0406 -0.3876  0.6208
 4953TIP3    H236275   6.201   0.284   0.175 -1.2143  0.9161  1.9906
 4954TIP3   OH236276   5.279   5.674  12.948 -0.1148  0.7748 -0.1348
 4954TIP3    H136277   5.321   5.721  13.020  0.8548 -1.0005  0.5091
 4954TIP3    H236278   5.298   5.727  12.871  0.8836  1.4755  0.5768
 4955TIP3   OH236279   0.255   0.048  11.638 -0.7805  0.3507 -0.4461
 4955TIP3    H136280   0.214   0.119  11.589  0.3222  0.9851 -0.4538
 4955TIP3    H236281   0.223   0.059  11.727 -0.0681  1.2931 -0.2958
 4956TIP3   OH236282   2.564   4.330  10.707  0.3507  0.4403 -0.0636
 4956TIP3    H136283   2.480   4.372  10.684  0.2632  0.1357 -0.3023
 4956TIP3    H236284   2.556   4.241  10.673  0.1898 -0.0505  1.2286
 4957TIP3   OH236285   1.383   6.538  14.101 -0.5030 -0.4633 -0.2411
 4957TIP3    H136286   1.380   6.621  14.053 -0.5002 -0.4631 -0.2414
 4957TIP3    H236287   1.354   6.473  14.037 -0.7024 -0.4344 -0.1795
 4958TIP3   OH236288   3.312   3.378  15.960  0.1183  0.7376 -0.6695
 4958TIP3    H136289   3.399   3.415  15.945  0.1774  0.4808 -0.9637
 4958TIP3    H236290   3.291   3.332  15.878  2.1795 -4.1987  1.4031
 4959TIP3   OH236291   3.243   4.644   2.225 -0.1736  0.3143  0.7976
 4959TIP3    H136292   3.293   4.586   2.168 -0.9714  0.5150 -0.1167
 4959TIP3    H236293   3.264   4.615   2.314 -0.6257 -1.4270  0.3509
 4960TIP3   OH236294   4.191   4.266  11.619  1.1110  0.2640 -0.3792
 4960TIP3    H136295   4.279   4.235  11.594  0.7104 -0.2236 -1.2245
 4960TIP3    H236296   4.140   4.258  11.538  0.9189  2.8956 -0.5686
 4961TIP3   OH236297   5.682   0.703   2.082  0.0480  0.4796 -0.6276
 4961TIP3    H136298   5.723   0.768   2.023 -0.0343  0.7171 -0.4238
 4961TIP3    H236299   5.715   0.726   2.169 -2.3475  2.1540 -0.1042
 4962TIP3   OH236300   6.067   2.593   5.264 -0.3858  0.0221 -0.5071
 4962TIP3    H136301   6.097   2.542   5.189 -0.1422  0.3990 -0.6670
 4962TIP3    H236302   6.144   2.600   5.321 -0.9947 -1.6915  0.5945
 4963TIP3   OH236303   6.347   3.776  12.640 -0.0422  0.0093 -0.4541
 4963TIP3    H136304   6.326   3.683  12.633 -1.6083  0.3792 -0.8771
 4963TIP3    H236305   6.310   3.803  12.724  0.2367  0.3024 -0.4222
 4964TIP3   OH236306   4.017   2.600  13.800 -0.2150  0.4259  0.3588
 4964TIP3    H136307   4.031   2.549  13.880  0.0923 -1.5370 -0.9081
 4964TIP3    H236308   3.937   2.649  13.816 -0.5951 -0.5725  1.5873
 4965TIP3   OH236309   1.162   3.258  13.453 -0.3929 -0.3025  0.5242
 4965TIP3    H136310   1.108   3.293  13.524 -2.6225 -3.9539  0.7246
 4965TIP3    H236311   1.108   3.191  13.413  1.8574 -0.1261 -3.0056
 4966TIP3   OH236312   0.105   0.100  14.595  0.1900 -0.8383 -0.1382
 4966TIP3    H136313   0.050   0.126  14.522 -1.4951 -0.5651  1.1869
 4966TIP3    H236314   0.110   0.177  14.651 -0.1961 -1.6314  1.0184
 4967TIP3   OH236315   2.759   0.938  13.575  0.7061  0.5443 -0.2529
 4967TIP3    H136316   2.775   0.855  13.531 -0.2193  1.8257 -3.1980
 4967TIP3    H236317   2.843   0.962  13.613  0.9066 -1.8396  0.8527
 4968TIP3   OH236318   5.749   0.876  13.674  0.1607  0.0354  0.5202
 4968TIP3    H136319   5.705   0.937  13.734 -1.2673 -0.0245 -0.4543
 4968TIP3    H236320   5.708   0.791  13.692 -0.5177  0.0791 -0.7584
 4969TIP3   OH236321   6.243   6.201  12.917 -0.0893 -0.1482 -0.4682
 4969TIP3    H136322   6.282   6.275  12.963  1.9818  0.1762 -2.6249
 4969TIP3    H236323   6.269   6.214  12.825 -1.5315 -2.3818 -1.2295
 4970TIP3   OH236324   2.414   6.718   2.635 -0.0371 -0.3346  0.4242
 4970TIP3    H136325   2.387   6.712   2.543 -0.9399  0.1591  0.6539
 4970TIP3    H236326   2.336   6.692   2.684  0.7780 -1.6976  1.0343
 4971TIP3   OH236327   4.357   1.919   4.601 -0.1657 -0.1532  0.2475
 4971TIP3    H136328   4.429   1.871   4.643  0.0068 -0.7090 -0.6539
 4971TIP3    H236329   4.281   1.902   4.656  0.2734 -0.0468  0.8848
 4972TIP3   OH236330   1.562   0.690  11.557  0.6442 -0.0605 -0.4626
 4972TIP3    H136331   1.537   0.738  11.478  0.3629 -0.8007 -0.8259
 4972TIP3    H236332   1.508   0.611  11.555  1.9513 -0.9604 -0.4720
 4973TIP3   OH236333   3.285   6.630   1.196 -0.1975  0.0756 -0.5582
 4973TIP3    H136334   3.324   6.575   1.128  1.1491 -0.8853  0.9813
 4973TIP3    H236335   3.198   6.593   1.210  0.2198 -0.8568 -0.4348
 4974TIP3   OH236336   1.758   2.254  16.408  0.2561 -0.2206  0.5328
 4974TIP3    H136337   1.677   2.272  16.361 -2.2745 -1.4854  4.1908
 4974TIP3    H236338   1.803   2.338  16.412  0.1000  0.0985 -3.2217
 4975TIP3   OH236339   4.040   4.067  12.080 -0.8269 -0.3755 -0.2012
 4975TIP3    H136340   3.962   4.102  12.122 -0.7124 -1.3706  0.8690
 4975TIP3    H236341   4.019   3.976  12.060 -0.2037 -0.4434 -0.5843
 4976TIP3   OH236342   1.855   3.706   1.435  0.4068 -0.2627 -0.4198
 4976TIP3    H136343   1.928   3.727   1.378  2.5979 -0.9802  2.0320
 4976TIP3    H236344   1.838   3.787   1.483  0.9377 -0.6651  0.4552
 4977TIP3   OH236345   1.868   0.330   2.337 -0.0886  0.5547  0.0648
 4977TIP3    H136346   1.935   0.358   2.399 -0.1510 -0.2553  0.5129
 4977TIP3    H236347   1.876   0.391   2.264  1.2759  0.3323  0.0141
 4978TIP3   OH236348   5.127   1.809   4.815 -0.1006  0.1982 -0.7816
 4978TIP3    H136349   5.066   1.761   4.871 -0.0871  1.0429 -0.0487
 4978TIP3    H236350   5.102   1.784   4.726 -0.4062 -0.7932 -0.4282
 4979TIP3   OH236351   3.385   3.483   3.299  0.0992 -0.3010 -0.1263
 4979TIP3    H136352   3.358   3.478   3.390 -0.5487 -0.7452 -0.3436
 4979TIP3    H236353   3.304   3.496   3.250  0.3141 -1.2347 -0.7407
 4980TIP3   OH236354   3.532   1.777  11.629 -1.0698  0.2713  0.0248
 4980TIP3    H136355   3.592   1.851  11.623 -0.1941 -0.4278  0.0907
 4980TIP3    H236356   3.546   1.743  11.718 -2.1116  0.5736  0.3061
 4981TIP3   OH236357   2.437   2.365  12.020  0.5498  0.0592 -0.2984
 4981TIP3    H136358   2.515   2.312  12.000  0.5430  0.0956 -0.4213
 4981TIP3    H236359   2.391   2.315  12.088  0.9470  0.2904  0.1440
 4982TIP3   OH236360   4.815   2.457  13.431 -0.5852  0.2472  0.0656
 4982TIP3    H136361   4.860   2.458  13.347  1.3495 -1.6146  1.0212
 4982TIP3    H236362   4.822   2.546  13.464 -0.7178  0.8119 -1.4262
 4983TIP3   OH236363   6.304   2.395  15.693  0.0121  0.9923 -0.0018
 4983TIP3    H136364   6.262   2.312  15.670 -1.0274  0.8916  2.1399
 4983TIP3    H236365   6.269   2.416  15.780  1.5590  2.8166  0.2046
 4984TIP3   OH236366   6.289   2.999  12.730 -0.4791 -0.1445 -0.5072
 4984TIP3    H136367   6.342   2.922  12.710 -1.6629 -1.1933  0.2874
 4984TIP3    H236368   6.233   2.971  12.803  1.5205  2.5990  2.1662
 4985TIP3   OH236369   2.104   3.265   6.686 -0.2843  0.0373  0.6446
 4985TIP3    H136370   2.156   3.189   6.711 -1.2029 -0.1849  1.9612
 4985TIP3    H236371   2.040   3.230   6.623  0.7294  0.1789 -0.4670
 4986TIP3   OH236372   4.595   6.239   6.197 -0.3398 -0.2773  0.2152
 4986TIP3    H136373   4.521   6.292   6.226 -1.2266 -1.3856  0.0356
 4986TIP3    H236374   4.630   6.201   6.278  1.1152  1.5913  0.4910
 4987TIP3   OH236375   6.315   5.129   1.817 -0.0449 -0.0170  0.0557
 4987TIP3    H136376   6.284   5.217   1.841 -1.9565 -0.5480 -0.3729
 4987TIP3    H236377   6.284   5.073   1.888  1.7826 -0.2566  0.6879
 4988TIP3   OH236378   0.752   4.751   2.402  1.1141 -0.6881 -0.8152
 4988TIP3    H136379   0.706   4.690   2.459  0.4725 -1.1194 -1.7844
 4988TIP3    H236380   0.805   4.804   2.462 -0.4020 -0.3779  0.2960
 4989TIP3   OH236381   5.146   3.101   3.576  0.7345 -0.6145 -0.2261
 4989TIP3    H136382   5.125   3.192   3.596  1.3407 -0.6322  0.5154
 4989TIP3    H236383   5.209   3.106   3.504  3.4885 -0.2674  2.0678
 4990TIP3   OH236384   0.971   5.884  15.590 -0.0392  0.1775 -0.1706
 4990TIP3    H136385   1.037   5.952  15.577 -2.0359  2.4182  1.1822
 4990TIP3    H236386   1.014   5.820  15.647  1.0110  1.5657  0.6240
 4991TIP3   OH236387   3.221   1.983   0.850 -0.0777  0.4209 -0.1382
 4991TIP3    H136388   3.164   2.005   0.776 -0.5102 -0.2862 -0.0265
 4991TIP3    H236389   3.289   1.928   0.812 -0.4330 -0.1395  0.0201
 4992TIP3   OH236390   3.892   0.196  15.399  1.0716  0.1260 -0.0002
 4992TIP3    H136391   3.961   0.197  15.465  2.4223 -2.5756 -1.3114
 4992TIP3    H236392   3.896   0.108  15.361 -3.0972 -0.1318 -0.1044
 4993TIP3   OH236393   2.305   6.340   1.008 -0.3327  0.1113 -0.4518
 4993TIP3    H136394   2.237   6.273   1.010  0.2607 -0.5518 -2.0682
 4993TIP3    H236395   2.371   6.309   1.070 -0.8683  0.0936  0.1183
 4994TIP3   OH236396   3.323   3.210   3.205  0.4234  0.2323  0.0686
 4994TIP3    H136397   3.290   3.264   3.133 -0.3966  0.2282  0.4480
 4994TIP3    H236398   3.302   3.120   3.178  1.5717  0.0970 -0.4481
 4995TIP3   OH236399   2.854   5.015   4.989 -0.1877  0.2668 -0.2619
 4995TIP3    H136400   2.887   4.925   4.987 -0.3798  0.2052 -0.8782
 4995TIP3    H236401   2.759   5.006   4.984 -0.1933  0.5129 -0.5889
 4996TIP3   OH236402   4.181   1.437  14.889 -0.1496  0.1058 -0.4133
 4996TIP3    H136403   4.245   1.381  14.933 -0.4805  0.2270  0.2385
 4996TIP3    H236404   4.174   1.514  14.945 -1.6126 -0.3578  0.0738
 4997TIP3   OH236405   4.631   5.902   6.588  0.3046  0.0423  0.4976
 4997TIP3    H136406   4.654   5.888   6.496  0.1513 -0.4751  0.5393
 4997TIP3    H236407   4.544   5.864   6.597  0.9007 -1.1624  1.1938
 4998TIP3   OH236408   1.832   6.642   5.706 -0.2251  0.0227  0.2509
 4998TIP3    H136409   1.899   6.701   5.741  2.8184 -1.7058 -2.3505
 4998TIP3    H236410   1.838   6.564   5.760  1.3145 -0.8987 -1.2046
 4999TIP3   OH236411   0.450   1.816   3.461  0.6193 -0.1328 -0.6258
 4999TIP3    H136412   0.415   1.841   3.376  1.1560  0.6337 -0.6313
 4999TIP3    H236413   0.528   1.871   3.472  0.8590 -0.6069  0.1186
 5000TIP3   OH236414   4.508   1.405  11.862 -0.1356 -0.0727  0.1363
 5000TIP3    H136415   4.465   1.441  11.940  0.8875 -0.3345  0.8316
 5000TIP3    H236416   4.495   1.471  11.794 -0.9219  0.2155  0.5627
 5001TIP3   OH236417   0.597   3.103  14.741  0.6261 -0.0832 -0.6701
 5001TIP3    H136418   0.558   3.017  14.761  2.9548 -1.6546 -2.5711
 5001TIP3    H236419   0.524   3.154  14.705 -0.6740 -1.4154 -0.0086
 5002TIP3   OH236420   2.999   4.889   5.617 -0.6083 -0.5478 -0.1660
 5002TIP3    H136421   3.025   4.854   5.532 -1.1316 -0.8187 -0.2151
 5002TIP3    H236422   2.915   4.933   5.601 -0.0218  0.6276 -0.0772
 5003TIP3   OH236423   4.453   5.458   1.263  0.0394  0.2268 -0.3208
 5003TIP3    H136424   4.455   5.546   1.300  1.7270  0.3362 -0.6473
 5003TIP3    H236425   4.455   5.472   1.169 -0.8577 -0.1456 -0.4014
 5004TIP3   OH236426   5.126   1.044   4.822 -0.3415  0.3705 -0.3431
 5004TIP3    H136427   5.189   1.100   4.776 -0.4825  1.3369  0.6174
 5004TIP3    H236428   5.071   1.009   4.752 -0.4232  1.6442 -0.9495
 5005TIP3   OH236429   6.437   2.798  17.118  0.0501 -0.3283 -0.2081
 5005TIP3    H136430   6.475   2.806  17.206  0.6284  2.5974 -0.6689
 5005TIP3    H236431   6.479   2.868  17.068 -0.2454 -1.9811 -2.8434
 5006TIP3   OH236432   2.823   1.545  10.677  0.2185 -0.1894 -0.4852
 5006TIP3    H136433   2.810   1.628  10.724  2.1926  0.1643 -0.5036
 5006TIP3    H236434   2.849   1.484  10.746 -3.0597 -1.3204 -0.1717
 5007TIP3   OH236435   1.376   3.705  14.864  0.0392  0.5719  0.2043
 5007TIP3    H136436   1.296   3.685  14.815  1.0921 -1.2235 -0.8343
 5007TIP3    H236437   1.385   3.632  14.926  2.5144 -0.8974 -1.8049
 5008TIP3   OH236438   6.022   6.579   0.611 -0.2298 -0.0798 -0.6530
 5008TIP3    H136439   5.969   6.602   0.687 -0.0293 -0.6121 -0.3566
 5008TIP3    H236440   6.067   6.661   0.587  0.8052 -0.2573  0.6532
 5009TIP3   OH236441   6.747   2.746  11.389  1.1305  0.0998  0.3215
 5009TIP3    H136442   6.715   2.814  11.329 -0.1195 -0.9171 -0.1827
 5009TIP3    H236443   6.813   2.791  11.442 -0.8473  2.1961  1.1320
 5010TIP3   OH236444   2.106   5.753   1.936  0.1945  0.3973  0.3677
 5010TIP3    H136445   2.117   5.712   2.021  0.8013 -0.7355 -0.2404
 5010TIP3    H236446   2.194   5.758   1.900 -0.2991 -1.4277 -1.2126
 5011TIP3   OH236447   2.972   2.291   2.984 -0.0457  0.7720 -0.4705
 5011TIP3    H136448   2.933   2.283   2.897  0.1972 -0.5848 -0.4546
 5011TIP3    H236449   2.946   2.212   3.030 -1.2731  2.0717  1.1559
 5012TIP3   OH236450   4.472   3.101  15.193  0.4468  0.0593 -0.2580
 5012TIP3    H136451   4.472   3.043  15.117  1.0910 -2.1112  1.3215
 5012TIP3    H236452   4.381   3.130  15.202  0.0251 -1.0430 -0.8589
 5013TIP3   OH236453   0.475   2.735   5.702  0.1556  0.0605 -0.0798
 5013TIP3    H136454   0.454   2.683   5.624  0.9749 -0.2854 -0.0686
 5013TIP3    H236455   0.567   2.715   5.721  0.4221  1.3334  0.0500
 5014TIP3   OH236456   1.503   5.738   1.545  0.5618 -0.0390 -0.1193
 5014TIP3    H136457   1.536   5.728   1.456  0.0220 -1.3009 -0.1899
 5014TIP3    H236458   1.477   5.830   1.550 -0.4719 -0.2194 -1.6487
 5015TIP3   OH236459   2.368   4.251  16.005 -1.3171 -0.3462  0.4630
 5015TIP3    H136460   2.414   4.222  16.085 -1.4724 -2.2959 -0.1260
 5015TIP3    H236461   2.364   4.346  16.013 -0.9529 -0.4787  2.5887
 5016TIP3   OH236462   2.025   4.379  12.825  0.3624 -0.3396 -0.4573
 5016TIP3    H136463   1.976   4.413  12.750 -0.1678  1.8461  0.8405
 5016TIP3    H236464   1.959   4.340  12.882  0.5195 -0.1493 -0.1450
 5017TIP3   OH236465   3.006   5.907  16.079  0.3846 -0.1089  0.3237
 5017TIP3    H136466   3.047   5.823  16.098 -2.3912 -1.0637  2.5818
 5017TIP3    H236467   3.042   5.967  16.145  1.2266  0.0934 -0.3186
 5018TIP3   OH236468   6.410   5.174  15.479  0.0667 -0.1531  0.0860
 5018TIP3    H136469   6.438   5.243  15.419 -1.1584  1.0790  0.8989
 5018TIP3    H236470   6.446   5.094  15.442 -1.3794  0.4762 -2.7599
 5019TIP3   OH236471   5.573   0.691   1.041 -0.1590  0.8219  0.0484
 5019TIP3    H136472   5.661   0.703   1.005  0.7817  1.0043  2.2569
 5019TIP3    H236473   5.571   0.751   1.116 -1.2349 -1.0235  1.5334
 5020TIP3   OH236474   2.568   5.818   2.563 -0.4336  0.0133  0.1217
 5020TIP3    H136475   2.535   5.757   2.497  0.2106 -0.8885  0.6290
 5020TIP3    H236476   2.493   5.875   2.582 -0.8657 -0.2437 -0.7779
 5021TIP3   OH236477   1.720   2.517  11.205 -0.3445 -0.2970 -0.2394
 5021TIP3    H136478   1.737   2.449  11.140  1.0598 -1.3802  1.2330
 5021TIP3    H236479   1.792   2.579  11.195 -0.5255 -0.0826 -0.2128
 5022TIP3   OH236480   5.585   3.568  11.308 -0.2457 -0.1324 -0.0958
 5022TIP3    H136481   5.547   3.632  11.247  0.6778  1.3190  0.8041
 5022TIP3    H236482   5.672   3.604  11.327  0.3050 -1.7062  0.3888
 5023TIP3   OH236483   1.331   4.140  11.266 -0.2098 -0.3556  0.4166
 5023TIP3    H136484   1.351   4.215  11.210  0.1916 -1.0156 -0.3388
 5023TIP3    H236485   1.416   4.113  11.301 -0.1809 -1.2181 -0.2988
 5024TIP3   OH236486   3.928   0.245   3.922  0.2535  0.1666 -0.2142
 5024TIP3    H136487   3.930   0.304   3.998 -1.3241 -0.9726  0.7618
 5024TIP3    H236488   3.836   0.241   3.898  0.1985 -2.5601  0.2975
 5025TIP3   OH236489   5.262   4.800  12.459  0.1904  0.3188 -0.0904
 5025TIP3    H136490   5.216   4.836  12.535  0.1465  1.6173 -0.7248
 5025TIP3    H236491   5.320   4.733  12.495  2.9547  3.4869  1.5612
 5026TIP3   OH236492   6.459   1.277   0.070  0.1338  0.6635 -0.0918
 5026TIP3    H136493   6.537   1.230   0.043 -0.8527 -0.6732 -0.6575
 5026TIP3    H236494   6.438   1.241   0.157 -0.9233 -0.3499 -0.7501
 5027TIP3   OH236495   0.994   0.761  13.733 -0.1210 -0.0798 -0.2130
 5027TIP3    H136496   0.907   0.779  13.769 -0.2227 -0.5276 -0.2316
 5027TIP3    H236497   0.989   0.670  13.704  0.3125 -0.0627 -0.3378
 5028TIP3   OH236498   2.143   6.291  16.337  0.2023 -0.6893 -0.3740
 5028TIP3    H136499   2.206   6.226  16.370  1.4545  0.9167  0.4957
 5028TIP3    H236500   2.198   6.361  16.302 -1.1300  0.1070 -0.9047
 5029TIP3   OH236501   0.418   0.786  14.467  0.1365  0.4530 -0.2803
 5029TIP3    H136502   0.394   0.877  14.448  0.8279  0.3283 -1.9037
 5029TIP3    H236503   0.476   0.791  14.542  1.1127  1.4915 -1.0793
 5030TIP3   OH236504   4.579   3.268   2.803 -0.1593 -0.1146 -0.4213
 5030TIP3    H136505   4.556   3.332   2.735 -1.9938 -1.3687 -1.0322
 5030TIP3    H236506   4.558   3.312   2.885 -0.5445  0.4061 -0.7974
 5031TIP3   OH236507   4.251   1.222  16.440 -0.5153  0.0685  0.0479
 5031TIP3    H136508   4.156   1.225  16.436 -0.4383 -0.2593 -2.6201
 5031TIP3    H236509   4.271   1.136  16.475 -1.1899 -0.0580  0.1219
 5032TIP3   OH236510   5.809   2.726  14.756  0.1849  0.1454 -0.6712
 5032TIP3    H136511   5.793   2.805  14.808 -1.2241 -0.5868  0.0324
 5032TIP3    H236512   5.903   2.711  14.764  0.3979  1.4878 -0.4444
 5033TIP3   OH236513   6.134   0.158  16.995 -0.3477 -0.2286 -0.2148
 5033TIP3    H136514   6.187   0.231  17.029 -1.1017 -0.0938  0.6783
 5033TIP3    H236515   6.068   0.200  16.940  1.1458 -0.4771 -2.2629
 5034TIP3   OH236516   0.552   2.307  11.179  0.3705  0.2147  0.1203
 5034TIP3    H136517   0.611   2.360  11.125 -0.0262  0.3447 -0.1866
 5034TIP3    H236518   0.605   2.232  11.204  1.1081  1.0198  1.0112
 5035TIP3   OH236519   6.486   5.679   4.414  0.3309 -0.2959 -0.2631
 5035TIP3    H136520   6.493   5.658   4.507 -0.9728  1.1648  0.1918
 5035TIP3    H236521   6.499   5.596   4.369  1.7712 -0.8701  1.1840
 5036TIP3   OH236522   1.229   3.577   2.816  0.2127  0.0802  0.3981
 5036TIP3    H136523   1.178   3.553   2.894 -1.1768 -0.0199 -0.5302
 5036TIP3    H236524   1.199   3.666   2.795  0.0737 -0.1634 -0.4369
 5037TIP3   OH236525   4.945   1.647   4.957 -0.0048 -0.2926  0.0740
 5037TIP3    H136526   4.933   1.559   4.920 -2.4592  0.2757 -0.5991
 5037TIP3    H236527   4.880   1.653   5.026 -0.0528  1.0992 -0.0751
 5038TIP3   OH236528   3.694   3.523  16.859 -0.1551  0.2145  0.2004
 5038TIP3    H136529   3.762   3.463  16.890  0.7156  0.1487 -1.7311
 5038TIP3    H236530   3.658   3.562  16.938  0.5499 -1.4743  1.3767
 5039TIP3   OH236531   5.016   6.214   3.717  0.5268 -0.0880 -0.9628
 5039TIP3    H136532   5.028   6.305   3.690 -1.1710 -0.0637 -1.6583
 5039TIP3    H236533   5.013   6.218   3.813 -4.0279  1.2055 -1.0794
 5040TIP3   OH236534   5.439   0.382  13.425  0.6864 -0.1068  0.5393
 5040TIP3    H136535   5.495   0.307  13.446 -0.6675 -1.3245 -0.1548
 5040TIP3    H236536   5.478   0.455  13.474  2.1050 -1.2154  1.1008
 5041TIP3   OH236537   0.167   3.300   1.372 -0.2090  0.2408  0.9930
 5041TIP3    H136538   0.099   3.288   1.438  0.5382  0.3727  1.8007
 5041TIP3    H236539   0.185   3.394   1.374 -0.3416  0.2747  0.4527
 5042TIP3   OH236540   2.533   1.281  13.858 -0.2004  0.2698  0.2851
 5042TIP3    H136541   2.476   1.272  13.782  0.0905  1.2547 -0.0468
 5042TIP3    H236542   2.579   1.363  13.845  0.6885 -0.1046  0.9668
 5043TIP3   OH236543   1.554   4.134   0.632  0.3575  0.2156 -0.3111
 5043TIP3    H136544   1.571   4.131   0.538  0.4046 -0.5373 -0.2843
 5043TIP3    H236545   1.515   4.049   0.652 -0.5381  0.7280  0.1860
 5044TIP3   OH236546   2.560   1.330   5.468 -0.2583 -0.2121 -0.3794
 5044TIP3    H136547   2.496   1.305   5.401  0.7960 -0.7207 -1.2161
 5044TIP3    H236548   2.545   1.269   5.540 -0.1836 -0.8615 -0.9040
 5045TIP3   OH236549   5.764   3.119   1.574 -0.2211 -0.2220 -0.0367
 5045TIP3    H136550   5.718   3.060   1.635  0.6994 -1.3051 -0.3801
 5045TIP3    H236551   5.802   3.061   1.508  1.3886  0.6918  0.0665
 5046TIP3   OH236552   3.568   2.066   6.554  0.1834 -0.3295 -0.5199
 5046TIP3    H136553   3.544   2.113   6.473 -0.0025 -0.6319 -0.6405
 5046TIP3    H236554   3.569   2.134   6.621  0.5398 -0.0409 -0.8163
 5047TIP3   OH236555   5.256   4.107   0.731 -0.0758  0.2707 -0.0643
 5047TIP3    H136556   5.265   4.123   0.825 -0.5807 -2.1197  0.4123
 5047TIP3    H236557   5.162   4.091   0.718  0.1896 -0.7521 -0.7617
 5048TIP3   OH236558   6.648   3.990   2.195  0.2707  0.0356  0.3615
 5048TIP3    H136559   6.699   4.031   2.126 -0.7780 -0.2021 -0.5797
 5048TIP3    H236560   6.596   3.924   2.150  2.1001 -2.5160  1.8771
 5049TIP3   OH236561   6.213   5.906   4.068  0.7098  0.1866  0.0787
 5049TIP3    H136562   6.284   5.919   4.132 -0.4172  0.5504  1.2745
 5049TIP3    H236563   6.133   5.915   4.119 -0.2103 -2.4658 -0.8096
 5050TIP3   OH236564   4.308   2.065  14.905 -0.1640  0.3331 -0.1442
 5050TIP3    H136565   4.343   2.120  14.975  2.7699  0.1981 -1.3913
 5050TIP3    H236566   4.349   1.979  14.919 -0.1982  0.0731 -1.4973
 5051TIP3   OH236567   5.041   3.356   3.999  0.0950  1.0695  0.2374
 5051TIP3    H136568   5.053   3.359   3.904 -1.6355 -3.9707 -0.2972
 5051TIP3    H236569   4.952   3.389   4.012  0.7378  2.8384  0.2763
 5052TIP3   OH236570   3.553   6.437  17.169 -0.0726 -0.0390 -0.6049
 5052TIP3    H136571   3.575   6.521  17.209  1.2010  0.9625 -3.2963
 5052TIP3    H236572   3.543   6.377  17.243  0.1093  2.2024  1.2952
 5053TIP3   OH236573   3.063   5.466   3.171 -0.1562 -0.2036 -0.1262
 5053TIP3    H136574   3.034   5.376   3.153 -0.1844 -0.3765  0.7914
 5053TIP3    H236575   3.131   5.482   3.105 -0.8120 -0.5633 -0.8969
 5054TIP3   OH236576   3.413   3.234  11.948 -0.2429  0.6525  0.0985
 5054TIP3    H136577   3.426   3.166  12.014 -0.9841  0.9462  0.5626
 5054TIP3    H236578   3.339   3.286  11.982 -1.8627 -0.3181 -1.8750
 5055TIP3   OH236579   3.819   6.328  13.133 -0.6792 -0.4339 -1.6111
 5055TIP3    H136580   3.826   6.406  13.188 -0.8630 -2.1270  0.8948
 5055TIP3    H236581   3.891   6.336  13.070 -0.9080  1.8956 -1.6176
 5056TIP3   OH236582   4.474   5.723   5.918 -0.4358  0.2172 -0.8154
 5056TIP3    H136583   4.501   5.659   5.983  1.3522  0.1644 -1.5560
 5056TIP3    H236584   4.408   5.678   5.865  0.8141 -1.0458 -1.3361
 5057TIP3   OH236585   2.992   6.759   2.504  0.1122 -0.1581 -0.2397
 5057TIP3    H136586   3.043   6.751   2.424  1.4194 -2.0861  0.7446
 5057TIP3    H236587   2.913   6.708   2.488 -0.3461  0.7277 -0.8419
 5058TIP3   OH236588   0.555   1.443   1.356  0.5611  0.1252  0.3202
 5058TIP3    H136589   0.547   1.371   1.294  0.3425 -0.4867  1.0559
 5058TIP3    H236590   0.624   1.417   1.416 -1.6550 -0.9376  2.5107
 5059TIP3   OH236591   3.786   3.809  14.618  0.0617 -0.9185 -0.3054
 5059TIP3    H136592   3.795   3.771  14.706 -0.4884 -0.4832 -0.0580
 5059TIP3    H236593   3.709   3.766  14.581 -0.6459  0.0308  0.0275
 5060TIP3   OH236594   4.742   1.151   1.479  0.3215  0.5171  0.0055
 5060TIP3    H136595   4.779   1.168   1.392 -0.2240  0.5838 -0.2191
 5060TIP3    H236596   4.814   1.166   1.540  0.8245  0.0407 -0.4709
 5061TIP3   OH236597   6.411   0.700  10.598  0.2887  0.2470  0.3274
 5061TIP3    H136598   6.411   0.768  10.665 -0.2836 -1.6454  2.2979
 5061TIP3    H236599   6.502   0.670  10.593 -0.0727 -1.2058  1.9653
 5062TIP3   OH236600   3.349   2.947  15.566  0.0788  0.3780 -0.0552
 5062TIP3    H136601   3.279   3.011  15.561 -0.6049 -0.3704 -0.0834
 5062TIP3    H236602   3.327   2.892  15.641 -0.4810 -1.1650 -1.3315
 5063TIP3   OH236603   2.231   5.639  16.756  0.3245 -0.5215 -0.0435
 5063TIP3    H136604   2.273   5.553  16.757  1.1875 -0.1021  0.3381
 5063TIP3    H236605   2.300   5.700  16.783 -0.3415  0.2621 -0.0849
 5064TIP3   OH236606   3.516   3.370   1.839 -0.8755  0.3836  0.2128
 5064TIP3    H136607   3.514   3.441   1.775  0.0740  2.4392  2.3975
 5064TIP3    H236608   3.607   3.342   1.839 -0.6179  1.2110  1.5301
 5065TIP3   OH236609   1.061   5.649   0.590 -0.0830 -0.5249  0.8340
 5065TIP3    H136610   1.134   5.638   0.650  0.6975 -0.0473 -0.0120
 5065TIP3    H236611   0.993   5.691   0.642  0.6870  0.1590  1.2958
 5066TIP3   OH236612   2.625   5.203   0.292  0.3758 -0.2381 -0.2938
 5066TIP3    H136613   2.650   5.111   0.282  0.8591  0.1810 -3.4111
 5066TIP3    H236614   2.529   5.202   0.290  0.3685 -0.7080  0.1568
 5067TIP3   OH236615   6.488   4.363   3.735 -0.3895  0.5473  1.2128
 5067TIP3    H136616   6.527   4.364   3.647  0.4123  0.5997  1.5627
 5067TIP3    H236617   6.398   4.391   3.722 -0.6712 -0.7549  0.2094
 5068TIP3   OH236618   3.468   5.175  17.219  0.0733 -0.2100 -0.2472
 5068TIP3    H136619   3.531   5.112  17.254 -0.0959 -0.6515 -0.7356
 5068TIP3    H236620   3.492   5.185  17.127  1.9566  2.6929  0.4802
 5069TIP3   OH236621   3.489   1.891   0.774  0.4138 -0.1733  0.0247
 5069TIP3    H136622   3.445   1.814   0.738  3.1334 -1.1906 -1.2092
 5069TIP3    H236623   3.548   1.857   0.840  0.8410  0.9673  0.2388
 5070TIP3   OH236624   1.449   1.678  15.448  0.5064 -0.2571  0.1052
 5070TIP3    H136625   1.427   1.674  15.355 -1.8415  0.1062  0.6204
 5070TIP3    H236626   1.454   1.587  15.476  0.7044 -0.3583 -0.2555
 5071TIP3   OH236627   2.284   0.429   6.070 -0.0031 -0.3655 -0.0196
 5071TIP3    H136628   2.284   0.348   6.122 -0.9698  0.9558  2.1283
 5071TIP3    H236629   2.358   0.478   6.105 -0.0520  0.1117 -0.6002
 5072TIP3   OH236630   4.137   3.636  10.755 -0.1367  0.4283 -0.3660
 5072TIP3    H136631   4.041   3.631  10.762 -0.0837  0.7652  0.6639
 5072TIP3    H236632   4.164   3.681  10.835  1.0326 -1.4763  0.3458
 5073TIP3   OH236633   4.510   2.249  15.003  0.1462 -0.2827  0.4504
 5073TIP3    H136634   4.485   2.235  15.094  0.6317 -1.0691  0.4618
 5073TIP3    H236635   4.605   2.236  15.001 -0.3505 -4.4839 -0.9231
 5074TIP3   OH236636   2.800   4.520  14.233  0.4971  0.0894  0.2729
 5074TIP3    H136637   2.737   4.576  14.278  0.7338  1.1829 -0.7175
 5074TIP3    H236638   2.754   4.490  14.154  0.6806 -0.3749  0.3377
 5075TIP3   OH236639   2.737   2.638  15.444 -0.2794 -0.0296 -0.2351
 5075TIP3    H136640   2.678   2.591  15.385  1.1138 -0.3596 -1.3877
 5075TIP3    H236641   2.817   2.586  15.445  0.3698  0.9673  0.4784
 5076TIP3   OH236642   1.819   2.103  11.577 -0.4867 -0.7228  0.0030
 5076TIP3    H136643   1.765   2.093  11.498 -1.4486 -0.5380  0.6364
 5076TIP3    H236644   1.882   2.031  11.572  0.9795  0.6054 -2.1221
 5077TIP3   OH236645   0.649   2.044   3.402 -0.0105 -0.3021  0.0233
 5077TIP3    H136646   0.652   2.094   3.484 -2.5007 -1.1003  0.6381
 5077TIP3    H236647   0.578   2.085   3.352  0.3318 -0.9477 -0.9978
 5078TIP3   OH236648   4.552   0.025   0.634 -0.7363  0.0961  0.0812
 5078TIP3    H136649   4.562   0.081   0.557 -1.9172 -1.1303 -0.9909
 5078TIP3    H236650   4.572  -0.063   0.603  0.0800 -0.2234  1.5026
 5079TIP3   OH236651   1.774   5.003   1.651 -0.2945 -0.2213  0.3591
 5079TIP3    H136652   1.699   5.060   1.668 -1.1596 -1.3159  0.2694
 5079TIP3    H236653   1.846   5.043   1.700 -0.6612  1.4219 -0.3943
 5080TIP3   OH236654   3.070   0.886  12.121  1.2029  0.1201  0.0591
 5080TIP3    H136655   3.089   0.932  12.203  1.1808 -1.0863  0.7657
 5080TIP3    H236656   3.000   0.825  12.144 -1.7234  2.6206 -1.8739
 5081TIP3   OH236657   4.850   6.571  16.948 -0.2211 -0.4949 -0.0112
 5081TIP3    H136658   4.778   6.534  16.896  1.9368 -3.1346 -1.1916
 5081TIP3    H236659   4.850   6.521  17.029 -0.6502  0.5483  0.6523
 5082TIP3   OH236660   3.736   5.100   4.925 -0.1245 -0.2698 -0.7919
 5082TIP3    H136661   3.663   5.063   4.876 -0.5581 -0.9824  0.3651
 5082TIP3    H236662   3.696   5.136   5.005  0.8584 -1.3308  0.1987
 5083TIP3   OH236663   2.566   1.270   6.337  0.1348 -0.1897 -0.0174
 5083TIP3    H136664   2.499   1.219   6.293  0.0533  0.2499 -0.4038
 5083TIP3    H236665   2.624   1.204   6.377  1.4052 -0.6574 -2.5387
 5084TIP3   OH236666   0.404   3.101   2.318  0.3806 -0.3123 -0.1425
 5084TIP3    H136667   0.398   3.154   2.239  0.1335  0.9672  0.7085
 5084TIP3    H236668   0.393   3.011   2.288 -0.3137  0.2049 -1.4783
 5085TIP3   OH236669   6.526   0.835   1.837  0.2036  0.3743  0.3193
 5085TIP3    H136670   6.558   0.749   1.864  2.5349  0.9346 -0.5339
 5085TIP3    H236671   6.543   0.892   1.912  0.5982  0.5227  0.1204
 5086TIP3   OH236672   1.005   4.153   4.336  0.0921  0.4238 -0.2623
 5086TIP3    H136673   1.034   4.238   4.300  2.1264  0.4891  1.4684
 5086TIP3    H236674   1.085   4.102   4.343 -0.7565 -0.7257  1.1602
 5087TIP3   OH236675   1.794   2.560   1.305 -0.4173 -0.3326 -0.3420
 5087TIP3    H136676   1.786   2.629   1.371  1.5257 -1.1692  0.7916
 5087TIP3    H236677   1.888   2.547   1.294 -0.7258 -0.9816 -2.4835
 5088TIP3   OH236678   0.906   0.291  12.595 -0.4179 -0.2949 -0.4852
 5088TIP3    H136679   0.925   0.252  12.510 -0.3776 -0.3769 -0.4383
 5088TIP3    H236680   0.933   0.382  12.586 -0.8266 -0.1954 -0.7019
 5089TIP3   OH236681   2.509   6.540  11.438 -0.0341  0.4898  0.0952
 5089TIP3    H136682   2.527   6.603  11.368  0.5527 -1.1903 -1.3147
 5089TIP3    H236683   2.594   6.502  11.458 -0.2688  0.6541  1.4673
 5090TIP3   OH236684   4.865   4.663   5.816  0.1349 -0.5828 -0.2052
 5090TIP3    H136685   4.880   4.733   5.753  0.2158 -0.7297 -0.3509
 5090TIP3    H236686   4.861   4.583   5.763 -0.0729 -0.6731 -0.0531
 5091TIP3   OH236687   5.181   1.729  14.814 -0.9325  0.0881 -0.0385
 5091TIP3    H136688   5.142   1.643  14.830 -0.3525 -0.2845 -0.6111
 5091TIP3    H236689   5.272   1.711  14.792 -1.3729  0.6737 -2.4443
 5092TIP3   OH236690   5.238   6.352  16.544  0.5202 -0.3517  0.1051
 5092TIP3    H136691   5.280   6.267  16.556  0.2325 -0.4367  0.5468
 5092TIP3    H236692   5.283   6.392  16.470  2.2228  0.0702  1.3316
 5093TIP3   OH236693   0.014   4.629   0.737 -0.0731  0.1673 -0.0073
 5093TIP3    H136694   0.028   4.574   0.814  1.3225  1.1176  0.4362
 5093TIP3    H236695  -0.080   4.644   0.735 -0.3676 -1.5709  0.3219
 5094TIP3   OH236696   0.336   1.043   3.054  0.0645 -0.0627 -0.1594
 5094TIP3    H136697   0.341   1.021   3.147  0.3412  0.1907 -0.1161
 5094TIP3    H236698   0.279   1.120   3.051 -0.6822 -0.6103 -0.2862
 5095TIP3   OH236699   1.102   5.748   5.448  0.2919 -0.5060 -0.3330
 5095TIP3    H136700   1.197   5.755   5.449  0.3307 -1.0060 -0.3169
 5095TIP3    H236701   1.081   5.720   5.359  0.0052  1.6486 -0.9598
 5096TIP3   OH236702   1.764   0.349  14.321 -0.2237 -0.3780  0.2840
 5096TIP3    H136703   1.805   0.422  14.367  2.1923 -0.8058 -1.0963
 5096TIP3    H236704   1.676   0.381  14.300  0.8631  2.2670 -0.5317
 5097TIP3   OH236705   6.634   3.531  11.220 -0.2454  0.0847  0.7787
 5097TIP3    H136706   6.690   3.470  11.173 -1.7146  1.2636 -2.6742
 5097TIP3    H236707   6.640   3.612  11.170 -3.3178  0.8486  1.5346
 5098TIP3   OH236708   2.643   4.305  15.466  0.2933 -0.1945  0.3543
 5098TIP3    H136709   2.661   4.321  15.374  0.2816 -0.4231  0.3126
 5098TIP3    H236710   2.579   4.234  15.467  0.4932 -0.3741  0.5457
 5099TIP3   OH236711   0.678   5.714  13.806  0.0421  0.0209  0.0562
 5099TIP3    H136712   0.747   5.704  13.741  1.3622 -0.3703  1.4870
 5099TIP3    H236713   0.608   5.656  13.776  0.7096 -0.2843 -0.9320
 5100TIP3   OH236714   3.274   3.280   6.226 -0.4022 -0.0655 -0.4935
 5100TIP3    H136715   3.222   3.347   6.270 -0.5006  0.2110 -1.0276
 5100TIP3    H236716   3.362   3.316   6.221 -0.3145 -0.2407 -0.2164
 5101TIP3   OH236717   2.889   2.882   2.972  0.1811 -0.0597 -0.6052
 5101TIP3    H136718   2.897   2.816   2.903  1.5070 -0.8734  0.3164
 5101TIP3    H236719   2.948   2.952   2.945 -0.4078  0.2822 -1.0282
 5102TIP3   OH236720   3.580   5.308   6.177 -0.2005  0.1873  0.0874
 5102TIP3    H136721   3.630   5.278   6.100 -0.5697 -0.1371 -0.0243
 5102TIP3    H236722   3.604   5.246   6.246  0.6289  0.8588  0.4139
 5103TIP3   OH236723   4.873   5.669   0.420  0.7630 -0.1697  0.5266
 5103TIP3    H136724   4.901   5.651   0.330  0.5644 -0.0221  0.4332
 5103TIP3    H236725   4.866   5.583   0.461  0.7845 -0.2428  0.3789
 5104TIP3   OH236726   2.843   0.309  13.547 -0.4596  0.5324  0.3200
 5104TIP3    H136727   2.886   0.343  13.469  1.1284 -0.2405  0.8198
 5104TIP3    H236728   2.760   0.355  13.552  0.0017  1.5333 -1.1000
 5105TIP3   OH236729   3.345   0.083  14.355  0.0664  0.4150  0.6088
 5105TIP3    H136730   3.422   0.027  14.349 -1.1688 -1.3591  0.8503
 5105TIP3    H236731   3.342   0.109  14.447  1.6800  2.4269  0.1198
 5106TIP3   OH236732   1.276   3.005   4.980  1.0279 -0.2988 -0.7161
 5106TIP3    H136733   1.290   3.053   5.061 -2.8771  2.0103 -1.2613
 5106TIP3    H236734   1.245   2.919   5.008  1.6505 -0.2170  0.2437
 5107TIP3   OH236735   3.493   5.607   0.245  0.6294 -0.0296 -0.4290
 5107TIP3    H136736   3.518   5.655   0.324 -2.4928 -0.1377  0.7072
 5107TIP3    H236737   3.471   5.674   0.181 -0.7064  0.0767  0.1306
 5108TIP3   OH236738   3.598   1.105   5.183 -0.7416  0.2711  0.5862
 5108TIP3    H136739   3.611   1.014   5.207 -1.5876  0.1090  0.4548
 5108TIP3    H236740   3.677   1.129   5.135  0.0962  0.0283  1.8450
 5109TIP3   OH236741   4.865   4.729   2.881 -0.5959 -0.7873  0.3642
 5109TIP3    H136742   4.854   4.646   2.928 -0.9899 -0.3104  1.1184
 5109TIP3    H236743   4.943   4.768   2.920 -0.2507 -0.9267 -0.1818
 5110TIP3   OH236744   1.694   4.433   3.374  0.4261 -0.2416  0.2986
 5110TIP3    H136745   1.610   4.477   3.379  1.3753  1.7123 -0.3833
 5110TIP3    H236746   1.726   4.434   3.465 -0.9317 -2.3672  0.8338
 5111TIP3   OH236747   5.692   5.253  16.466  0.0422  0.6121 -0.2485
 5111TIP3    H136748   5.669   5.188  16.532  3.7546  0.0936  0.6260
 5111TIP3    H236749   5.705   5.334  16.516 -3.6894  1.9252 -1.2281
 5112TIP3   OH236750   3.634   5.772  17.049  0.5445 -0.2410 -0.3573
 5112TIP3    H136751   3.600   5.722  16.974  1.6748  0.1398 -1.1383
 5112TIP3    H236752   3.684   5.708  17.100  0.2774 -0.3665 -0.2530
 5113TIP3   OH236753   3.106   3.051   2.916  0.1359 -0.3918 -0.5990
 5113TIP3    H136754   3.135   3.075   3.005  0.3272 -1.1028 -0.4699
 5113TIP3    H236755   3.123   3.130   2.864  0.2991 -0.0708 -0.0670
 5114TIP3   OH236756   1.536   0.443   0.106  0.5872  0.1746 -0.4390
 5114TIP3    H136757   1.577   0.510   0.160 -0.1286 -0.6376  1.1926
 5114TIP3    H236758   1.560   0.464   0.016 -0.0410  2.8794  0.0072
 5115TIP3   OH236759   5.499   2.543   5.808 -0.1761 -0.1384 -0.4825
 5115TIP3    H136760   5.564   2.473   5.815 -0.3687 -0.1747  1.1405
 5115TIP3    H236761   5.417   2.497   5.788 -0.0374 -0.2519 -0.7903
 5116TIP3   OH236762   2.181   2.644   6.700 -0.1541  0.0630 -0.1023
 5116TIP3    H136763   2.119   2.619   6.632  0.0535  2.2854 -1.1397
 5116TIP3    H236764   2.127   2.676   6.772 -0.3535 -1.8101  0.5933
 5117TIP3   OH236765   1.635   3.063  13.107  0.0347 -0.2244  0.3040
 5117TIP3    H136766   1.714   3.009  13.103  0.6430  0.7458 -1.1394
 5117TIP3    H236767   1.660   3.145  13.064 -1.0803  0.9657  1.8997
 5118TIP3   OH236768   5.714   5.836   2.394 -0.6136  0.0465  0.0888
 5118TIP3    H136769   5.805   5.840   2.424 -0.7470  1.0693  0.3857
 5118TIP3    H236770   5.705   5.911   2.335 -1.4766  0.4154  0.6800
 5119TIP3   OH236771   6.299   4.882  14.228  0.4409  0.4196 -0.2900
 5119TIP3    H136772   6.361   4.813  14.205 -0.7000 -0.3916 -0.9922
 5119TIP3    H236773   6.257   4.851  14.309  0.4403  0.6313 -0.2082
 5120TIP3   OH236774   3.636   1.127  11.267 -0.2222  0.3506 -0.0670
 5120TIP3    H136775   3.557   1.144  11.216  0.6168  0.4172 -1.3779
 5120TIP3    H236776   3.708   1.141  11.205  0.8201  0.3818  1.1248
 5121TIP3   OH236777   5.846   0.054  15.905 -0.6364  0.8688 -0.1686
 5121TIP3    H136778   5.885   0.127  15.858 -1.2514 -0.0609 -2.1568
 5121TIP3    H236779   5.863  -0.023  15.851 -0.5127 -0.3959  1.5935
 5122TIP3   OH236780   0.633   5.290  10.767  0.1376  0.7624 -0.0691
 5122TIP3    H136781   0.690   5.290  10.690 -0.8722  0.7324 -0.8274
 5122TIP3    H236782   0.693   5.297  10.841  1.1925 -0.2505 -0.8047
 5123TIP3   OH236783   4.055   0.699  15.503 -0.0662  0.3290  0.5147
 5123TIP3    H136784   3.966   0.699  15.467  0.6961 -1.6667 -1.4006
 5123TIP3    H236785   4.110   0.728  15.431  1.1534 -1.0195  0.8881
 5124TIP3   OH236786   1.409   2.390   3.723  0.0215 -0.1963  0.4365
 5124TIP3    H136787   1.501   2.371   3.740  0.7124  1.9059 -0.8365
 5124TIP3    H236788   1.377   2.313   3.676  0.6613 -1.6583  2.2742
 5125TIP3   OH236789   1.836   1.654  13.190 -0.3272  0.1054  0.9990
 5125TIP3    H136790   1.807   1.582  13.247  2.0311 -0.2634  1.7630
 5125TIP3    H236791   1.823   1.733  13.242 -2.0884  0.1776  0.4846
 5126TIP3   OH236792   5.170   1.681  11.351 -0.3306 -0.5354  0.4457
 5126TIP3    H136793   5.179   1.610  11.286  2.1306 -0.0207  0.1979
 5126TIP3    H236794   5.123   1.640  11.424  0.9149 -2.3997  0.2404
 5127TIP3   OH236795   2.465   5.849  15.937  0.2958  0.1775 -0.1742
 5127TIP3    H136796   2.444   5.831  16.028 -1.2545 -0.0046 -0.5449
 5127TIP3    H236797   2.407   5.791  15.887 -2.3357  3.6716 -1.3507
 5128TIP3   OH236798   6.748   2.283  11.715  0.2225  0.3057 -0.3035
 5128TIP3    H136799   6.756   2.301  11.621 -1.5947  0.0722 -0.5248
 5128TIP3    H236800   6.658   2.251  11.726 -0.1100  1.8268  1.7380
 5129TIP3   OH236801   5.188   0.124   5.542  0.2889  0.1330  0.1865
 5129TIP3    H136802   5.129   0.074   5.598  1.0092 -1.5071 -0.4675
 5129TIP3    H236803   5.133   0.150   5.468 -0.2735  0.9397  0.8858
 5130TIP3   OH236804   2.729   4.871  10.680 -0.1606  0.4600  0.4384
 5130TIP3    H136805   2.807   4.834  10.638 -0.4457  1.9845 -1.5050
 5130TIP3    H236806   2.762   4.947  10.727 -0.2131  0.1189  1.0277
 5131TIP3   OH236807   6.364   5.738   0.302  0.3856 -0.0960 -0.3410
 5131TIP3    H136808   6.460   5.747   0.304  0.4512 -0.4089 -1.7480
 5131TIP3    H236809   6.349   5.644   0.307  0.1873 -0.1168 -1.3186
 5132TIP3   OH236810   1.818   5.545  15.838  0.5232  0.2594  0.2984
 5132TIP3    H136811   1.860   5.459  15.848  2.0211  1.3014  3.7796
 5132TIP3    H236812   1.889   5.602  15.808  0.4063  0.9874  1.3927
 5133TIP3   OH236813   4.895   5.627   3.333 -0.9652  0.1378 -0.3754
 5133TIP3    H136814   4.867   5.664   3.250  0.6117  1.3962 -0.3829
 5133TIP3    H236815   4.904   5.703   3.391 -0.3600 -0.5325  0.4231
 5134TIP3   OH236816   3.850   4.762  10.496  0.2198  0.3211 -0.3945
 5134TIP3    H136817   3.827   4.688  10.552  0.7134  0.1334 -0.4348
 5134TIP3    H236818   3.766   4.799  10.469 -0.0251  1.0302  1.2820
 5135TIP3   OH236819   0.857   4.999   0.471  0.2101  0.8530  0.7097
 5135TIP3    H136820   0.858   5.018   0.378  2.0230  2.0314  0.9582
 5135TIP3    H236821   0.922   4.930   0.483 -1.5336 -0.8193  0.8177
 5136TIP3   OH236822   5.618   0.611  15.825 -0.2216  0.5861 -0.4174
 5136TIP3    H136823   5.561   0.588  15.899  1.5825  0.9329  1.1316
 5136TIP3    H236824   5.671   0.532  15.810  0.4267  1.0058 -0.3707
 5137TIP3   OH236825   1.627   2.033  15.711 -0.3079  0.3890 -0.0886
 5137TIP3    H136826   1.660   2.059  15.625  1.0793 -1.5709 -0.1740
 5137TIP3    H236827   1.612   1.939  15.704  0.3951  0.0885  1.9865
 5138TIP3   OH236828   6.357   4.197  15.167  0.2030 -0.1320  0.6376
 5138TIP3    H136829   6.342   4.250  15.088 -0.3261  0.7317  1.3006
 5138TIP3    H236830   6.349   4.107  15.137 -1.7800  0.2064  0.0196
 5139TIP3   OH236831   0.884   2.701  15.271  0.7383  0.1092 -0.8445
 5139TIP3    H136832   0.840   2.786  15.264  0.3783 -0.1283 -1.4870
 5139TIP3    H236833   0.922   2.687  15.184  0.8288 -0.3727 -0.7269
 5140TIP3   OH236834   5.258   5.280  14.874  0.0273 -0.3253  0.3490
 5140TIP3    H136835   5.223   5.193  14.891 -0.3706 -0.2242  0.0631
 5140TIP3    H236836   5.202   5.315  14.804 -0.4188  0.5265  1.1152
 5141TIP3   OH236837   2.220   0.692  13.919  0.5949 -0.0963  0.6353
 5141TIP3    H136838   2.305   0.689  13.963  0.3605 -2.0502  0.9925
 5141TIP3    H236839   2.241   0.710  13.828  1.3687 -0.3823  0.7533
 5142TIP3   OH236840   0.677   5.144  14.807 -0.5757 -0.0241  0.0794
 5142TIP3    H136841   0.682   5.198  14.886  1.5318 -0.8944  0.6029
 5142TIP3    H236842   0.689   5.054  14.840 -2.3840 -0.6604 -0.9422
 5143TIP3   OH236843   0.691   4.972  16.144  0.1256 -0.0143 -0.5762
 5143TIP3    H136844   0.692   4.972  16.049 -2.6310 -0.0497 -0.6303
 5143TIP3    H236845   0.723   4.885  16.168  0.3624 -0.1805 -1.4692
 5144TIP3   OH236846   6.386   4.551   0.025  0.4168 -0.3093  0.4457
 5144TIP3    H136847   6.464   4.510  -0.011  1.1963  2.4966 -1.2257
 5144TIP3    H236848   6.369   4.625  -0.033 -1.9376  0.6951  2.3288
 5145TIP3   OH236849   2.868   2.354   3.425  0.1238  0.3187  0.7635
 5145TIP3    H136850   2.875   2.304   3.506 -1.8029 -2.3084 -0.5835
 5145TIP3    H236851   2.774   2.360   3.408  0.4939  0.2532 -1.5636
 5146TIP3   OH236852   3.651   0.951  11.631  0.1434  0.2117 -0.0893
 5146TIP3    H136853   3.666   1.043  11.655  0.3427  0.0968  0.2336
 5146TIP3    H236854   3.739   0.913  11.628  0.1059  0.1742 -0.8094
 5147TIP3   OH236855   2.020   5.045   1.784 -0.2883  0.1443 -0.6649
 5147TIP3    H136856   2.109   5.081   1.784  0.6105 -2.0064 -1.7859
 5147TIP3    H236857   1.987   5.066   1.871  1.6924  0.0921  0.1412
 5148TIP3   OH236858   0.422   5.531  12.940  0.0314 -0.1362 -0.1810
 5148TIP3    H136859   0.487   5.590  12.902  0.2733 -0.5066 -0.3385
 5148TIP3    H236860   0.371   5.500  12.866  0.8174 -1.2439 -0.2732
 5149TIP3   OH236861   6.785   5.559   4.122  0.2093  0.3515 -0.5765
 5149TIP3    H136862   6.843   5.635   4.130  0.1312  0.3163  0.4456
 5149TIP3    H236863   6.828   5.490   4.171 -1.0063  0.5239  0.7662
 5150TIP3   OH236864   5.707   6.320  14.392  0.0501 -0.8072  0.3856
 5150TIP3    H136865   5.638   6.331  14.457 -0.3349  0.9233 -0.2691
 5150TIP3    H236866   5.788   6.314  14.443 -0.2084  0.8373  1.0378
 5151TIP3   OH236867   0.841   1.573  16.133 -0.3280  0.2812  0.3221
 5151TIP3    H136868   0.856   1.499  16.191  0.8962  0.0933 -0.2219
 5151TIP3    H236869   0.878   1.648  16.180  0.3914  0.1789 -0.0717
 5152TIP3   OH236870   1.981   6.626  12.335 -0.0315 -0.0755 -0.4550
 5152TIP3    H136871   2.062   6.665  12.368  0.3512 -1.2009 -0.0545
 5152TIP3    H236872   1.912   6.685  12.365  0.4600 -0.1905  0.9287
 5153TIP3   OH236873   2.804   6.187  16.550 -0.3061 -0.3217 -0.3486
 5153TIP3    H136874   2.818   6.159  16.460  0.1037  0.1255 -0.4214
 5153TIP3    H236875   2.756   6.269  16.543 -0.8138 -0.5966 -0.1466
 5154TIP3   OH236876   0.833   0.762  12.755  0.0298 -0.3609  0.1650
 5154TIP3    H136877   0.847   0.787  12.847  0.5032  0.5343 -0.1382
 5154TIP3    H236878   0.849   0.843  12.706 -0.6667 -0.7219 -0.6729
 5155TIP3   OH236879   0.200   4.709   4.371  0.1425 -0.4503 -0.1392
 5155TIP3    H136880   0.231   4.731   4.283 -0.3079 -1.4405 -0.5464
 5155TIP3    H236881   0.131   4.774   4.388 -0.6841 -1.0716 -1.0569
 5156TIP3   OH236882   2.019   1.893   3.206 -0.0723  0.0600 -0.7476
 5156TIP3    H136883   2.072   1.849   3.139 -1.4060 -0.3568 -1.5655
 5156TIP3    H236884   1.955   1.943   3.155  0.9160  2.3421  0.1839
 5157TIP3   OH236885   1.738   3.562   1.625  0.1246 -0.6303 -0.1818
 5157TIP3    H136886   1.794   3.605   1.561 -1.5177  1.1827 -0.4471
 5157TIP3    H236887   1.654   3.553   1.581 -1.1923  1.1354  1.8863
 5158TIP3   OH236888   2.809   4.881   2.054 -0.7029 -0.5516  0.1137
 5158TIP3    H136889   2.828   4.803   2.106  1.1577 -0.2309 -0.0615
 5158TIP3    H236890   2.752   4.934   2.110 -0.5890 -1.2589  0.9030
 5159TIP3   OH236891   1.156   4.282  16.013  0.6229  1.2491 -0.1565
 5159TIP3    H136892   1.180   4.349  16.077  2.4608  0.5269 -0.0428
 5159TIP3    H236893   1.144   4.202  16.064  1.3327  0.8455 -0.6031
 5160TIP3   OH236894   5.419   5.157   1.625 -0.6072 -0.0271 -0.6313
 5160TIP3    H136895   5.475   5.087   1.592 -1.3377 -0.2917 -1.3285
 5160TIP3    H236896   5.383   5.122   1.706  0.1467  0.0984 -0.2421
 5161TIP3   OH236897   0.089   5.978   2.680 -0.4013  0.4571 -0.1659
 5161TIP3    H136898   0.115   6.026   2.602  0.5977 -0.6962 -0.5602
 5161TIP3    H236899   0.164   5.920   2.699 -2.2291 -2.1945 -0.7367
 5162TIP3   OH236900   6.384   0.509   4.655  0.5856  0.8989  0.6004
 5162TIP3    H136901   6.300   0.472   4.682  1.3091  0.1899  2.0161
 5162TIP3    H236902   6.448   0.445   4.686  1.6698  1.6504 -0.0555
 5163TIP3   OH236903   6.580   0.636   4.075  0.0340 -0.0223  0.0515
 5163TIP3    H136904   6.612   0.712   4.122  0.6876  0.3149 -0.9247
 5163TIP3    H236905   6.487   0.655   4.059 -0.1258 -0.0192  0.9347
 5164TIP3   OH236906   5.600   4.698   5.486  0.2822 -0.1174  0.6242
 5164TIP3    H136907   5.549   4.667   5.561 -3.0980  0.2228 -1.4039
 5164TIP3    H236908   5.632   4.618   5.444 -0.6608 -0.4775  0.5693
 5165TIP3   OH236909   2.138   5.773   0.434 -0.6858  0.5114 -0.1069
 5165TIP3    H136910   2.059   5.720   0.419 -0.5669  0.3245 -0.0632
 5165TIP3    H236911   2.125   5.850   0.378 -1.4530  1.0450  0.7972
 5166TIP3   OH236912   0.372   2.903   0.860 -0.1077  0.2861 -0.3671
 5166TIP3    H136913   0.418   2.982   0.832 -1.5540  1.7738  1.3263
 5166TIP3    H236914   0.284   2.911   0.823 -0.4007 -0.3139  0.1801
 5167TIP3   OH236915   0.184   1.187   0.540 -0.6227 -0.4813 -0.2671
 5167TIP3    H136916   0.195   1.280   0.561 -0.9942 -0.2440 -1.0849
 5167TIP3    H236917   0.272   1.157   0.518 -0.4989 -0.3281  0.0090
 5168TIP3   OH236918   0.378   0.004  15.519  0.4492 -0.1218 -0.3416
 5168TIP3    H136919   0.335  -0.050  15.585 -1.0935 -0.5196 -1.6481
 5168TIP3    H236920   0.451  -0.049  15.489  1.6742  0.3946  1.5974
 5169TIP3   OH236921   0.235   5.762  15.001 -0.7669  0.1507 -0.5380
 5169TIP3    H136922   0.155   5.737  15.046 -0.8874  1.2044 -0.1615
 5169TIP3    H236923   0.262   5.682  14.954 -1.1020 -0.7030  0.6911
 5170TIP3   OH236924   2.465   5.412  14.652  0.6679  0.0884  0.9880
 5170TIP3    H136925   2.463   5.486  14.591 -3.1192  1.0194  2.1362
 5170TIP3    H236926   2.473   5.335  14.597 -1.3586  1.0016 -0.6354
 5171TIP3   OH236927   1.054   2.833   1.611  0.4805  1.0420  0.3497
 5171TIP3    H136928   1.067   2.914   1.561  1.0231  0.9646  0.3605
 5171TIP3    H236929   1.134   2.782   1.594 -0.0140  0.3624  0.0645
 5172TIP3   OH236930   3.357   1.109   3.316 -0.2969  0.1634  0.6027
 5172TIP3    H136931   3.385   1.108   3.225  1.2941  0.4074  1.0580
 5172TIP3    H236932   3.400   1.033   3.355  0.4665  1.0467  1.5321
 5173TIP3   OH236933   0.897   4.199   1.438 -0.2483 -1.1903 -0.2449
 5173TIP3    H136934   0.907   4.285   1.396 -0.4081 -1.5857 -1.1236
 5173TIP3    H236935   0.903   4.217   1.531 -2.5967  0.1192 -0.2863
 5174TIP3   OH236936   1.417   2.639   5.905  0.6790  0.4875 -0.8134
 5174TIP3    H136937   1.437   2.688   5.984  0.1485 -0.9688  0.2378
 5174TIP3    H236938   1.431   2.547   5.929  0.9761  0.0620 -2.5423
 5175TIP3   OH236939   2.716   6.351   1.813 -0.1911  0.3017  0.4291
 5175TIP3    H136940   2.686   6.363   1.723  3.3203  0.3683 -0.7907
 5175TIP3    H236941   2.700   6.258   1.831 -0.8111  0.2647 -0.2942
 5176TIP3   OH236942   2.847   2.441  16.504  0.2111  0.5123  0.6979
 5176TIP3    H136943   2.872   2.349  16.514  1.3133  0.8964  1.5422
 5176TIP3    H236944   2.864   2.480  16.589 -0.2799  1.4972  0.3537
 5177TIP3   OH236945   3.801   4.416  15.784 -0.0732 -0.7810 -0.1747
 5177TIP3    H136946   3.810   4.503  15.824  1.8554 -0.8337 -0.4664
 5177TIP3    H236947   3.811   4.432  15.690 -0.8097 -1.1907 -0.3347
 5178TIP3   OH236948   0.663   5.679   4.339 -0.2523  0.1886 -0.2411
 5178TIP3    H136949   0.591   5.646   4.285  0.0218  0.0605 -0.5298
 5178TIP3    H236950   0.677   5.610   4.405 -0.7474  0.4549  0.1444
 5179TIP3   OH236951   4.396   5.460   0.407 -0.5778  0.9322 -0.1540
 5179TIP3    H136952   4.333   5.412   0.461  0.1348  0.4321  0.2416
 5179TIP3    H236953   4.481   5.437   0.443 -0.0132 -0.4095 -2.2967
 5180TIP3   OH236954   1.264   2.328  10.838 -0.4858 -0.0085  0.1048
 5180TIP3    H136955   1.194   2.386  10.871  0.0633 -0.6562  2.4315
 5180TIP3    H236956   1.292   2.278  10.914  1.1502 -1.2005 -1.2577
 5181TIP3   OH236957   1.534   2.221   2.932 -0.0162  0.4703 -0.9209
 5181TIP3    H136958   1.543   2.132   2.899  1.5524  0.3690 -0.2565
 5181TIP3    H236959   1.517   2.210   3.026  1.7737  0.8803 -0.5244
 5182TIP3   OH236960   0.151   2.055  15.398  0.1541  0.2862 -0.6591
 5182TIP3    H136961   0.058   2.058  15.375 -0.1582  0.8221  0.6286
 5182TIP3    H236962   0.173   1.962  15.399 -0.6201  0.1103  0.0332
 5183TIP3   OH236963   1.469   3.162  10.996  0.5752 -0.0131 -0.2774
 5183TIP3    H136964   1.421   3.178  10.914  0.8218  0.3231 -0.3577
 5183TIP3    H236965   1.560   3.185  10.975  1.1414 -2.5293 -0.7058
 5184TIP3   OH236966   3.420   3.690   2.549  0.4817  0.2607  0.4616
 5184TIP3    H136967   3.414   3.775   2.592  0.8391 -0.1326  1.3087
 5184TIP3    H236968   3.407   3.709   2.456  0.0565  1.1709  0.6979
 5185TIP3   OH236969   3.485   6.398   3.143 -0.4209 -0.1997 -0.4831
 5185TIP3    H136970   3.517   6.409   3.054 -1.3411 -0.3006 -0.8316
 5185TIP3    H236971   3.486   6.303   3.158  1.8557 -0.0692  0.4175
 5186TIP3   OH236972   0.113   5.233  16.589 -0.1061  0.5243  0.0708
 5186TIP3    H136973   0.159   5.294  16.646 -0.3025  2.7615 -2.0782
 5186TIP3    H236974   0.147   5.147  16.613  1.6480  1.6666  1.7992
 5187TIP3   OH236975   1.122   5.379   0.856 -0.1235 -0.3420  0.4604
 5187TIP3    H136976   1.175   5.458   0.845 -1.4724  0.7448  1.4757
 5187TIP3    H236977   1.112   5.370   0.951 -0.3273 -1.5026  0.3371
 5188TIP3   OH236978   3.287   5.142  16.956 -0.6049 -0.1402 -0.2727
 5188TIP3    H136979   3.219   5.157  16.890 -0.3526  0.7995 -0.3217
 5188TIP3    H236980   3.362   5.192  16.923 -0.0230 -0.8439 -0.0100
 5189TIP3   OH236981   6.067   3.450  12.877  0.0227  0.9453  0.6655
 5189TIP3    H136982   6.163   3.449  12.881  0.0091 -0.5144  0.9872
 5189TIP3    H236983   6.041   3.500  12.954  0.4957 -0.5753  1.8407
 5190TIP3   OH236984   5.313   3.448   3.702 -0.3898  0.1937 -0.8448
 5190TIP3    H136985   5.232   3.401   3.683 -1.3418  1.2301  0.5445
 5190TIP3    H236986   5.298   3.537   3.670 -0.2770  0.7205  0.5184
 5191TIP3   OH236987   4.701   0.910  12.416  0.5007  0.3761  0.0929
 5191TIP3    H136988   4.763   0.849  12.457  0.9090  1.2731  0.8201
 5191TIP3    H236989   4.640   0.934  12.485  1.2851  2.0143  0.2564
 5192TIP3   OH236990   0.770   4.835  14.481  0.2621  0.2962 -0.7190
 5192TIP3    H136991   0.807   4.749  14.462 -1.7878 -0.9110  0.5261
 5192TIP3    H236992   0.767   4.840  14.576  0.2792  1.7170 -0.7769
 5193TIP3   OH236993   0.493   1.409   5.450  0.2793 -0.9248  0.2298
 5193TIP3    H136994   0.535   1.405   5.536  0.7075 -0.5557  0.0416
 5193TIP3    H236995   0.543   1.349   5.395  0.1712 -0.9590  0.1670
 5194TIP3   OH236996   4.109   4.935   5.570  0.0766 -0.4699  0.1086
 5194TIP3    H136997   4.135   4.979   5.489  1.0292 -1.5330 -0.1694
 5194TIP3    H236998   4.191   4.901   5.606 -0.4607 -0.7404  1.0812
 5195TIP3   OH236999   5.679   3.887   5.719 -0.5964 -0.0990  0.4846
 5195TIP3    H137000   5.755   3.935   5.687 -0.3763  0.3958  1.7269
 5195TIP3    H237001   5.664   3.819   5.654  2.0982 -1.4130  1.1769
 5196TIP3   OH237002   3.773   2.493   2.822 -0.0967  0.1268 -0.0202
 5196TIP3    H137003   3.719   2.524   2.895 -0.5759 -0.4481 -0.1313
 5196TIP3    H237004   3.736   2.537   2.745  0.5649  0.9277  0.1099
 5197TIP3   OH237005   0.736   0.856  13.805 -0.3530 -0.0697  0.2843
 5197TIP3    H137006   0.662   0.899  13.762  0.6210 -0.6590 -2.0600
 5197TIP3    H237007   0.702   0.829  13.890 -2.9737 -0.7398 -0.9120
 5198TIP3   OH237008   5.456   4.524   0.534  0.1613 -0.5151  0.5735
 5198TIP3    H137009   5.410   4.460   0.589  0.6722  0.6319  2.3787
 5198TIP3    H237010   5.543   4.487   0.522 -0.1031 -0.9993  0.1136
 5199TIP3   OH237011   5.274   6.071  13.047  0.0563  0.3934 -0.5621
 5199TIP3    H137012   5.361   6.038  13.023 -0.4801  0.0774 -2.1251
 5199TIP3    H237013   5.221   6.058  12.968 -1.7609 -0.6419  0.7890
 5200TIP3   OH237014   2.679   0.497   4.726 -0.4756 -0.0786  0.5494
 5200TIP3    H137015   2.711   0.532   4.808  2.2701 -1.4659  0.1034
 5200TIP3    H237016   2.669   0.573   4.669 -2.3247  0.8714  2.0957
 5201TIP3   OH237017   5.852   2.631  13.534 -0.4255 -0.0015  0.0408
 5201TIP3    H137018   5.813   2.676  13.610 -1.6138 -0.3787 -0.3284
 5201TIP3    H237019   5.776   2.598  13.486  0.4443 -3.3464  0.8728
 5202TIP3   OH237020   0.825   3.732   2.804  0.0902 -0.2164  0.5816
 5202TIP3    H137021   0.761   3.763   2.868  0.0726  1.6081 -0.2644
 5202TIP3    H237022   0.861   3.813   2.766  1.9346 -1.2439  0.1165
 5203TIP3   OH237023   3.144   2.254  11.945 -0.1567 -0.0649 -0.4002
 5203TIP3    H137024   3.111   2.189  11.884  0.2290  1.3450 -2.1707
 5203TIP3    H237025   3.095   2.334  11.923  1.4231  0.9634 -0.2438
 5204TIP3   OH237026   1.649   1.814  11.409  0.0751 -0.7131  0.1727
 5204TIP3    H137027   1.714   1.809  11.339  0.5213  0.7406  0.4629
 5204TIP3    H237028   1.574   1.766  11.375  0.2093  0.1491 -1.3992
 5205TIP3   OH237029   5.800   1.871   3.844  0.0448  0.3975  0.5192
 5205TIP3    H137030   5.729   1.858   3.906 -0.3722  1.5524  0.3042
 5205TIP3    H237031   5.766   1.839   3.760 -0.5910  1.8212  0.2139
 5206TIP3   OH237032   5.253   4.510   0.836 -0.3659 -0.0191 -0.1498
 5206TIP3    H137033   5.243   4.457   0.757 -1.2530  1.1709 -0.8534
 5206TIP3    H237034   5.290   4.593   0.806 -0.6203  0.4086  0.6799
 5207TIP3   OH237035   5.103   5.350  13.837  0.4448  0.2971 -0.3454
 5207TIP3    H137036   5.164   5.309  13.898  0.4376  0.5211 -0.1884
 5207TIP3    H237037   5.143   5.337  13.751 -0.9396 -2.5693 -0.6197
 5208TIP3   OH237038   0.073   0.938   1.878 -0.1323  0.1094 -0.0145
 5208TIP3    H137039   0.120   0.949   1.796  0.2028 -0.1770  0.1383
 5208TIP3    H237040   0.025   1.021   1.890  1.1188  0.7885  0.3338
 5209TIP3   OH237041   0.045   1.536  15.577 -0.0856  0.0601  0.0867
 5209TIP3    H137042   0.110   1.591  15.621  0.1999  0.4525 -0.8142
 5209TIP3    H237043   0.012   1.590  15.506 -0.6957 -0.4995 -0.0632
 5210TIP3   OH237044   6.014   5.984   5.365 -0.0988  0.1365  0.1257
 5210TIP3    H137045   5.942   6.045   5.377 -0.2076 -0.2739  1.6845
 5210TIP3    H237046   5.980   5.900   5.396  1.5942  0.3203  2.6482
 5211TIP3   OH237047   3.838   2.387   5.319 -0.0066 -0.1138  0.3281
 5211TIP3    H137048   3.932   2.406   5.320 -0.0227 -0.0370  0.4914
 5211TIP3    H237049   3.815   2.376   5.411 -0.4315  1.2666  0.3983
 5212TIP3   OH237050   3.341   5.530   4.847 -0.1427  0.1499  0.2241
 5212TIP3    H137051   3.401   5.474   4.798  0.4761 -0.5901  1.8023
 5212TIP3    H237052   3.266   5.474   4.866  0.0948  0.1005  1.0485
 5213TIP3   OH237053   5.146   5.568   5.989  0.0348 -0.2898  0.4586
 5213TIP3    H137054   5.089   5.592   5.916  1.3800  1.3621 -0.0937
 5213TIP3    H237055   5.102   5.494   6.031 -1.2516 -0.6364 -1.4315
 5214TIP3   OH237056   3.742   0.977   4.253  0.1432 -0.0429  0.0055
 5214TIP3    H137057   3.650   0.955   4.270  0.0352  0.6595  0.3411
 5214TIP3    H237058   3.751   0.968   4.158 -0.6333  1.2296 -0.2022
 5215TIP3   OH237059   3.648   5.935  11.726  0.4115  0.5122 -0.0077
 5215TIP3    H137060   3.669   6.028  11.732 -0.0455  0.6211 -0.0187
 5215TIP3    H237061   3.616   5.924  11.636  1.1904  0.1904 -0.2410
 5216TIP3   OH237062   3.539   6.558   3.419  0.0640 -0.2922 -0.0525
 5216TIP3    H137063   3.493   6.599   3.346 -0.5929 -0.5744  0.2027
 5216TIP3    H237064   3.504   6.600   3.497  0.2200 -0.5237  0.1439
 5217TIP3   OH237065   4.182   6.475   0.630  0.2677  0.1224  0.4272
 5217TIP3    H137066   4.093   6.502   0.608  0.1419 -0.6841 -0.0805
 5217TIP3    H237067   4.238   6.538   0.585 -0.0462  0.8181  1.0012
 5218TIP3   OH237068   4.036   0.656   1.740  0.4314 -0.7076 -0.1018
 5218TIP3    H137069   4.121   0.633   1.777  0.2576 -0.7691  0.2548
 5218TIP3    H237070   3.993   0.709   1.808  0.5164  0.0198 -0.6061
 5219TIP3   OH237071   0.998   2.122  11.714 -0.8707 -0.1406  0.5657
 5219TIP3    H137072   1.064   2.178  11.673 -2.2924  1.1224 -0.0300
 5219TIP3    H237073   0.962   2.071  11.641 -0.8331 -0.5446  0.8289
 5220TIP3   OH237074   1.739   1.396   0.344  0.0867  0.3781  0.2541
 5220TIP3    H137075   1.742   1.322   0.284  0.2352  0.3658  0.2771
 5220TIP3    H237076   1.816   1.448   0.321  0.2366  0.2857  0.5513
 5221TIP3   OH237077   6.142   4.247   4.147  0.3370  0.4872  0.3046
 5221TIP3    H137078   6.132   4.292   4.064  0.9495  1.1771  0.5978
 5221TIP3    H237079   6.080   4.289   4.206 -1.8395 -1.6089 -0.4326
 5222TIP3   OH237080   3.071   5.397   5.905 -0.1299  0.3333 -0.1367
 5222TIP3    H137081   3.039   5.468   5.961 -0.2734 -0.2853  0.5732
 5222TIP3    H237082   3.105   5.442   5.827  0.6181  1.2385  0.6967
 5223TIP3   OH237083   0.184   4.252  14.146  0.4558 -0.0006 -0.1201
 5223TIP3    H137084   0.148   4.317  14.207  0.7862  0.0208  0.0536
 5223TIP3    H237085   0.240   4.303  14.088 -0.3096  0.0679 -0.8111
 5224TIP3   OH237086   5.047   3.787  13.666 -0.0409  0.6196  0.3691
 5224TIP3    H137087   4.957   3.759  13.682 -0.2149 -0.0577 -1.6136
 5224TIP3    H237088   5.082   3.720  13.607  1.2465  1.7514 -0.1604
 5225TIP3   OH237089   6.541   5.742  13.239  0.4101  0.4487  0.0756
 5225TIP3    H137090   6.468   5.798  13.268  1.5448 -0.0298  4.1929
 5225TIP3    H237091   6.604   5.803  13.202  0.9523  1.8574  3.1016
 5226TIP3   OH237092   4.482   6.678   1.700  0.4231 -0.3173  0.2687
 5226TIP3    H137093   4.402   6.632   1.676  0.0091 -0.1933  1.3648
 5226TIP3    H237094   4.548   6.646   1.639 -0.7540  0.5665 -1.5127
 5227TIP3   OH237095   4.448   4.985   4.216  0.0129  0.0202  0.0433
 5227TIP3    H137096   4.381   4.978   4.147  0.0274 -1.1627  0.1451
 5227TIP3    H237097   4.454   4.897   4.253  0.6961  0.4279  0.9203
 5228TIP3   OH237098   2.334   4.549  13.514  0.5175  0.2921 -0.1579
 5228TIP3    H137099   2.303   4.458  13.518  1.3949  0.0243  1.0062
 5228TIP3    H237100   2.261   4.598  13.476 -0.6262 -0.6359  0.7908
 5229TIP3   OH237101   2.795   5.888  12.670  0.5828  0.5446  0.4286
 5229TIP3    H137102   2.699   5.885  12.660  0.6784  0.3554 -0.4672
 5229TIP3    H237103   2.824   5.954  12.607  1.0865  0.2675  0.3696
 5230TIP3   OH237104   5.585   5.475  14.761  0.1517  0.1976  0.3247
 5230TIP3    H137105   5.579   5.411  14.833  2.3970 -0.1806  0.2247
 5230TIP3    H237106   5.668   5.453  14.718 -1.5299 -0.0714 -2.8801
 5231TIP3   OH237107   2.994   5.322  12.737  0.0967 -0.0815  0.4505
 5231TIP3    H137108   2.918   5.345  12.684 -1.0883  0.3776  2.2816
 5231TIP3    H237109   3.038   5.406  12.753  1.1589 -0.3774 -0.8157
 5232TIP3   OH237110   1.041   1.019   2.348  0.4274  0.0838  0.2031
 5232TIP3    H137111   1.056   0.925   2.345 -0.4635 -0.0667  0.2447
 5232TIP3    H237112   1.046   1.041   2.441  2.0840  0.3320  0.0695
 5233TIP3   OH237113   3.379   0.363  16.663 -0.7181  0.3222 -0.0216
 5233TIP3    H137114   3.415   0.280  16.632 -0.4375  0.5422 -0.2854
 5233TIP3    H237115   3.360   0.412  16.583 -2.8188 -0.3010  0.0752
 5234TIP3   OH237116   4.973   5.951   3.960  0.2960 -0.1148 -0.5856
 5234TIP3    H137117   4.977   6.042   3.990 -0.9163 -0.1196 -0.3763
 5234TIP3    H237118   4.990   5.899   4.039 -1.4419 -0.1011 -0.1833
 5235TIP3   OH237119   6.278   0.393   3.917  0.6588  0.3760 -0.3221
 5235TIP3    H137120   6.316   0.317   3.873 -0.7121 -0.5179  0.0413
 5235TIP3    H237121   6.251   0.451   3.846 -1.5782 -1.0767 -0.7038
 5236TIP3   OH237122   5.238   3.078   0.280  0.7866 -0.2771 -0.0863
 5236TIP3    H137123   5.217   2.985   0.266  1.0225 -0.1201 -1.5166
 5236TIP3    H237124   5.164   3.125   0.242  0.7481  0.1305  0.4941
 5237TIP3   OH237125   2.959   5.243   3.905 -0.4153 -0.3003  0.3011
 5237TIP3    H137126   2.903   5.203   3.838 -0.3864 -0.4933  0.3921
 5237TIP3    H237127   2.994   5.321   3.862 -1.2341  0.1529  0.4491
 5238TIP3   OH237128   4.521   3.031  16.515  0.2428  0.3634 -0.7288
 5238TIP3    H137129   4.545   3.050  16.424 -1.7235 -0.3853 -1.4361
 5238TIP3    H237130   4.502   3.116  16.553  0.8203  0.6574 -1.0823
 5239TIP3   OH237131   4.752   6.681   5.631  0.3248  0.2193  0.6142
 5239TIP3    H137132   4.827   6.678   5.690  2.0953 -1.2350 -1.6141
 5239TIP3    H237133   4.779   6.628   5.555 -1.9996  1.6932 -1.3185
 5240TIP3   OH237134   6.686   4.428   0.349  0.0237  0.2905  0.3034
 5240TIP3    H137135   6.769   4.463   0.380  0.5799 -1.0048  0.3251
 5240TIP3    H237136   6.700   4.333   0.346 -1.3524  0.0849  0.0192
 5241TIP3   OH237137   1.081   5.604  14.068  0.2151  0.0966 -0.0681
 5241TIP3    H137138   1.035   5.628  14.148  1.0398 -1.3383  0.8823
 5241TIP3    H237139   1.028   5.535  14.029  0.2236  0.2373 -0.3296
 5242TIP3   OH237140   3.163   2.840  16.317 -0.1497 -0.2663  0.6308
 5242TIP3    H137141   3.125   2.864  16.233  0.9468 -0.3581  0.0981
 5242TIP3    H237142   3.173   2.745  16.313  0.5163 -0.1972  0.6000
 5243TIP3   OH237143   4.976   2.411  11.996  0.0705 -0.3764  0.6802
 5243TIP3    H137144   4.888   2.375  11.994  0.5230 -1.4974  0.6174
 5243TIP3    H237145   4.983   2.462  11.915 -0.5864 -0.1095  0.7907
 5244TIP3   OH237146   6.430   5.194  12.982 -0.5575 -0.3380  0.2864
 5244TIP3    H137147   6.444   5.279  12.941 -0.2772  0.1046  1.2819
 5244TIP3    H237148   6.516   5.170  13.018 -0.4700 -1.3527 -0.5436
 5245TIP3   OH237149   4.943   0.392  13.980 -0.0569 -0.5192 -0.1166
 5245TIP3    H137150   4.947   0.436  13.895  0.1274 -0.4265 -0.0608
 5245TIP3    H237151   4.963   0.301  13.961  0.0909 -0.4785 -0.1590
 5246TIP3   OH237152   1.726   0.490  15.726 -0.4784  0.1904  0.0143
 5246TIP3    H137153   1.779   0.432  15.670 -1.2218 -3.5340  2.9368
 5246TIP3    H237154   1.787   0.517  15.795 -0.9487  0.3982  0.3442
 5247TIP3   OH237155   0.509   2.934   4.028 -0.4479 -0.1498 -0.1008
 5247TIP3    H137156   0.473   2.917   4.115  1.3769  2.3772  1.2311
 5247TIP3    H237157   0.595   2.892   4.030  0.4587  1.6949  0.0865
 5248TIP3   OH237158   3.736   2.045  16.338 -0.0390  0.6125  0.0423
 5248TIP3    H137159   3.707   2.135  16.357  0.4472  0.7943 -0.0710
 5248TIP3    H237160   3.807   2.056  16.275  0.5424  0.1928  0.6166
 5249TIP3   OH237161   4.170   6.476  14.731  0.4051  0.2076  0.1473
 5249TIP3    H137162   4.207   6.557  14.764  2.7758 -0.4772 -0.7223
 5249TIP3    H237163   4.237   6.410  14.750 -1.4755 -1.5322  0.8222
 5250TIP3   OH237164   4.819   3.918   6.650 -0.1341 -0.4112  0.3596
 5250TIP3    H137165   4.753   3.909   6.582  0.4299  0.4184 -0.2946
 5250TIP3    H237166   4.770   3.943   6.728 -0.5555  0.5912 -0.2210
 5251TIP3   OH237167   5.176   4.574  15.391  0.4676  0.4152  0.0171
 5251TIP3    H137168   5.120   4.547  15.318 -1.0505  1.7717  0.6375
 5251TIP3    H237169   5.218   4.493  15.419 -3.3963 -1.2860  1.3620
 5252TIP3   OH237170   4.610   6.675   0.887 -0.0401 -0.3870  0.0407
 5252TIP3    H137171   4.637   6.640   0.971 -0.5635  0.6403  0.6435
 5252TIP3    H237172   4.523   6.711   0.902  0.2120  0.5762 -0.7268
 5253TIP3   OH237173   4.696   3.436  16.865  0.0446  0.0805  0.0785
 5253TIP3    H137174   4.709   3.342  16.875 -0.5800 -0.1833 -1.4485
 5253TIP3    H237175   4.758   3.475  16.927  1.2554 -1.3074 -0.2178
 5254TIP3   OH237176   6.126   2.213   2.650  0.2488  0.3391  0.1553
 5254TIP3    H137177   6.134   2.282   2.715  1.3365  1.4298 -1.1215
 5254TIP3    H237178   6.168   2.137   2.690  1.4849  1.1844  0.4770
 5255TIP3   OH237179   5.229   3.142  11.353 -0.7606  0.1252 -0.0311
 5255TIP3    H137180   5.206   3.171  11.441 -0.1110  2.1786 -0.5159
 5255TIP3    H237181   5.145   3.116  11.314 -1.0651 -0.6762  1.1265
 5256TIP3   OH237182   5.977   5.081  13.027  0.3418 -0.1011  0.0697
 5256TIP3    H137183   6.048   5.141  13.050  0.1937 -0.2638  0.9361
 5256TIP3    H237184   5.943   5.049  13.110  1.0702 -2.1891 -0.3986
 5257TIP3   OH237185   4.463   1.059   0.270  0.0961  0.4486  0.3002
 5257TIP3    H137186   4.511   1.108   0.203 -0.1346  1.1672  0.6573
 5257TIP3    H237187   4.379   1.038   0.228  0.4585 -0.2489 -0.0949
 5258TIP3   OH237188   2.825   6.577  13.097  0.4254 -0.3288 -0.4604
 5258TIP3    H137189   2.775   6.500  13.071  1.7233 -0.5806 -2.3373
 5258TIP3    H237190   2.799   6.645  13.035  0.1601  0.4111  0.4499
 5259TIP3   OH237191   3.446   4.072  16.560 -0.3474 -0.2231  0.1866
 5259TIP3    H137192   3.401   3.989  16.543 -1.7231  0.6243 -0.4373
 5259TIP3    H237193   3.513   4.078  16.492 -0.7956 -0.4391 -0.2751
 5260TIP3   OH237194   2.785   0.524  16.235  0.0232  0.0845 -0.9615
 5260TIP3    H137195   2.762   0.436  16.206  1.7952 -1.2530  1.5385
 5260TIP3    H237196   2.870   0.541  16.195  0.2715  0.1425 -0.4149
 5261TIP3   OH237197   5.794   5.813  16.702  0.1991  0.1151 -0.2552
 5261TIP3    H137198   5.824   5.897  16.667 -0.5112  0.1895 -0.6988
 5261TIP3    H237199   5.857   5.749  16.670  0.7556  0.4807  0.0960
 5262TIP3   OH237200   1.247   2.740   6.613  0.4988 -0.5354  0.2622
 5262TIP3    H137201   1.189   2.677   6.654 -1.4517 -0.0624 -1.6711
 5262TIP3    H237202   1.205   2.824   6.626  2.4807  0.2508  1.7722
 5263TIP3   OH237203   2.940   6.461  14.368  0.4337 -0.2603 -0.1496
 5263TIP3    H137204   2.967   6.463  14.276 -0.9421 -0.4618 -0.5796
 5263TIP3    H237205   2.937   6.554  14.393 -2.3537  0.0300 -1.3176
 5264TIP3   OH237206   3.379   3.010   1.161 -0.4191  0.9766 -0.5202
 5264TIP3    H137207   3.309   3.027   1.098 -1.6899  1.5804  1.0110
 5264TIP3    H237208   3.388   3.092   1.209  0.3163  0.4332  0.2875
 5265TIP3   OH237209   4.153   0.155  15.759 -0.1098  0.4566 -0.0320
 5265TIP3    H137210   4.194   0.232  15.798  0.4772 -0.1459  0.5506
 5265TIP3    H237211   4.168   0.085  15.823 -0.3555 -0.2176 -0.7051
 5266TIP3   OH237212   1.329   2.775   3.722  0.1502 -0.2852  0.5341
 5266TIP3    H137213   1.380   2.735   3.793 -1.0903 -0.0197  1.5949
 5266TIP3    H237214   1.338   2.869   3.736 -1.0419 -0.2396  1.0369
 5267TIP3   OH237215   6.779   6.041  17.031  0.2588 -0.3219 -0.1677
 5267TIP3    H137216   6.863   6.067  17.067  0.7247 -0.1605 -1.3584
 5267TIP3    H237217   6.715   6.098  17.073  0.7191 -0.5786  0.8802
 5268TIP3   OH237218   1.083   4.735  14.695 -0.1858  0.2756  0.5294
 5268TIP3    H137219   1.147   4.702  14.757  1.6507  2.1402 -0.3271
 5268TIP3    H237220   1.134   4.760  14.618 -2.1450  0.1995 -0.8360
 5269TIP3   OH237221   1.758   5.436   2.139  0.0064  0.7290  0.3333
 5269TIP3    H137222   1.778   5.481   2.057 -0.3664 -1.1480 -0.8128
 5269TIP3    H237223   1.840   5.393   2.163 -0.6971 -1.1978 -0.6614
 5270TIP3   OH237224   0.922   4.458   1.374  0.3152  0.0879  0.2853
 5270TIP3    H137225   0.962   4.505   1.447  0.2066  2.8996 -1.3970
 5270TIP3    H237226   0.941   4.512   1.297 -1.7723 -1.4941 -1.4083
 5271TIP3   OH237227   0.135   2.641  16.113 -0.1852  0.1759  0.0447
 5271TIP3    H137228   0.199   2.627  16.183 -0.3351 -0.7297  0.0062
 5271TIP3    H237229   0.155   2.728  16.080  1.2720 -0.2529 -0.2300
 5272TIP3   OH237230   2.548   3.510  16.105 -0.1382  0.1144 -0.2573
 5272TIP3    H137231   2.481   3.443  16.090  0.2517 -0.4500  0.4785
 5272TIP3    H237232   2.572   3.500  16.197  0.3845  0.8444 -0.3140
 5273TIP3   OH237233   3.282   2.136  15.683  0.2184  0.4040 -0.9039
 5273TIP3    H137234   3.306   2.143  15.776  0.1777  0.1087 -0.8707
 5273TIP3    H237235   3.187   2.131  15.683  0.1831  1.0170 -1.0021
 5274TIP3   OH237236   4.881   2.437  11.341  0.4041 -0.0337  0.0413
 5274TIP3    H137237   4.850   2.397  11.260  3.3395 -0.1540 -1.0952
 5274TIP3    H237238   4.851   2.377  11.410 -2.6992  0.4223 -0.8491
 5275TIP3   OH237239   2.332   0.739  15.405 -0.0660  0.8175  0.6600
 5275TIP3    H137240   2.346   0.752  15.311 -2.5894  2.2843  0.4492
 5275TIP3    H237241   2.311   0.645  15.413 -0.3906  0.7949 -0.3176
 5276TIP3   OH237242   2.586   3.908   0.960  0.8679  0.9018 -0.6168
 5276TIP3    H137243   2.554   3.907   0.870 -2.0718 -2.6071  0.3639
 5276TIP3    H237244   2.637   3.827   0.968  1.9466  1.6894  0.5916
 5277TIP3   OH237245   4.862   4.523   5.239  0.2198  0.5630  0.2238
 5277TIP3    H137246   4.957   4.506   5.239  0.0288 -0.5336 -0.1865
 5277TIP3    H237247   4.847   4.570   5.157  0.1417 -0.9279 -0.6526
 5278TIP3   OH237248   4.941   1.027   5.039  0.0346 -0.2330 -0.3787
 5278TIP3    H137249   5.012   1.031   4.975  2.7000 -1.5688  2.3546
 5278TIP3    H237250   4.950   0.941   5.080 -2.1437  0.2410  1.1944
 5279TIP3   OH237251   6.726   1.196   2.182 -0.1667 -0.0434  0.2779
 5279TIP3    H137252   6.737   1.208   2.276  1.3732  0.0370  0.1025
 5279TIP3    H237253   6.671   1.270   2.155  1.3397  1.2846  0.7499
 5280TIP3   OH237254   3.718   6.325   3.374 -0.5084  0.3495 -0.1101
 5280TIP3    H137255   3.764   6.390   3.428 -0.7935  0.5070 -0.0534
 5280TIP3    H237256   3.648   6.375   3.332 -1.7411 -0.2462  1.1974
 5281TIP3   OH237257   3.867   4.522  12.371 -0.5366  0.1251 -0.4856
 5281TIP3    H137258   3.787   4.519  12.318  0.0461  1.4788 -1.4639
 5281TIP3    H237259   3.938   4.528  12.307  0.3984 -1.4402  0.3553
 5282TIP3   OH237260   5.151   0.989  16.129  0.1646 -0.3343 -0.0932
 5282TIP3    H137261   5.131   1.076  16.096 -2.7772  0.4336  3.4720
 5282TIP3    H237262   5.244   0.993  16.153  0.1719  1.6227 -0.3978
 5283TIP3   OH237263   6.726   1.722  16.297 -0.0858 -0.2179 -0.2635
 5283TIP3    H137264   6.818   1.698  16.286 -0.1628  0.4122 -2.4122
 5283TIP3    H237265   6.723   1.767  16.381  1.7950  0.8745 -0.7575
 5284TIP3   OH237266   0.431   6.068   0.228 -0.2258  0.4027 -0.0282
 5284TIP3    H137267   0.337   6.066   0.211 -0.1480  1.2713 -0.6165
 5284TIP3    H237268   0.464   5.987   0.191 -0.6871  0.2701 -0.1536
 5285TIP3   OH237269   5.214   3.717   5.161 -0.0531 -0.0588 -0.0117
 5285TIP3    H137270   5.139   3.705   5.219  0.5985 -0.2110  0.8189
 5285TIP3    H237271   5.221   3.636   5.112  0.1450 -0.4113  0.5979
 5286TIP3   OH237272   3.847   6.486  12.129 -0.5445 -0.3186 -0.4557
 5286TIP3    H137273   3.898   6.409  12.151  1.9210  0.8516 -1.8971
 5286TIP3    H237274   3.782   6.493  12.200  1.7274 -1.4450  1.8139
 5287TIP3   OH237275   2.190   3.552  14.507 -0.1236 -0.0012  0.1232
 5287TIP3    H137276   2.273   3.539  14.553 -0.6044 -1.4626  0.6018
 5287TIP3    H237277   2.158   3.463  14.490 -1.3697  0.5473 -0.4629
 5288TIP3   OH237278   0.857   1.059  16.524  0.1425 -0.2014  0.1372
 5288TIP3    H137279   0.904   1.012  16.593 -2.6778 -1.5052  1.2322
 5288TIP3    H237280   0.796   1.115  16.571 -2.3856 -1.7140 -1.2562
 5289TIP3   OH237281   0.323   2.715   0.483  0.3881  0.4279  0.0988
 5289TIP3    H137282   0.345   2.792   0.430  0.1059 -0.1924 -0.9408
 5289TIP3    H237283   0.239   2.736   0.523  0.0003  0.3982 -0.7020
 5290TIP3   OH237284   5.395   1.833   3.081  0.1222  0.3257  0.2559
 5290TIP3    H137285   5.362   1.922   3.095  1.5266  1.0986 -1.2786
 5290TIP3    H237286   5.396   1.794   3.169 -3.1158  0.8534  0.5946
 5291TIP3   OH237287   0.531   1.375  16.590  0.2716  0.3865  0.0928
 5291TIP3    H137288   0.501   1.324  16.515  0.0345  0.5968  0.0439
 5291TIP3    H237289   0.596   1.320  16.633  0.6420  0.3982 -0.4558
 5292TIP3   OH237290   2.662   3.811   6.918  0.3618 -0.1212 -0.5778
 5292TIP3    H137291   2.634   3.891   6.961 -0.3113 -0.1413 -0.9704
 5292TIP3    H237292   2.731   3.839   6.857  1.7991 -0.1960  0.9877
 5293TIP3   OH237293   6.377   2.858   4.104 -0.6510  0.8337  0.0295
 5293TIP3    H137294   6.433   2.925   4.143 -0.7417  0.7223  0.3564
 5293TIP3    H237295   6.437   2.801   4.056 -0.4457  0.5603  0.5996
 5294TIP3   OH237296   5.579   2.683  16.941  0.7099 -0.3986 -0.2529
 5294TIP3    H137297   5.527   2.608  16.913 -0.4155  0.2200  0.1496
 5294TIP3    H237298   5.621   2.715  16.861  0.5021 -0.9297 -0.5737
 5295TIP3   OH237299   1.338   5.985   1.422  0.1321 -0.1320  0.3727
 5295TIP3    H137300   1.270   5.933   1.464 -0.8686 -0.2939 -1.3932
 5295TIP3    H237301   1.302   6.006   1.336  1.9612  0.5280 -0.2521
 5296TIP3   OH237302   3.149   2.091  14.229  0.2937 -0.1436  0.0411
 5296TIP3    H137303   3.200   2.095  14.149  0.4931  1.1527  0.2250
 5296TIP3    H237304   3.172   2.171  14.277 -1.6892  0.3422  0.2479
 5297TIP3   OH237305   5.773   5.198  12.321 -0.1339  0.1125 -0.2991
 5297TIP3    H137306   5.850   5.160  12.277  0.9114  0.6315  1.0489
 5297TIP3    H237307   5.718   5.123  12.342  1.1256 -0.5122  0.8318
 5298TIP3   OH237308   1.891   4.851  16.339  0.3992 -0.2743  0.0998
 5298TIP3    H137309   1.816   4.908  16.358  0.4951  0.0205 -0.3980
 5298TIP3    H237310   1.860   4.791  16.271  0.5659 -0.2492  0.0010
 5299TIP3   OH237311   0.056   2.209   2.990  0.0163  0.3140 -0.4638
 5299TIP3    H137312  -0.005   2.136   3.000 -0.3843  0.7164 -0.0264
 5299TIP3    H237313   0.001   2.284   2.967  0.3296  0.7060  0.0657
 5300TIP3   OH237314   5.437   5.815  12.385 -0.2513 -0.2648 -0.4097
 5300TIP3    H137315   5.462   5.907  12.377 -0.2297 -0.3470 -1.4268
 5300TIP3    H237316   5.505   5.776  12.441  0.2875  0.1299 -0.7843
 5301TIP3   OH237317   5.573   4.333   3.504 -0.1596 -0.8166  0.2862
 5301TIP3    H137318   5.615   4.377   3.578  1.8288 -1.0273 -0.6761
 5301TIP3    H237319   5.640   4.274   3.470 -1.2096 -1.1041 -1.3723
 5302TIP3   OH237320   4.228   3.699   4.148 -0.3071  0.0909  0.0430
 5302TIP3    H137321   4.286   3.628   4.121 -0.3961  0.2198 -0.4839
 5302TIP3    H237322   4.146   3.683   4.100  0.4557  1.8849 -1.8897
 5303TIP3   OH237323   0.297   3.098   3.610  0.6906 -0.6473  0.3641
 5303TIP3    H137324   0.385   3.091   3.649  0.2312  1.1642  1.7974
 5303TIP3    H237325   0.243   3.040   3.664  0.0297  1.9504  2.6234
 5304TIP3   OH237326   0.657   6.095  15.954  0.5734 -0.2691  0.0393
 5304TIP3    H137327   0.739   6.088  15.907  0.1349  0.5037 -0.8699
 5304TIP3    H237328   0.593   6.051  15.898  0.4291 -1.1993  0.9134
 5305TIP3   OH237329   2.726   5.663   1.990 -0.1129 -0.1682  0.6816
 5305TIP3    H137330   2.706   5.573   1.965 -0.5383  0.2393 -0.4705
 5305TIP3    H237331   2.818   5.675   1.969 -0.5296  0.2526 -0.9877
 5306TIP3   OH237332   6.555   0.552   0.807 -0.0171  0.3839  0.1613
 5306TIP3    H137333   6.628   0.612   0.793 -0.3224  0.8066  0.3963
 5306TIP3    H237334   6.580   0.473   0.760  1.0482  0.1668  1.0732
 5307TIP3   OH237335   5.950   4.328   1.250  0.5215 -0.6184  0.3038
 5307TIP3    H137336   5.892   4.288   1.315  0.3609 -2.4177 -0.9018
 5307TIP3    H237337   5.951   4.421   1.272 -0.0311 -1.1059  2.4796
 5308TIP3   OH237338   6.338   5.142   3.882  0.3690  0.5308  0.0705
 5308TIP3    H137339   6.403   5.074   3.866  0.4604  0.5208  0.4675
 5308TIP3    H237340   6.254   5.102   3.860  0.4061  0.2335  0.4710
 5309TIP3   OH237341   1.441   3.635   5.726  0.1020 -0.1994  0.4126
 5309TIP3    H137342   1.523   3.637   5.775  1.3928  3.8998 -1.6898
 5309TIP3    H237343   1.374   3.653   5.792  1.1099 -1.1142  1.7286
 5310TIP3   OH237344   2.566   3.246  14.991 -0.5757 -0.0282  0.1662
 5310TIP3    H137345   2.566   3.219  15.082 -0.9475 -1.1709 -0.1580
 5310TIP3    H237346   2.529   3.172  14.944  0.3111  0.2435 -1.0041
 5311TIP3   OH237347   6.766   5.463  13.003 -0.2069 -0.7722 -0.6481
 5311TIP3    H137348   6.774   5.544  12.953 -0.7181 -0.6009 -0.4578
 5311TIP3    H237349   6.675   5.462  13.032  0.1100 -0.8135  0.3635
 5312TIP3   OH237350   3.511   5.823   2.236  0.4768  0.3452 -0.1235
 5312TIP3    H137351   3.516   5.868   2.320  0.5169 -1.6817  1.0113
 5312TIP3    H237352   3.419   5.825   2.212  0.1292 -0.8646  1.0326
 5313TIP3   OH237353   0.533   4.641  16.283 -0.0123 -0.2743 -0.2344
 5313TIP3    H137354   0.491   4.703  16.224  1.0307 -0.0436 -0.7538
 5313TIP3    H237355   0.527   4.681  16.369 -0.0399  0.1776 -0.4475
 5314TIP3   OH237356   0.506   5.353   4.904  0.4015 -0.0746  0.1972
 5314TIP3    H137357   0.576   5.416   4.920 -0.0288  1.1516 -2.4077
 5314TIP3    H237358   0.531   5.310   4.822 -0.2703 -1.9349  0.9588
 5315TIP3   OH237359   6.040   6.151  16.793 -0.3511 -0.5249  0.1079
 5315TIP3    H137360   6.037   6.224  16.854 -2.2665 -1.2080  0.8630
 5315TIP3    H237361   6.131   6.121  16.794  0.1998  1.1686  0.5881
 5316TIP3   OH237362   1.185   2.798  12.391  0.2739 -0.4893  0.2814
 5316TIP3    H137363   1.161   2.740  12.318 -2.9251  1.4456 -0.3118
 5316TIP3    H237364   1.246   2.860  12.352  0.0711 -0.6219 -0.2583
 5317TIP3   OH237365   5.358   1.830  13.518 -0.0063 -0.2844 -0.1640
 5317TIP3    H137366   5.312   1.912  13.503  0.8153 -0.3219 -3.1439
 5317TIP3    H237367   5.448   1.847  13.491  0.3212 -1.9571 -0.1727
 5318TIP3   OH237368   6.021   6.451  14.950 -0.0834 -0.6530 -0.0030
 5318TIP3    H137369   6.093   6.482  14.895 -0.4349 -1.2417 -0.8080
 5318TIP3    H237370   6.005   6.523  15.011  0.8501 -0.3164 -0.1353
 5319TIP3   OH237371   3.319   3.247   5.085 -0.2897  0.1645  0.0019
 5319TIP3    H137372   3.287   3.161   5.061 -0.5502  0.2314  0.1081
 5319TIP3    H237373   3.242   3.303   5.084  0.1912  0.8277 -2.0205
 5320TIP3   OH237374   4.625   0.289   2.607  0.0799 -0.3865 -0.5503
 5320TIP3    H137375   4.677   0.273   2.528  0.0650  0.2336 -0.6920
 5320TIP3    H237376   4.689   0.321   2.671 -0.1811  0.7792 -0.8522
 5321TIP3   OH237377   4.271   3.784  13.182  0.1910  0.8125  0.5721
 5321TIP3    H137378   4.285   3.743  13.097  1.5624  2.2232  0.1102
 5321TIP3    H237379   4.197   3.844  13.168  0.3686  0.9903  0.4088
 5322TIP3   OH237380   3.160   4.335   2.055  0.2847  0.0560 -0.1014
 5322TIP3    H137381   3.155   4.336   1.960  1.3605  1.2205 -0.1569
 5322TIP3    H237382   3.245   4.373   2.075  0.4400 -0.9969  1.3083
 5323TIP3   OH237383   1.625   0.868   5.359  0.3806  0.1974  0.1970
 5323TIP3    H137384   1.571   0.937   5.399 -1.6976 -0.0068 -2.0781
 5323TIP3    H237385   1.564   0.794   5.349  1.3726 -0.4028 -1.4924
 5324TIP3   OH237386   2.203   0.022   5.671 -0.1413 -0.3151  0.4637
 5324TIP3    H137387   2.205  -0.072   5.651 -0.0046  0.1485 -1.8101
 5324TIP3    H237388   2.123   0.034   5.721 -2.1877 -1.0198 -2.5424
 5325TIP3   OH237389   4.640   5.432  16.478  0.2386 -0.0086 -0.8745
 5325TIP3    H137390   4.578   5.469  16.415  0.1007 -2.1662 -2.0686
 5325TIP3    H237391   4.721   5.481  16.465 -0.5112  1.2382 -0.9607
 5326TIP3   OH237392   6.569   0.902  12.079 -0.0828 -0.1303  0.0910
 5326TIP3    H137393   6.637   0.879  12.142  0.5758  0.8542 -0.2524
 5326TIP3    H237394   6.500   0.942  12.131  0.3387  0.4267  0.2146
 5327TIP3   OH237395   2.302   0.589  13.205  0.3491  0.1260  0.1912
 5327TIP3    H137396   2.207   0.597  13.205  0.3055  0.1016 -2.4351
 5327TIP3    H237397   2.331   0.646  13.133  2.3097  0.0868  0.9029
 5328TIP3   OH237398   2.151   1.347   2.536 -0.2614  0.3267  0.3884
 5328TIP3    H137399   2.087   1.313   2.598 -0.9923  0.1596 -0.4402
 5328TIP3    H237400   2.225   1.286   2.541 -0.4947  0.0806  0.7831
 5329TIP3   OH237401   4.097   0.269  13.229  0.7087  0.1264 -0.4068
 5329TIP3    H137402   4.192   0.278  13.229  0.4994  2.8867 -0.2523
 5329TIP3    H237403   4.066   0.340  13.286 -1.4707 -0.2977 -0.9912
 5330TIP3   OH237404   2.637   3.377  13.811  0.6521 -0.0365  0.4474
 5330TIP3    H137405   2.623   3.399  13.719  1.7417 -0.0190  0.2842
 5330TIP3    H237406   2.723   3.335  13.813  0.8446  0.3937  1.5227
 5331TIP3   OH237407   0.397   4.835  14.762  0.0133 -0.3564  0.1099
 5331TIP3    H137408   0.425   4.843  14.671 -2.6583  2.9368 -0.5141
 5331TIP3    H237409   0.313   4.790  14.758 -0.1774 -0.0832  0.9674
 5332TIP3   OH237410   2.397   2.030  12.119  0.1677  0.1994  0.1641
 5332TIP3    H137411   2.316   2.082  12.120  1.1347  1.7168  0.9106
 5332TIP3    H237412   2.370   1.944  12.151 -1.3102  0.4455 -0.3596
 5333TIP3   OH237413   1.626   1.624   6.438 -0.0464 -0.2902 -0.2257
 5333TIP3    H137414   1.570   1.696   6.467 -1.1086 -0.2526 -2.2164
 5333TIP3    H237415   1.571   1.576   6.375  1.1018 -2.0721  0.1279
 5334TIP3   OH237416   5.137   1.449   0.361 -0.1493 -0.1233 -0.0838
 5334TIP3    H137417   5.226   1.420   0.341  0.1622  0.4168  0.4910
 5334TIP3    H237418   5.080   1.382   0.324  0.5390 -1.3007  0.9508
 5335TIP3   OH237419   1.885   4.921   0.162  0.4493  0.0550  0.0336
 5335TIP3    H137420   1.832   4.928   0.083  0.5675 -0.2189 -0.0723
 5335TIP3    H237421   1.826   4.944   0.233 -0.0837 -1.2275  0.0108
 5336TIP3   OH237422   6.173   4.066  11.347  0.5393  0.3997  0.1955
 5336TIP3    H137423   6.092   4.061  11.396  0.3783  0.6883 -0.0396
 5336TIP3    H237424   6.148   4.042  11.257  1.0811 -1.5044  0.5291
 5337TIP3   OH237425   1.829   4.383  11.233  0.2411 -0.3237  0.5196
 5337TIP3    H137426   1.798   4.389  11.143 -1.3272  0.9782  1.1300
 5337TIP3    H237427   1.834   4.289  11.250  0.2181 -0.5783 -0.7950
 5338TIP3   OH237428   0.530   3.210  15.229  0.5497 -0.3978 -0.1908
 5338TIP3    H137429   0.557   3.153  15.300  0.2255 -1.0843 -0.6162
 5338TIP3    H237430   0.597   3.198  15.161 -0.5317 -1.7323 -1.0504
 5339TIP3   OH237431   5.723   2.833   2.359  0.1000 -0.2005  0.7599
 5339TIP3    H137432   5.751   2.824   2.268 -0.3619  2.2273  0.3406
 5339TIP3    H237433   5.731   2.745   2.395 -0.5771 -1.4068 -1.8697
 5340TIP3   OH237434   4.650   6.378  15.101 -0.5389  0.1409 -0.0056
 5340TIP3    H137435   4.605   6.364  15.184  1.8872 -0.0981  1.3167
 5340TIP3    H237436   4.656   6.291  15.062 -2.1190  0.3247 -0.6900
 5341TIP3   OH237437   5.815   2.872  13.679 -0.1150  0.3251 -0.0596
 5341TIP3    H137438   5.874   2.876  13.754  0.4531 -0.8228 -0.4232
 5341TIP3    H237439   5.738   2.826  13.711  0.1500 -0.2123 -0.1918
 5342TIP3   OH237440   1.584   0.824  12.521  0.0130  0.0358  0.3202
 5342TIP3    H137441   1.639   0.767  12.467  0.1723 -1.3601  1.9171
 5342TIP3    H237442   1.645   0.884  12.563 -0.1225  1.1919 -1.1254
 5343TIP3   OH237443   4.845   0.895  17.119 -0.3530 -0.2579 -0.2063
 5343TIP3    H137444   4.758   0.862  17.098  0.3598 -1.7107 -0.9489
 5343TIP3    H237445   4.861   0.963  17.053 -1.2686  0.6267  0.4767
 5344TIP3   OH237446   0.884   5.459   0.019 -0.0291  0.0230  0.0022
 5344TIP3    H137447   0.963   5.444  -0.032  1.0714 -0.0984  1.6862
 5344TIP3    H237448   0.905   5.535   0.074 -0.9816 -0.1725  0.6582
 5345TIP3   OH237449   2.779   4.055   5.779  0.2251 -0.0782 -0.2850
 5345TIP3    H137450   2.841   4.053   5.851 -0.3766 -0.0778  0.2423
 5345TIP3    H237451   2.798   3.976   5.729 -0.0753 -0.6528  0.4997
 5346TIP3   OH237452   2.278   4.659  16.575 -0.2748  0.1987  0.8878
 5346TIP3    H137453   2.276   4.719  16.649 -2.1031 -0.8262  1.6890
 5346TIP3    H237454   2.343   4.697  16.515 -1.1884  2.8113  1.4853
 5347TIP3   OH237455   3.633   0.776  14.872 -0.1020 -0.3086 -0.1970
 5347TIP3    H137456   3.692   0.821  14.933  0.6181  0.8682 -1.7097
 5347TIP3    H237457   3.551   0.765  14.921  0.2641  1.1597  0.7819
 5348TIP3   OH237458   1.462   3.251  13.473 -0.0124  0.4376  0.1559
 5348TIP3    H137459   1.443   3.343  13.493 -0.8535  0.1113  0.8997
 5348TIP3    H237460   1.377   3.213  13.452  0.1147 -0.5121  1.2876
 5349TIP3   OH237461   1.695   5.140  11.364 -0.5093 -0.6831 -0.6123
 5349TIP3    H137462   1.763   5.079  11.390 -0.6344 -0.1001  1.1219
 5349TIP3    H237463   1.741   5.209  11.317 -0.3813 -2.1332 -2.7006
 5350TIP3   OH237464   5.483   0.066  14.275  0.1005 -0.1596 -0.2557
 5350TIP3    H137465   5.522   0.124  14.341 -0.9880 -0.7899  0.9563
 5350TIP3    H237466   5.482  -0.020  14.316 -0.4894 -0.5832 -1.1434
 5351TIP3   OH237467   4.465   0.748  12.125 -0.0980 -0.3455  0.5105
 5351TIP3    H137468   4.445   0.758  12.218 -0.1542 -0.6264  0.5285
 5351TIP3    H237469   4.379   0.738  12.083 -0.0149 -1.3671  0.5661
 5352TIP3   OH237470   3.015   0.206  14.704  0.0206  0.2551 -0.1676
 5352TIP3    H137471   2.990   0.284  14.753  1.6436 -0.5096  1.9582
 5352TIP3    H237472   3.043   0.239  14.619 -1.0067  1.8009  0.0676
 5353TIP3   OH237473   5.281   5.956  13.931  0.4617  0.0201  0.0154
 5353TIP3    H137474   5.356   5.965  13.989  2.0577 -1.1230 -1.8198
 5353TIP3    H237475   5.208   5.935  13.989  1.8114 -0.1269  1.6880
 5354TIP3   OH237476   0.584   0.451  13.492  0.3264  0.2311 -0.6842
 5354TIP3    H137477   0.606   0.514  13.423 -0.4054  1.3799  0.1199
 5354TIP3    H237478   0.588   0.502  13.573  0.5216 -0.9566  0.0600
 5355TIP3   OH237479   0.389   6.075   2.824 -0.5602 -0.1089 -0.6698
 5355TIP3    H137480   0.357   6.163   2.840 -0.4396  0.0395 -1.2442
 5355TIP3    H237481   0.437   6.052   2.904 -0.6519  0.3146 -0.4947
 5356TIP3   OH237482   5.575   3.882   2.035 -0.1484 -0.4232 -0.4090
 5356TIP3    H137483   5.556   3.830   2.114 -1.9283  0.3068 -0.3287
 5356TIP3    H237484   5.623   3.822   1.978  1.4807 -0.8644  1.3560
 5357TIP3   OH237485   1.522   0.232   4.396  0.3973  0.1531 -0.0614
 5357TIP3    H137486   1.518   0.317   4.441 -0.2279  1.0689 -1.7986
 5357TIP3    H237487   1.609   0.198   4.416  0.5142  1.0388  0.9564
 5358TIP3   OH237488   6.221   4.739  14.474  0.0792 -0.5844 -0.0534
 5358TIP3    H137489   6.278   4.666  14.497  0.9480  0.0064 -0.3201
 5358TIP3    H237490   6.142   4.725  14.526  0.3719 -1.5277  0.1528
 5359TIP3   OH237491   5.167   1.458  12.829 -0.6955 -0.2325  0.0661
 5359TIP3    H137492   5.211   1.442  12.913  0.8813 -0.3586 -0.7742
 5359TIP3    H237493   5.140   1.550  12.834  0.7659  0.2095  0.0985
 5360TIP3   OH237494   6.452   3.044  16.424 -0.3734 -0.4692  0.4933
 5360TIP3    H137495   6.481   3.116  16.369 -2.1466  0.2454  0.4593
 5360TIP3    H237496   6.375   3.009  16.379 -1.6622 -0.0734  2.3360
 5361TIP3   OH237497   3.991   6.525  15.828  0.3646  0.1530 -0.3550
 5361TIP3    H137498   3.948   6.567  15.902  2.4819 -0.5783  1.3481
 5361TIP3    H237499   4.072   6.489  15.865  1.3649 -0.3947 -2.9796
 5362TIP3   OH237500   3.084   4.029  13.769  0.5137 -0.4459 -0.1526
 5362TIP3    H137501   3.027   3.967  13.813  0.4713  0.0656  0.5204
 5362TIP3    H237502   3.157   4.042  13.830  0.3276  0.4589 -0.1143
 5363TIP3   OH237503   1.615   1.928  13.957  0.6017 -0.4275 -0.2208
 5363TIP3    H137504   1.639   1.967  13.873 -2.1378  0.5636 -0.5892
 5363TIP3    H237505   1.643   1.992  14.023  1.5223 -0.5997 -0.4288
 5364TIP3   OH237506   0.717   0.664   0.753  0.0765  0.5663  0.6193
 5364TIP3    H137507   0.760   0.583   0.725  0.1367  1.3182 -1.5481
 5364TIP3    H237508   0.648   0.635   0.813  1.0175 -0.9556  1.0095
 5365TIP3   OH237509   5.898   4.185   5.905  0.4152  0.1478  0.5798
 5365TIP3    H137510   5.901   4.193   6.000 -4.0572  3.2649  0.6454
 5365TIP3    H237511   5.916   4.273   5.872  0.2692 -0.5143 -1.3632
 5366TIP3   OH237512   0.545   5.449  15.616  0.5973  0.6658 -0.5954
 5366TIP3    H137513   0.522   5.465  15.708  0.7889  2.4194 -0.8327
 5366TIP3    H237514   0.572   5.357  15.614  1.3343  0.8167  1.2547
 5367TIP3   OH237515   4.216   1.079   1.013 -0.6912 -0.5546 -0.8133
 5367TIP3    H137516   4.307   1.094   1.039 -1.4857  1.1583  1.1119
 5367TIP3    H237517   4.197   1.147   0.949 -1.3042  0.5485  0.5241
 5368TIP3   OH237518   3.019   1.580  13.874 -0.6211  0.1591  0.2632
 5368TIP3    H137519   3.074   1.656  13.857  0.0950 -0.0972  1.4206
 5368TIP3    H237520   2.949   1.612  13.931 -0.7240  0.1042  0.1688
 5369TIP3   OH237521   4.078   2.380   3.608 -0.1281  0.4924  0.3056
 5369TIP3    H137522   4.135   2.373   3.531 -0.6103 -2.8725  0.1931
 5369TIP3    H237523   3.990   2.365   3.575 -0.5901  1.1602  1.2017
 5370TIP3   OH237524   3.085   2.635  12.361  0.7123  0.3788 -0.0060
 5370TIP3    H137525   3.046   2.589  12.286  1.4365  0.0643 -0.1889
 5370TIP3    H237526   3.097   2.725  12.330 -1.6955  0.9781  0.7028
 5371TIP3   OH237527   1.054   5.369  15.910  0.4692 -0.3700 -0.3456
 5371TIP3    H137528   1.070   5.278  15.935  1.1352 -0.3878 -0.8203
 5371TIP3    H237529   0.964   5.385  15.936  0.2145 -1.2933 -0.6235
 5372TIP3   OH237530   4.599   0.710  15.904  0.1425  0.0547  0.4625
 5372TIP3    H137531   4.533   0.778  15.915 -0.6139 -0.8239  1.3581
 5372TIP3    H237532   4.679   0.749  15.941 -0.0698  0.7912  0.1552
 5373TIP3   OH237533   0.288   3.228   3.992  0.1922  0.1179  0.2320
 5373TIP3    H137534   0.324   3.151   3.947  0.8514  0.0346  0.8948
 5373TIP3    H237535   0.238   3.274   3.924 -3.7590 -3.0994  0.7610
 5374TIP3   OH237536   4.361   6.718   3.810 -0.5621 -0.2281  0.2170
 5374TIP3    H137537   4.370   6.763   3.726  2.1490 -0.6855  0.1947
 5374TIP3    H237538   4.267   6.711   3.824 -1.0613  2.5844 -1.3044
 5375TIP3   OH237539   3.390   6.244   3.680 -0.3977 -0.3055  0.2879
 5375TIP3    H137540   3.485   6.253   3.685 -0.6063  1.6565  1.2968
 5375TIP3    H237541   3.362   6.234   3.771 -0.9438 -3.7300 -0.1951
 5376TIP3   OH237542   0.025   4.900  12.003  0.2139  0.3187  0.2473
 5376TIP3    H137543  -0.043   4.955  11.965  0.4516 -0.1187 -0.8081
 5376TIP3    H237544   0.103   4.956  12.004  0.5593 -0.1336 -1.2084
 5377TIP3   OH237545   4.329   1.586   0.501  0.1345 -0.2381 -0.2548
 5377TIP3    H137546   4.398   1.645   0.531 -0.2913 -0.3489  0.9434
 5377TIP3    H237547   4.332   1.512   0.560 -2.0101  0.4591  0.7830
 5378TIP3   OH237548   5.453   0.639   1.412 -0.1247  0.5181  0.1261
 5378TIP3    H137549   5.401   0.695   1.355  0.0950  0.8490  0.2466
 5378TIP3    H237550   5.492   0.575   1.353 -1.9165 -0.7040  0.2445
 5379TIP3   OH237551   3.594   6.475   4.571  0.2167 -0.1084 -0.1706
 5379TIP3    H137552   3.573   6.384   4.593  0.2505  0.1277  0.8710
 5379TIP3    H237553   3.682   6.488   4.606  1.1616 -0.3512 -2.3466
 5380TIP3   OH237554   3.086   5.491   4.648 -0.5437 -0.2349 -0.0422
 5380TIP3    H137555   3.009   5.448   4.611 -0.9837 -1.4218  2.1998
 5380TIP3    H237556   3.159   5.433   4.625 -0.3448  0.6321 -1.7212
 5381TIP3   OH237557   0.607   2.721  12.390 -0.5697  0.3008 -0.1210
 5381TIP3    H137558   0.656   2.799  12.417 -0.2994  1.3760 -3.5620
 5381TIP3    H237559   0.642   2.651  12.446  1.7824  1.9026  0.4967
 5382TIP3   OH237560   6.696   1.411  15.211 -0.5542  0.0224 -0.2297
 5382TIP3    H137561   6.742   1.480  15.163 -0.1634 -1.3324 -1.8423
 5382TIP3    H237562   6.617   1.394  15.158  0.2947 -2.0647 -0.8837
 5383TIP3   OH237563   1.440   2.894   0.351  0.1853 -0.3071  0.0541
 5383TIP3    H137564   1.422   2.953   0.277  0.2019 -0.0922  0.2216
 5383TIP3    H237565   1.374   2.916   0.416 -0.2710 -0.9854 -0.1750
 5384TIP3   OH237566   0.967   1.942   5.487 -0.0803  0.5557 -0.1205
 5384TIP3    H137567   0.949   1.882   5.415 -1.2586  0.5226  0.1921
 5384TIP3    H237568   0.899   1.924   5.552  2.2488 -0.9582  2.0099
 5385TIP3   OH237569   5.419   0.632   5.570 -0.0313 -0.5145 -0.1421
 5385TIP3    H137570   5.384   0.642   5.482  0.0838 -1.1057 -0.2534
 5385TIP3    H237571   5.514   0.641   5.560 -0.1240  1.0713  0.1549
 5386TIP3   OH237572   1.216   6.299  13.121 -0.1741  0.2893 -0.2684
 5386TIP3    H137573   1.174   6.237  13.062 -0.4846 -0.0945  0.3503
 5386TIP3    H237574   1.261   6.244  13.185 -0.6350  0.7005  0.4123
 5387TIP3   OH237575   5.393   1.765  13.796  0.2971 -0.0252  0.5368
 5387TIP3    H137576   5.372   1.673  13.811  1.4586 -0.1933  1.1723
 5387TIP3    H237577   5.388   1.775  13.701  1.0120 -0.9564  0.3965
 5388TIP3   OH237578   6.327   4.023  16.637  0.5028  0.2218  0.1250
 5388TIP3    H137579   6.411   4.064  16.659  1.2432 -0.4137 -1.4881
 5388TIP3    H237580   6.286   4.006  16.722  2.9722 -1.5062  1.0196
 5389TIP3   OH237581   1.770   0.768  11.319 -0.2741  0.4566 -0.4973
 5389TIP3    H137582   1.767   0.850  11.369 -1.2436  0.2737 -0.2283
 5389TIP3    H237583   1.711   0.783  11.245 -1.5675 -0.4676  0.3181
 5390TIP3   OH237584   2.556   0.781  16.913 -0.3621  0.0321 -0.0432
 5390TIP3    H137585   2.614   0.722  16.865  0.3893 -0.1159  1.0360
 5390TIP3    H237586   2.468   0.757  16.884 -0.0691 -1.6974  0.4790
 5391TIP3   OH237587   4.938   5.054   4.625  0.0066  0.1455 -0.6279
 5391TIP3    H137588   5.033   5.063   4.636  0.0745  1.2265 -1.9298
 5391TIP3    H237589   4.929   4.998   4.548 -0.3803  1.5642 -1.6453
 5392TIP3   OH237590   0.591   2.982  16.582  0.3673  0.3866  0.2907
 5392TIP3    H137591   0.503   2.951  16.604  0.3674  0.0316 -0.1932
 5392TIP3    H237592   0.649   2.927  16.634  0.3295  0.1700  0.1066
 5393TIP3   OH237593   0.570   3.143   3.202  0.3743  0.1461  0.6163
 5393TIP3    H137594   0.523   3.210   3.252 -0.7892 -0.0008 -0.2616
 5393TIP3    H237595   0.512   3.123   3.128  2.1740  0.5469 -0.9439
 5394TIP3   OH237596   6.490   2.603   4.890  0.2561  0.4168 -0.1191
 5394TIP3    H137597   6.425   2.628   4.955  1.0104  1.3256  0.3026
 5394TIP3    H237598   6.474   2.663   4.816 -0.5001 -0.5108 -0.7118
 5395TIP3   OH237599   2.593   1.484  16.392 -0.1791  0.4367  0.3007
 5395TIP3    H137600   2.556   1.396  16.386  0.4732  0.1725  0.1390
 5395TIP3    H237601   2.594   1.503  16.485 -1.9186  0.9563  0.2265
 5396TIP3   OH237602   3.168   6.250   1.002 -0.3135 -0.1322 -0.2118
 5396TIP3    H137603   3.077   6.270   0.979 -0.3561  0.0496  0.1171
 5396TIP3    H237604   3.198   6.193   0.931 -0.6478 -0.0999 -0.3826
 5397TIP3   OH237605   6.556   1.413  11.858  0.5816 -0.1194  0.1609
 5397TIP3    H137606   6.561   1.321  11.883  1.5030  0.2292  1.3208
 5397TIP3    H237607   6.614   1.420  11.782  1.5087 -0.2577  0.8382
 5398TIP3   OH237608   1.634   3.904   2.032 -0.3087 -0.2062  0.1643
 5398TIP3    H137609   1.657   3.985   2.078  1.6344 -0.7491  0.2197
 5398TIP3    H237610   1.553   3.924   1.987  0.3096  1.8784 -0.0740
 5399TIP3   OH237611   0.177   6.581   2.338  0.6048 -0.2256 -0.2507
 5399TIP3    H137612   0.090   6.582   2.298 -0.4565 -0.6141  1.9918
 5399TIP3    H237613   0.172   6.514   2.406  2.4894  0.1329  0.2775
 5400TIP3   OH237614   2.784   2.303   0.247 -0.0242 -0.2030  0.1042
 5400TIP3    H137615   2.706   2.247   0.240 -0.2172  0.1069 -0.2539
 5400TIP3    H237616   2.759   2.370   0.311 -0.7147  0.9610 -1.3433
 5401TIP3   OH237617   3.675   1.933   2.274  0.7028  0.0179 -0.4060
 5401TIP3    H137618   3.623   1.931   2.194  1.7374 -1.3091 -1.0728
 5401TIP3    H237619   3.691   2.026   2.291 -1.3779  0.4077 -0.5071
 5402TIP3   OH237620   1.189   3.323  13.833 -0.4587  0.0639  1.0103
 5402TIP3    H137621   1.144   3.368  13.761 -0.7717 -1.0931  0.4721
 5402TIP3    H237622   1.119   3.286  13.886 -0.1608 -1.4170  0.3820
 5403TIP3   OH237623   3.154   4.215  16.885  0.0571  0.0194  1.1224
 5403TIP3    H137624   3.107   4.214  16.969 -4.2004 -0.3947 -1.1059
 5403TIP3    H237625   3.139   4.128  16.849 -1.1476  1.2840 -1.5582
 5404TIP3   OH237626   3.400   4.062  15.197 -0.3488  0.2322  0.7964
 5404TIP3    H137627   3.411   4.005  15.273 -1.5723  0.6338  1.2773
 5404TIP3    H237628   3.378   4.148  15.233  0.7781  0.8537  0.0460
 5405TIP3   OH237629   3.402   2.740  12.263  0.1860  0.2325 -0.4638
 5405TIP3    H137630   3.333   2.784  12.313  0.4849 -0.3553  0.4711
 5405TIP3    H237631   3.483   2.783  12.291  0.4149 -0.4982  0.0018
 5406TIP3   OH237632   3.625   3.390  10.464  0.6481  0.1091 -0.7770
 5406TIP3    H137633   3.532   3.414  10.465  0.6552  0.1414  1.7042
 5406TIP3    H237634   3.628   3.310  10.411 -0.6991  0.4431 -1.3815
 5407TIP3   OH237635   6.714   1.295   3.465  0.1566  0.0456 -0.3370
 5407TIP3    H137636   6.761   1.255   3.392 -0.8587 -0.5460 -0.6773
 5407TIP3    H237637   6.633   1.245   3.472  0.8997 -0.9175  2.1841
 5408TIP3   OH237638   4.446   2.320   5.927  0.0306 -0.0588 -0.1552
 5408TIP3    H137639   4.367   2.356   5.968 -0.6613 -2.1418  0.3920
 5408TIP3    H237640   4.518   2.356   5.978 -0.6850 -0.0224  0.8464
 5409TIP3   OH237641   4.358   1.324  13.377  0.0083 -0.2015 -0.3671
 5409TIP3    H137642   4.446   1.334  13.412  0.9937 -0.1985 -2.7636
 5409TIP3    H237643   4.366   1.346  13.284 -2.3355 -1.0694 -0.8183
 5410TIP3   OH237644   0.363   4.789  10.620 -0.3207  0.4053 -0.3660
 5410TIP3    H137645   0.419   4.790  10.698 -0.2257  3.5067 -0.4311
 5410TIP3    H237646   0.360   4.697  10.595  1.0138 -0.4321  2.3184
 5411TIP3   OH237647   3.684   4.937   6.117  0.3887 -0.1265 -0.1600
 5411TIP3    H137648   3.671   4.952   6.210 -0.7931 -1.0955 -0.1513
 5411TIP3    H237649   3.631   4.860   6.098  2.9583 -1.7365 -1.0290
 5412TIP3   OH237650   2.634   5.605   0.858  0.6057 -0.3402 -0.3992
 5412TIP3    H137651   2.589   5.565   0.783  0.1711 -0.1541 -0.2394
 5412TIP3    H237652   2.699   5.663   0.819  0.0744  0.1007 -0.6309
 5413TIP3   OH237653   5.365   1.471  14.730 -0.3024 -0.0730 -0.2252
 5413TIP3    H137654   5.338   1.457  14.639  0.6200  1.8394 -0.8406
 5413TIP3    H237655   5.418   1.395  14.751  1.3786  0.5144 -2.1037
 5414TIP3   OH237656   4.043   6.722  12.890 -0.2186 -0.0016 -0.4250
 5414TIP3    H137657   4.110   6.728  12.958 -0.4357 -1.2657 -0.0927
 5414TIP3    H237658   4.035   6.811  12.857 -1.3733  0.9942  2.4074
 5415TIP3   OH237659   4.559   4.893  13.058 -0.4319 -0.2468 -0.2630
 5415TIP3    H137660   4.583   4.807  13.092  0.6695  0.3209  0.4225
 5415TIP3    H237661   4.642   4.932  13.032 -0.6688  1.4542  1.4116
 5416TIP3   OH237662   6.252   0.412  11.481 -0.2969  0.4441  0.0451
 5416TIP3    H137663   6.300   0.480  11.529 -0.4848 -0.7436  1.9852
 5416TIP3    H237664   6.314   0.341  11.471 -1.5160 -1.0068  2.3527
 5417TIP3   OH237665   5.828   5.672  12.287 -0.0267  0.5917  0.2106
 5417TIP3    H137666   5.812   5.580  12.268  0.8634  0.9541 -2.4331
 5417TIP3    H237667   5.796   5.684  12.377 -0.7848 -2.1065  0.3292
 5418TIP3   OH237668   4.444   5.696  14.378  0.5679  0.1912 -0.0686
 5418TIP3    H137669   4.496   5.732  14.450  1.7907 -0.5909 -0.5378
 5418TIP3    H237670   4.443   5.602  14.394  1.9382 -0.1471 -1.7251
 5419TIP3   OH237671   1.673   1.300   2.528 -0.0804  0.0481 -0.5365
 5419TIP3    H137672   1.721   1.305   2.446  0.6566 -0.5478 -0.1590
 5419TIP3    H237673   1.696   1.213   2.563  0.1734  0.5725  0.6241
 5420TIP3   OH237674   4.025   3.848   5.494  0.4870 -0.0336 -0.0148
 5420TIP3    H137675   4.051   3.913   5.559 -0.0980 -1.4349  1.6552
 5420TIP3    H237676   3.948   3.887   5.451 -0.4870 -0.0303  1.6705
 5421TIP3   OH237677   6.021   3.272   6.342  0.6461 -0.1566 -0.0420
 5421TIP3    H137678   5.951   3.244   6.284  0.2596  0.0037  0.3435
 5421TIP3    H237679   5.981   3.273   6.429  0.8431  0.9039  0.0454
 5422TIP3   OH237680   6.434   4.278   5.483 -0.5000  0.6258 -0.3020
 5422TIP3    H137681   6.526   4.291   5.460  0.0323  0.3758  1.6065
 5422TIP3    H237682   6.407   4.362   5.521 -0.5829  0.1831  0.6362
 5423TIP3   OH237683   3.950   1.822  11.532 -0.7625 -0.1265 -0.6007
 5423TIP3    H137684   3.896   1.775  11.595 -1.5349 -0.1248 -1.2497
 5423TIP3    H237685   4.025   1.853  11.583 -1.6257  0.3101  0.4304
 5424TIP3   OH237686   5.036   0.432   3.695 -0.3700  0.0665  0.2261
 5424TIP3    H137687   5.086   0.354   3.672 -1.4571 -0.2183 -1.2626
 5424TIP3    H237688   5.078   0.465   3.774  3.0810  0.6409 -1.7149
 5425TIP3   OH237689   0.082   2.702   0.185 -0.2907  0.6096  0.2039
 5425TIP3    H137690   0.147   2.760   0.146 -1.6863  0.9660 -1.6714
 5425TIP3    H237691   0.000   2.725   0.141 -0.9210 -2.5915 -0.4098
 5426TIP3   OH237692   3.052   4.890   1.395  0.6813 -0.0443  0.3892
 5426TIP3    H137693   2.976   4.914   1.341  2.2376  0.9302 -1.4340
 5426TIP3    H237694   3.032   4.926   1.481 -1.0634 -0.0536  0.0039
 5427TIP3   OH237695   2.736   2.405  12.888 -0.5307 -0.3740  0.2163
 5427TIP3    H137696   2.696   2.320  12.872 -0.3808 -0.4014 -0.0215
 5427TIP3    H237697   2.826   2.395  12.856 -0.9161  0.3130 -1.1308
 5428TIP3   OH237698   5.224   6.268  12.273  0.1535 -0.2278 -0.8579
 5428TIP3    H137699   5.192   6.219  12.197 -0.0285 -1.0904 -0.2420
 5428TIP3    H237700   5.156   6.254  12.339 -0.3922  1.7190 -0.9953
 5429TIP3   OH237701   0.005   4.068   1.989 -0.7210  0.3514  0.2306
 5429TIP3    H137702  -0.059   4.017   1.939 -0.8656 -1.0694  1.8211
 5429TIP3    H237703   0.045   4.126   1.924 -0.4078 -1.9256 -1.6929
 5430TIP3   OH237704   4.908   0.102  16.480  1.0079  0.1812 -0.0324
 5430TIP3    H137705   4.844   0.124  16.412 -0.4105  2.4472  1.9426
 5430TIP3    H237706   4.900   0.007  16.491  0.0283  0.0420 -1.7966
 5431TIP3   OH237707   3.115   0.050   4.780  0.0525 -0.2133  0.4574
 5431TIP3    H137708   3.099   0.125   4.837 -2.1215 -0.6771  0.4975
 5431TIP3    H237709   3.142  -0.020   4.840 -1.4234 -0.4634  0.8560
 5432TIP3   OH237710   1.541   2.663  13.139  0.6290  0.6604 -0.2102
 5432TIP3    H137711   1.608   2.694  13.201 -1.0697  4.2811 -0.0562
 5432TIP3    H237712   1.460   2.662  13.190  0.4977 -4.2968 -0.2130
 5433TIP3   OH237713   5.635   3.857  13.822  0.1126 -0.1215  0.1969
 5433TIP3    H137714   5.637   3.908  13.904  1.1378 -0.2678  0.2694
 5433TIP3    H237715   5.684   3.778  13.843 -0.4819 -0.6086 -0.2703
 5434TIP3   OH237716   5.936   4.819  13.470 -0.7734 -0.2144 -0.0645
 5434TIP3    H137717   6.018   4.821  13.419 -1.4279 -0.2946 -1.1390
 5434TIP3    H237718   5.965   4.810  13.561  0.4651  1.1423 -0.2921
 5435TIP3   OH237719   5.999   2.926  16.061 -0.1963 -0.0806  0.1405
 5435TIP3    H137720   5.982   2.865  16.132 -0.3810  2.1008  2.0300
 5435TIP3    H237721   5.916   2.932  16.013 -0.4088 -0.6930  0.4379
 5436TIP3   OH237722   2.284   1.160  10.670  0.4474 -0.0337  0.0624
 5436TIP3    H137723   2.273   1.115  10.587 -0.3457 -0.6172  0.4780
 5436TIP3    H237724   2.205   1.214  10.679  0.7634  0.4078  0.1954
 5437TIP3   OH237725   3.233   2.637   1.896 -0.2318  0.9886  0.9007
 5437TIP3    H137726   3.263   2.660   1.808 -1.0477  0.0912  0.3791
 5437TIP3    H237727   3.272   2.703   1.953  0.9178  1.1346 -0.0420
 5438TIP3   OH237728   6.505   2.517  12.856  0.2907  0.8278  0.3171
 5438TIP3    H137729   6.546   2.552  12.935 -0.0592  0.3779  0.6978
 5438TIP3    H237730   6.524   2.424  12.858  1.9107  1.0906 -1.1101
 5439TIP3   OH237731   2.004   5.457  14.090  0.1688  0.0308  0.3369
 5439TIP3    H137732   1.978   5.418  14.007  0.7105 -2.2724  1.2289
 5439TIP3    H237733   1.966   5.400  14.157 -0.1093  1.7483  1.6833
 5440TIP3   OH237734   4.177   0.717  10.771 -0.0685 -0.2111  0.0427
 5440TIP3    H137735   4.179   0.664  10.691 -1.3700 -0.2179  0.0119
 5440TIP3    H237736   4.250   0.778  10.761 -0.3325 -0.0884 -1.2403
 5441TIP3   OH237737   5.563   1.113   2.619 -0.5102  0.6928 -0.0960
 5441TIP3    H137738   5.647   1.080   2.651 -0.4536 -1.6384 -2.4603
 5441TIP3    H237739   5.586   1.181   2.556 -0.4362  0.6144 -0.1533
 5442TIP3   OH237740   3.346   6.502   5.485  0.2652  0.0805 -0.6162
 5442TIP3    H137741   3.394   6.449   5.548 -2.0189  1.9465  2.8803
 5442TIP3    H237742   3.409   6.570   5.459  0.8048  0.2197  0.9447
 5443TIP3   OH237743   6.040   5.314   6.202  0.5564  0.1025 -0.0446
 5443TIP3    H137744   5.994   5.329   6.120  2.1949 -0.6043 -1.1248
 5443TIP3    H237745   6.006   5.230   6.233  2.2685 -1.2933 -1.7307
 5444TIP3   OH237746   6.406   2.267  14.383  0.1033  0.2574 -0.1364
 5444TIP3    H137747   6.464   2.335  14.417  1.0312 -1.0635  0.9744
 5444TIP3    H237748   6.341   2.253  14.452  1.8578 -2.2739  1.0877
 5445TIP3   OH237749   0.813   4.606  11.495 -0.4074 -0.4821 -0.4036
 5445TIP3    H137750   0.849   4.571  11.576  0.2980 -3.0844 -1.7663
 5445TIP3    H237751   0.721   4.578  11.495 -1.7323  3.5282  1.6253
 5446TIP3   OH237752   2.189   0.675   4.379 -0.1469  0.1984  0.3361
 5446TIP3    H137753   2.112   0.711   4.423  0.4175 -0.3801  1.8047
 5446TIP3    H237754   2.204   0.591   4.421  1.4264  0.3993  0.2028
 5447TIP3   OH237755   1.355   3.814  11.262  0.5197  0.8652 -0.4683
 5447TIP3    H137756   1.378   3.907  11.261  2.1581  0.4720 -1.6546
 5447TIP3    H237757   1.415   3.774  11.199  0.6608 -1.1951  0.9266
 5448TIP3   OH237758   5.954   4.474   4.264 -0.2086  0.1549  0.0765
 5448TIP3    H137759   5.988   4.563   4.260 -0.8301  0.3440 -1.0064
 5448TIP3    H237760   5.937   4.450   4.173 -0.4938 -0.8968  0.3996
 5449TIP3   OH237761   0.073   1.297  14.063  0.0158 -0.0195  0.1466
 5449TIP3    H137762   0.166   1.282  14.079  0.2500 -0.6615 -1.7411
 5449TIP3    H237763   0.030   1.218  14.095  0.1559  0.0991  0.6295
 5450TIP3   OH237764   3.324   2.462  11.142 -0.0199  0.2620 -0.5756
 5450TIP3    H137765   3.328   2.507  11.058  0.9213  1.2737 -0.0040
 5450TIP3    H237766   3.398   2.401  11.140 -0.3969 -0.1939 -0.7447
 5451TIP3   OH237767   1.615   4.677   0.243  1.2920  0.0340 -0.4005
 5451TIP3    H137768   1.619   4.706   0.152  0.4310 -0.2882 -0.5465
 5451TIP3    H237769   1.704   4.648   0.263  1.8930  1.6734 -0.6192
 5452TIP3   OH237770   5.965   6.631   5.068 -0.5601  0.4868  0.6263
 5452TIP3    H137771   5.913   6.664   4.996 -1.7647 -2.4476  0.0674
 5452TIP3    H237772   5.911   6.646   5.146 -0.8726  0.2958  0.4467
 5453TIP3   OH237773   3.171   4.891  15.180 -0.0908  0.8095 -0.1308
 5453TIP3    H137774   3.092   4.904  15.127 -0.5475  0.9262  0.5735
 5453TIP3    H237775   3.192   4.799  15.168 -0.5662  0.6806 -0.0132
 5454TIP3   OH237776   2.024   0.625  14.129 -0.0849 -0.3149  0.0734
 5454TIP3    H137777   2.092   0.644  14.064 -0.5493  0.7265 -0.1138
 5454TIP3    H237778   1.943   0.620  14.078 -0.6870  2.0293  0.7511
 5455TIP3   OH237779   5.312   6.479   3.358  0.8997 -0.6675  0.3438
 5455TIP3    H137780   5.241   6.415   3.361  0.2714 -0.0487 -0.9567
 5455TIP3    H237781   5.298   6.527   3.277  1.0337  1.4787  1.5411
 5456TIP3   OH237782   3.570   2.949   1.424  0.1414  0.6683 -0.5841
 5456TIP3    H137783   3.541   3.023   1.477 -0.1886  0.9292 -1.1222
 5456TIP3    H237784   3.504   2.941   1.355 -1.7655 -2.4179  1.5064
 5457TIP3   OH237785   4.865   1.008  15.738 -0.1040  0.0915 -0.2461
 5457TIP3    H137786   4.796   0.944  15.719  2.1525 -2.6826  0.4514
 5457TIP3    H237787   4.835   1.052  15.817 -0.3706 -2.2753  1.0409
 5458TIP3   OH237788   1.300   2.336   6.824 -0.7618  0.3397  0.3281
 5458TIP3    H137789   1.318   2.242   6.824 -0.2904  0.4253  0.9089
 5458TIP3    H237790   1.298   2.360   6.917  0.9484  1.2516  0.1443
 5459TIP3   OH237791   5.792   4.517  13.944  0.5218 -0.5340 -0.2280
 5459TIP3    H137792   5.776   4.524  13.850  1.1702 -1.2275 -0.3924
 5459TIP3    H237793   5.721   4.462  13.976 -0.6295  1.0233 -0.0405
 5460TIP3   OH237794   3.430   2.348  11.906  0.2854 -0.0019 -0.0569
 5460TIP3    H137795   3.352   2.333  11.853 -1.0279  1.4104  1.4317
 5460TIP3    H237796   3.495   2.381  11.844 -0.1378 -1.5802 -1.3830
 5461TIP3   OH237797   4.721   4.853   4.409 -0.9682  0.5026 -0.2018
 5461TIP3    H137798   4.798   4.871   4.356  0.1429 -2.0790  0.4670
 5461TIP3    H237799   4.661   4.808   4.350 -1.8477  2.1717 -0.6182
 5462TIP3   OH237800   5.289   5.628  12.584 -0.1599 -0.0936  0.1484
 5462TIP3    H137801   5.341   5.691  12.633  1.1269 -0.0209 -1.2493
 5462TIP3    H237802   5.243   5.680  12.518 -4.0764  0.1907  2.9697
 5463TIP3   OH237803   3.227   3.680  15.340 -0.3032 -0.2833 -0.7612
 5463TIP3    H137804   3.200   3.663  15.431  0.0943  0.6784 -0.4520
 5463TIP3    H237805   3.220   3.595  15.297  0.7970 -1.0388  0.5097
 5464TIP3   OH237806   5.422   5.107   0.730  0.1281  0.0307 -0.3097
 5464TIP3    H137807   5.368   5.115   0.652 -0.3214 -1.9411 -0.2418
 5464TIP3    H237808   5.491   5.045   0.706 -0.8148 -1.6703  1.2497
 5465TIP3   OH237809   2.701   6.597  15.082  0.4266 -0.0951 -0.5852
 5465TIP3    H137810   2.780   6.577  15.133  1.4329  1.2248 -1.5751
 5465TIP3    H237811   2.644   6.644  15.143  0.6904 -0.4583 -0.0556
 5466TIP3   OH237812   0.844   3.561  13.001  0.0665  0.1867  0.2442
 5466TIP3    H137813   0.929   3.518  13.007 -1.0166 -1.7909  1.7538
 5466TIP3    H237814   0.785   3.494  12.966 -1.5768  0.4815  2.3385
 5467TIP3   OH237815   1.467   5.256   3.405 -0.1277 -0.0945  0.4610
 5467TIP3    H137816   1.540   5.290   3.457  1.4081  0.7523 -2.1508
 5467TIP3    H237817   1.488   5.163   3.391 -0.9954 -0.5445  2.0647
 5468TIP3   OH237818   4.674   0.851   5.228 -0.1937  0.5896  0.1209
 5468TIP3    H137819   4.675   0.839   5.133 -0.9987  1.1776  0.0326
 5468TIP3    H237820   4.611   0.786   5.259 -0.1523  0.5974  0.2184
 5469TIP3   OH237821   0.490   2.737  15.235 -0.2130 -0.9646  0.8111
 5469TIP3    H137822   0.404   2.779  15.224 -0.5139 -1.7758  0.0250
 5469TIP3    H237823   0.512   2.752  15.327 -0.3554  0.8415  0.5820
 5470TIP3   OH237824   5.237   2.903  12.829 -0.9490  0.2778 -0.2467
 5470TIP3    H137825   5.217   2.989  12.866  0.5110  1.0865 -1.2805
 5470TIP3    H237826   5.324   2.882  12.862 -0.4825  0.0959 -1.5559
 5471TIP3   OH237827   2.547   6.691  15.293  0.1823  0.0611 -0.1838
 5471TIP3    H137828   2.460   6.657  15.272 -0.3629  1.2395  0.0705
 5471TIP3    H237829   2.552   6.685  15.389  0.7013 -0.7578 -0.2650
 5472TIP3   OH237830   3.152   4.947  12.725  0.3831  0.2687 -0.6599
 5472TIP3    H137831   3.182   4.858  12.740 -0.8944 -0.1359 -0.3838
 5472TIP3    H237832   3.157   4.960  12.631 -1.4848 -0.8816 -0.9503
 5473TIP3   OH237833   4.902   6.569   5.442 -0.2380 -0.2801  0.4436
 5473TIP3    H137834   4.949   6.644   5.406 -0.6201 -0.2588 -0.0243
 5473TIP3    H237835   4.946   6.493   5.404  0.3923 -0.3100  1.2195
 5474TIP3   OH237836   4.174   6.658   3.373 -0.1084  0.1933  0.5081
 5474TIP3    H137837   4.113   6.592   3.341 -0.8627  1.2038 -0.1542
 5474TIP3    H237838   4.121   6.713   3.431  1.2108 -1.5673  3.5027
 5475TIP3   OH237839   2.010   4.741   5.182 -0.0390  0.3248 -0.1243
 5475TIP3    H137840   1.941   4.742   5.116 -0.5055  2.0201  0.3411
 5475TIP3    H237841   1.967   4.774   5.261  0.4337 -1.9268  1.1057
 5476TIP3   OH237842   2.403   6.089   6.724  0.0782  0.0286 -0.5045
 5476TIP3    H137843   2.493   6.119   6.727  0.7916 -2.1106  1.0100
 5476TIP3    H237844   2.404   6.017   6.660 -0.7864  0.6835 -1.2690
 5477TIP3   OH237845   6.737   1.752  15.443 -0.3871  0.0294  0.1601
 5477TIP3    H137846   6.716   1.773  15.352  2.4687  2.1001 -0.0969
 5477TIP3    H237847   6.684   1.813  15.495 -0.2433  0.4572 -0.1978
 5478TIP3   OH237848   0.846   0.201   4.435  0.0646 -0.2858  0.5863
 5478TIP3    H137849   0.900   0.163   4.365  1.2019 -3.5711  3.0893
 5478TIP3    H237850   0.893   0.280   4.461  3.2119 -2.4654  1.9180
 5479TIP3   OH237851   5.711   2.759  12.936  0.0154  0.2704  0.0703
 5479TIP3    H137852   5.780   2.815  12.899  0.9652 -0.2140  1.0548
 5479TIP3    H237853   5.631   2.811  12.928  0.5152  0.9095 -0.9524
 5480TIP3   OH237854   3.465   0.007  16.322 -0.3327  0.1667 -0.3568
 5480TIP3    H137855   3.471   0.091  16.277  2.5503 -1.5769 -3.5735
 5480TIP3    H237856   3.382  -0.030  16.293  0.2394  0.2440 -2.1990
 5481TIP3   OH237857   1.067   1.405   0.509  0.4790 -0.0042  0.0288
 5481TIP3    H137858   1.089   1.396   0.602 -0.2274  0.7410  0.2709
 5481TIP3    H237859   1.121   1.339   0.465 -0.1455 -1.2587  1.1077
 5482TIP3   OH237860   0.378   2.615  11.502  0.0016 -0.0336 -0.0901
 5482TIP3    H137861   0.401   2.637  11.411  2.2682  1.0608  0.6960
 5482TIP3    H237862   0.450   2.559  11.531 -0.6279 -0.2294  1.0869
 5483TIP3   OH237863   2.467   2.360  13.532 -0.3642 -0.0423  0.1184
 5483TIP3    H137864   2.407   2.287  13.544 -1.2371  0.5829 -0.4265
 5483TIP3    H237865   2.503   2.348  13.444  0.5929 -0.6123  0.5739
 5484TIP3   OH237866   5.845   2.676  11.653 -0.3219 -0.0664  0.2832
 5484TIP3    H137867   5.853   2.767  11.682  0.1856  0.1043 -0.3886
 5484TIP3    H237868   5.830   2.682  11.559 -1.4025 -0.6380  0.4152
 5485TIP3   OH237869   5.907   5.833   6.162 -0.3282  0.4307 -0.1021
 5485TIP3    H137870   5.975   5.861   6.223  0.1182  0.5634 -0.6515
 5485TIP3    H237871   5.890   5.911   6.108 -0.6178  0.2753 -0.2379
 5486TIP3   OH237872   5.540   0.464   1.224 -0.1245 -0.5453  0.1615
 5486TIP3    H137873   5.530   0.512   1.141 -1.0949 -1.0632 -0.0199
 5486TIP3    H237874   5.623   0.417   1.213 -1.1994 -2.1595 -1.3128
 5487TIP3   OH237875   5.563   2.617  13.148  0.1166  0.5534 -0.0041
 5487TIP3    H137876   5.630   2.647  13.087  1.0110 -2.0508 -0.3727
 5487TIP3    H237877   5.589   2.654  13.233  2.4400 -1.0173 -0.0051
 5488TIP3   OH237878   2.457   0.213  12.418 -0.0375 -0.3463 -0.8611
 5488TIP3    H137879   2.550   0.232  12.413 -0.0684  0.4885  1.1348
 5488TIP3    H237880   2.418   0.262  12.346  0.9654 -0.0229 -1.1815
 5489TIP3   OH237881   4.823   5.655   2.017 -0.1507  0.4371 -0.4553
 5489TIP3    H137882   4.786   5.594   2.080 -0.4099 -1.8356 -2.7248
 5489TIP3    H237883   4.909   5.678   2.053 -0.1926 -1.0037  0.5998
 5490TIP3   OH237884   2.941   4.800  13.923  0.1553 -0.1465 -0.5362
 5490TIP3    H137885   2.856   4.843  13.930 -0.4740 -1.8125  2.8194
 5490TIP3    H237886   3.003   4.861  13.962 -0.0175 -0.3122 -0.0000
 5491TIP3   OH237887   1.066   2.880  11.435  0.2908  0.1483  0.1255
 5491TIP3    H137888   0.986   2.854  11.481  0.3856 -0.3362  0.0154
 5491TIP3    H237889   1.130   2.811  11.455  1.0589  1.1630  1.2157
 5492TIP3   OH237890   5.059   1.782  15.741 -0.6414  0.5929  0.5909
 5492TIP3    H137891   5.133   1.841  15.725  0.3179 -1.2466 -1.9244
 5492TIP3    H237892   4.995   1.837  15.786  0.7891  3.1977 -0.4319
 5493TIP3   OH237893   1.632   5.540  15.588 -0.3498 -0.1213  0.1158
 5493TIP3    H137894   1.558   5.583  15.545 -0.2219  1.2602  1.2511
 5493TIP3    H237895   1.635   5.579  15.675  2.0099  0.1491 -0.0681
 5494TIP3   OH237896   5.479   5.871   1.405 -0.1205 -0.1609  0.1593
 5494TIP3    H137897   5.424   5.816   1.461 -0.6418  0.0298 -0.1591
 5494TIP3    H237898   5.566   5.832   1.411  0.0310  0.3741  1.8163
 5495TIP3   OH237899   4.207   2.404   4.052  0.0312  0.2872  0.2864
 5495TIP3    H137900   4.145   2.460   4.004  0.7255  1.4002  0.6907
 5495TIP3    H237901   4.233   2.338   3.988 -2.2204 -0.7153  0.3482
 5496TIP3   OH237902   6.595   6.675   2.479 -0.4260 -0.3261  0.7953
 5496TIP3    H137903   6.606   6.693   2.572  1.8885 -0.6488  0.6299
 5496TIP3    H237904   6.630   6.753   2.435 -1.3641 -0.2355  0.1916
 5497TIP3   OH237905   3.194   0.027   3.342  0.5960  0.0964 -0.1849
 5497TIP3    H137906   3.260   0.006   3.275  1.7629  0.8261  0.7171
 5497TIP3    H237907   3.218   0.114   3.373  0.1352 -0.2783  1.2683
 5498TIP3   OH237908   3.807   0.074  12.216 -0.1070 -0.4259  0.6390
 5498TIP3    H137909   3.749   0.145  12.244  0.9410  0.1366  1.4073
 5498TIP3    H237910   3.793   0.004  12.279 -0.1566 -0.4006  0.6553
 5499TIP3   OH237911   1.257   2.368   1.115 -0.1179  0.7197 -0.1198
 5499TIP3    H137912   1.226   2.368   1.025 -0.4357  1.1977 -0.0107
 5499TIP3    H237913   1.178   2.368   1.169  0.0629  1.0662  0.1553
 5500TIP3   OH237914   4.333   0.617  15.995  0.1842 -0.7435 -0.1210
 5500TIP3    H137915   4.398   0.616  16.066 -0.5735  2.1866  0.7024
 5500TIP3    H237916   4.378   0.578  15.920  1.5987 -2.2594  1.4754
 5501TIP3   OH237917   1.525   4.970  11.157  0.7032 -0.3059 -0.4418
 5501TIP3    H137918   1.501   4.944  11.067  0.3337  0.6047 -0.6132
 5501TIP3    H237919   1.620   4.957  11.161  0.8565  0.4588 -1.2471
 5502TIP3   OH237920   2.076   2.782   1.131 -0.2504 -0.2080  0.0660
 5502TIP3    H137921   2.034   2.710   1.180 -0.4313 -0.2128 -0.0974
 5502TIP3    H237922   2.143   2.815   1.191  0.1822 -0.8544 -0.0547
 5503TIP3   OH237923   3.514   3.491  11.746  0.3249 -0.0130 -0.0461
 5503TIP3    H137924   3.420   3.510  11.745  0.5557  1.3756  2.1859
 5503TIP3    H237925   3.519   3.397  11.726 -1.4178  0.2001 -1.6752
 5504TIP3   OH237926   4.410   6.655   3.183  0.2622 -0.4126 -0.4976
 5504TIP3    H137927   4.342   6.674   3.248  0.5791  1.0085 -0.5631
 5504TIP3    H237928   4.390   6.566   3.153 -1.4083 -0.1352 -0.2994
 5505TIP3   OH237929   4.882   3.506   2.811 -0.0529  0.0546  0.4081
 5505TIP3    H137930   4.858   3.421   2.775 -2.5063  0.5087  0.8779
 5505TIP3    H237931   4.954   3.487   2.872  0.2591 -1.4835 -0.4153
 5506TIP3   OH237932   3.759   6.520   1.122  0.5672 -0.0250  0.4135
 5506TIP3    H137933   3.776   6.449   1.061  2.5310  0.8823 -0.1366
 5506TIP3    H237934   3.845   6.543   1.157  0.0886  2.5606  0.0280
 5507TIP3   OH237935   1.571   1.187  12.822 -1.4689 -0.0453  0.2516
 5507TIP3    H137936   1.631   1.247  12.868 -2.7840  3.4139 -2.3491
 5507TIP3    H237937   1.484   1.215  12.850 -2.0996 -0.7125 -1.0482
 5508TIP3   OH237938   5.649   5.896  12.875 -0.3343  0.1617  0.2103
 5508TIP3    H137939   5.612   5.950  12.945 -0.5021 -0.4280  0.5812
 5508TIP3    H237940   5.697   5.957  12.821  0.5516  0.4920  1.3546
 5509TIP3   OH237941   0.655   0.440   1.775 -0.4381 -0.4881  0.2670
 5509TIP3    H137942   0.732   0.462   1.828 -1.1070 -0.2268  1.1341
 5509TIP3    H237943   0.692   0.411   1.692  0.6362 -1.2592  0.9982
 5510TIP3   OH237944   1.472   4.294  16.156 -0.2511 -0.5676  0.4949
 5510TIP3    H137945   1.540   4.326  16.097 -1.3692  0.9136 -0.0317
 5510TIP3    H237946   1.467   4.200  16.137  0.2579 -0.3292 -0.9055
 5511TIP3   OH237947   3.183   2.092  12.226 -0.0946 -0.4839  0.0617
 5511TIP3    H137948   3.184   2.046  12.310  1.0712 -2.7821 -1.1648
 5511TIP3    H237949   3.107   2.055  12.180 -0.2451  0.1818 -0.2312
 5512TIP3   OH237950   0.472   3.745   4.954  0.1892 -0.5858 -0.4035
 5512TIP3    H137951   0.509   3.795   5.026  0.3661 -0.6801 -0.4296
 5512TIP3    H237952   0.429   3.670   4.996 -2.0103  0.7440 -0.1700
 5513TIP3   OH237953   2.486   2.580  13.714 -0.5439  0.8632 -0.3161
 5513TIP3    H137954   2.482   2.490  13.680  2.4395  0.9447 -1.1008
 5513TIP3    H237955   2.467   2.635  13.638 -2.3565  0.9313  0.1609
 5514TIP3   OH237956   6.589   5.697  12.308  0.4531  0.1750 -0.2130
 5514TIP3    H137957   6.652   5.760  12.274  1.0430 -0.1949  0.1903
 5514TIP3    H237958   6.625   5.612  12.286  0.8189 -0.0751  1.2711
 5515TIP3   OH237959   1.810   2.095   0.778 -0.3193 -0.0218  0.5245
 5515TIP3    H137960   1.833   2.004   0.794  2.2236  1.1522  4.4097
 5515TIP3    H237961   1.861   2.120   0.702  2.7877 -0.5916  2.3299
 5516TIP3   OH237962   5.158   0.346   0.253  0.4671  0.1014 -0.0610
 5516TIP3    H137963   5.088   0.380   0.309 -0.8882 -1.8119 -0.5380
 5516TIP3    H237964   5.210   0.423   0.230 -0.9958  1.4366  0.9832
 5517TIP3   OH237965   3.984   1.713   6.601 -0.3540 -0.0993  0.3418
 5517TIP3    H137966   3.902   1.666   6.618 -0.3513  0.1381  1.0314
 5517TIP3    H237967   3.959   1.786   6.546 -0.8265  0.7326  1.6383
 5518TIP3   OH237968   5.313   5.750  11.986 -0.4049 -0.3474 -0.0830
 5518TIP3    H137969   5.350   5.681  12.039 -0.2638  0.7187  1.2377
 5518TIP3    H237970   5.378   5.821  11.988 -0.8100  0.0685 -0.9043
 5519TIP3   OH237971   1.479   1.207   4.729 -0.2363  0.4734 -0.2657
 5519TIP3    H137972   1.456   1.230   4.818 -0.8254  0.3382 -0.3792
 5519TIP3    H237973   1.562   1.252   4.712  0.0558  0.2136  0.4625
 5520TIP3   OH237974   0.025   5.800  16.847  0.0436 -0.3470 -0.2468
 5520TIP3    H137975   0.014   5.865  16.777  0.7040 -0.3898 -0.3942
 5520TIP3    H237976   0.029   5.852  16.927 -0.2177 -0.2650 -0.2848
 5521TIP3   OH237977   2.905   1.508   5.142 -0.4644  0.1447  0.7932
 5521TIP3    H137978   3.000   1.519   5.152  0.2621 -3.3933 -1.1215
 5521TIP3    H237979   2.869   1.529   5.228  2.3303 -0.7989  2.2740
 5522TIP3   OH237980   0.398   4.468   1.978 -0.1313 -0.2704  0.3831
 5522TIP3    H137981   0.359   4.412   1.911 -1.8810 -1.3574  2.2610
 5522TIP3    H237982   0.422   4.408   2.049  2.8781  0.6743  0.2635
 5523TIP3   OH237983   4.344   2.815  11.643  0.3462  0.2560  0.3509
 5523TIP3    H137984   4.262   2.863  11.632  0.2508 -0.1615 -0.9081
 5523TIP3    H237985   4.374   2.799  11.553  0.7263 -1.4195  0.7509
 5524TIP3   OH237986   4.653   3.817   0.490  0.5867  0.6547 -0.2948
 5524TIP3    H137987   4.658   3.788   0.398 -2.8201  1.1195 -0.7031
 5524TIP3    H237988   4.658   3.735   0.540  2.0717  0.3587 -0.9023
 5525TIP3   OH237989   2.921   3.587  12.294 -0.2702 -0.4459 -0.3191
 5525TIP3    H137990   2.842   3.565  12.343 -0.0184 -1.9595 -0.5444
 5525TIP3    H237991   2.942   3.677  12.319 -2.0594 -0.0359 -0.2661
 5526TIP3   OH237992   4.489   6.093  10.957  0.2004 -0.2449  0.1894
 5526TIP3    H137993   4.455   6.052  10.878  0.4261 -1.8775  0.9355
 5526TIP3    H237994   4.582   6.106  10.938 -0.1045  1.0397 -0.5011
 5527TIP3   OH237995   0.940   6.111  14.933  0.2309 -0.1565  0.5671
 5527TIP3    H137996   0.954   6.016  14.942  1.4368 -0.0384  0.0752
 5527TIP3    H237997   0.914   6.140  15.020 -0.9703 -1.0683  0.5254
 5528TIP3   OH237998   2.199   1.129   3.804  0.2465 -0.1002  0.2270
 5528TIP3    H137999   2.235   1.194   3.743 -4.3236  1.3733 -1.0680
 5528TIP3    H238000   2.220   1.164   3.890  0.5530  1.4958 -0.4714
 5529TIP3   OH238001   2.632   1.316  15.318 -0.5232 -0.4479 -0.4820
 5529TIP3    H138002   2.634   1.342  15.226 -1.4528  0.6103 -0.2100
 5529TIP3    H238003   2.724   1.298  15.339 -0.1280  0.5707 -1.2545
 5530TIP3   OH238004   3.667   0.005   2.719  0.4063 -0.0447 -0.1034
 5530TIP3    H138005   3.663  -0.062   2.787  3.4392 -2.5507 -2.1994
 5530TIP3    H238006   3.761   0.019   2.705 -0.1721  4.1029 -0.3062
 5531TIP3   OH238007   0.023   2.231   4.860 -0.0429 -0.4680 -0.4081
 5531TIP3    H138008  -0.063   2.244   4.900  0.8549  1.6104  0.9747
 5531TIP3    H238009   0.015   2.270   4.773 -0.3495  0.2218 -0.0741
 5532TIP3   OH238010   0.984   4.886  12.765  0.1152 -0.1435 -0.5483
 5532TIP3    H138011   0.923   4.857  12.696 -1.2657 -0.5220  0.8015
 5532TIP3    H238012   0.944   4.966  12.800  1.2874  0.5605 -0.8010
 5533TIP3   OH238013   2.522   5.613  16.959 -0.4037 -0.1471 -0.5957
 5533TIP3    H138014   2.458   5.592  17.027  0.2180  0.2144  0.1050
 5533TIP3    H238015   2.497   5.558  16.884 -1.6398  0.1256 -0.3888
 5534TIP3   OH238016   2.111   2.702  12.201  0.1136  0.1404 -0.5804
 5534TIP3    H138017   2.179   2.693  12.133 -1.0558 -1.9203 -1.5186
 5534TIP3    H238018   2.159   2.696  12.283  1.4249  1.6090 -1.2019
 5535TIP3   OH238019   1.887   5.726  12.261 -0.6131 -0.0864  0.4103
 5535TIP3    H138020   1.917   5.788  12.195 -0.7087  0.2501  0.6839
 5535TIP3    H238021   1.801   5.758  12.288 -1.5363 -1.4313 -0.8598
 5536TIP3   OH238022   5.986   6.043   1.659 -0.0180 -0.1460  0.4238
 5536TIP3    H138023   6.025   6.069   1.575  1.0948 -1.0153  0.6546
 5536TIP3    H238024   5.943   6.122   1.691  1.5054  0.8362  0.1018
 5537TIP3   OH238025   3.733   5.723  15.029 -0.8106  0.4972 -0.0190
 5537TIP3    H138026   3.694   5.753  14.947  1.5339  4.4925  0.2093
 5537TIP3    H238027   3.694   5.780  15.096  0.0181 -0.2746  1.1335
 5538TIP3   OH238028   4.460   3.539   1.670 -0.2486 -0.0467 -0.4101
 5538TIP3    H138029   4.523   3.596   1.626  0.4228 -2.6862 -3.0134
 5538TIP3    H238030   4.513   3.488   1.732 -0.3561 -0.0236 -0.2990
 5539TIP3   OH238031   1.135   4.773  13.777 -0.0739 -0.0932 -0.3856
 5539TIP3    H138032   1.073   4.844  13.791  1.4609  1.4290 -1.0846
 5539TIP3    H238033   1.168   4.788  13.688  0.4150 -1.5699 -0.4580
 5540TIP3   OH238034   4.405   0.262  13.090  0.3972 -0.2910  0.4155
 5540TIP3    H138035   4.424   0.319  13.164  0.2536 -1.8173  1.6442
 5540TIP3    H238036   4.387   0.322  13.018  0.8436  1.2114  1.5259
 5541TIP3   OH238037   4.888   3.318  13.332 -0.4375  0.1138  0.1207
 5541TIP3    H138038   4.860   3.370  13.257 -1.3566  1.7465  1.5421
 5541TIP3    H238039   4.833   3.349  13.404  1.5838 -0.1677  1.8443
 5542TIP3   OH238040   5.948   4.546  14.845 -0.2027  0.0399  0.0988
 5542TIP3    H138041   5.993   4.613  14.895  0.6896 -0.8521  0.4978
 5542TIP3    H238042   5.987   4.551  14.757  0.5947 -0.6447  0.4088
 5543TIP3   OH238043   5.018   1.558  10.722 -0.2810 -0.3066 -0.3740
 5543TIP3    H138044   4.985   1.544  10.634 -0.4144  0.9544 -0.5426
 5543TIP3    H238045   5.079   1.486  10.738  0.1507 -0.2387 -1.6938
 5544TIP3   OH238046   1.573   3.464  14.198 -0.6327 -0.4442 -0.1112
 5544TIP3    H138047   1.491   3.493  14.158 -0.0708  0.2106 -0.7831
 5544TIP3    H238048   1.638   3.470  14.128  0.0247 -0.8421  0.4540
 5545TIP3   OH238049   2.774   6.176   5.706 -1.0217  0.0022 -0.1012
 5545TIP3    H138050   2.827   6.166   5.785  0.0371 -1.2145 -0.9488
 5545TIP3    H238051   2.778   6.270   5.686 -0.3124  0.1267  0.6068
 5546TIP3   OH238052   0.574   5.925  14.777 -0.1938 -0.1467  0.3533
 5546TIP3    H138053   0.504   5.928  14.842  0.1747 -0.7889  0.7885
 5546TIP3    H238054   0.622   5.845  14.798  0.3976  0.0546 -0.2272
 5547TIP3   OH238055   2.230   0.939   5.670  0.1575  0.1451  0.2672
 5547TIP3    H138056   2.181   0.969   5.594 -0.5930  1.3858  1.2121
 5547TIP3    H238057   2.233   0.844   5.661 -1.0259  0.1843 -0.6491
 5548TIP3   OH238058   2.852   6.151   6.095 -0.6449  0.0457  0.0601
 5548TIP3    H138059   2.833   6.245   6.105 -0.9017  0.0772 -0.7458
 5548TIP3    H238060   2.767   6.108   6.103 -0.3994 -0.2075  1.4410
 5549TIP3   OH238061   2.470   3.983  17.090 -0.4869 -0.3591 -0.2105
 5549TIP3    H138062   2.514   4.048  17.145 -0.0470 -0.6406 -0.2202
 5549TIP3    H238063   2.526   3.905  17.097 -0.5774 -0.4824 -0.8299
 5550TIP3   OH238064   1.375   0.274   5.982 -0.4752 -0.0787 -0.0216
 5550TIP3    H138065   1.448   0.228   6.024 -0.0701 -0.7534 -1.4553
 5550TIP3    H238066   1.416   0.345   5.933 -0.8935  0.2960  0.1635
 5551TIP3   OH238067   4.139   3.944   3.194  0.3063  0.0545  0.6628
 5551TIP3    H138068   4.095   3.904   3.119 -0.2059 -1.3284  1.6786
 5551TIP3    H238069   4.157   3.871   3.254  2.0064  0.9117  1.2613
 5552TIP3   OH238070   3.849   3.448  15.387  0.2263 -0.4184 -0.3603
 5552TIP3    H138071   3.812   3.534  15.368  1.0179 -0.0384 -0.2064
 5552TIP3    H238072   3.810   3.389  15.323 -0.7356 -0.0472 -0.1208
 5553TIP3   OH238073   0.449   1.135  16.352  0.4163 -0.1169 -0.0443
 5553TIP3    H138074   0.473   1.099  16.267  2.3776  0.5052  0.2427
 5553TIP3    H238075   0.497   1.082  16.415  0.0494  0.3185  0.6125
 5554TIP3   OH238076   2.086   4.139  11.140 -0.2874  0.2666 -0.1335
 5554TIP3    H138077   2.069   4.233  11.142  0.1375  0.3487 -0.3502
 5554TIP3    H238078   2.158   4.126  11.202  0.3500  0.2336 -0.8738
 5555TIP3   OH238079   6.754   6.654  16.601  0.3442  0.4624  0.1830
 5555TIP3    H138080   6.754   6.590  16.672 -0.0756 -1.9272 -1.9178
 5555TIP3    H238081   6.847   6.673  16.587  0.6072 -1.2203 -0.4891
 5556TIP3   OH238082   0.476   0.612  14.044  0.2624 -0.7656 -0.3507
 5556TIP3    H138083   0.436   0.631  13.960 -1.6154 -0.5407  0.5549
 5556TIP3    H238084   0.542   0.680  14.056 -1.4967  0.9991 -0.3259
 5557TIP3   OH238085   4.499   4.327  15.307 -0.4612 -0.1087 -0.4490
 5557TIP3    H138086   4.473   4.328  15.399 -0.3684  3.5607 -0.4156
 5557TIP3    H238087   4.594   4.337  15.309 -0.5686  1.0466 -0.9649
 5558TIP3   OH238088   0.552   6.707   3.185  0.1167 -0.5652  0.1210
 5558TIP3    H138089   0.584   6.674   3.101  1.1305 -3.7960  1.6793
 5558TIP3    H238090   0.630   6.708   3.241 -0.4874  1.8300  0.9746
 5559TIP3   OH238091   1.012   2.987   0.367  0.2496  0.3490 -0.0843
 5559TIP3    H138092   1.085   2.938   0.406  0.2610  0.8364  0.5083
 5559TIP3    H238093   0.954   3.006   0.440 -0.3575  0.1755 -0.5164
 5560TIP3   OH238094   1.672   1.305  15.944 -0.2936 -0.6475  0.2372
 5560TIP3    H138095   1.761   1.330  15.968  0.1928 -0.1978 -1.9625
 5560TIP3    H238096   1.672   1.210  15.950  0.3528 -0.6560  0.1825
 5561TIP3   OH238097   6.134   2.285   5.798  0.1291  0.4815 -0.2130
 5561TIP3    H138098   6.146   2.226   5.723 -0.0267  1.5726 -1.1148
 5561TIP3    H238099   6.047   2.264   5.832  0.5763 -0.6684  0.2619
 5562TIP3   OH238100   4.776   1.652   4.588  0.1882  0.0975  0.7051
 5562TIP3    H138101   4.868   1.653   4.616  0.4105 -1.2318  0.0551
 5562TIP3    H238102   4.771   1.720   4.521  0.6265  0.3890  0.9659
 5563TIP3   OH238103   1.720   3.502   3.968 -0.3875  0.0279 -0.1201
 5563TIP3    H138104   1.792   3.559   3.995 -0.5526 -0.0207  0.4122
 5563TIP3    H238105   1.651   3.563   3.939  0.2658  0.0652 -1.6826
 5564TIP3   OH238106   2.822   3.645   2.664  0.0341  0.3773 -0.2811
 5564TIP3    H138107   2.733   3.623   2.691 -0.1972  1.0283 -0.4919
 5564TIP3    H238108   2.878   3.602   2.728 -0.5407  2.9789  2.0887
 5565TIP3   OH238109   2.319   5.698   1.272  0.2749 -0.1624 -0.1273
 5565TIP3    H138110   2.371   5.700   1.192  2.8653 -0.4845  1.5191
 5565TIP3    H238111   2.244   5.642   1.251  1.2696 -0.7699 -2.0947
 5566TIP3   OH238112   1.835   2.064   2.832  0.3382 -0.0510 -0.5661
 5566TIP3    H138113   1.884   2.068   2.750  2.4269 -2.1439  0.5361
 5566TIP3    H238114   1.753   2.020   2.810  1.3061 -1.4845 -1.3723
 5567TIP3   OH238115   3.706   1.025   0.500 -0.5339 -0.0327  0.3443
 5567TIP3    H138116   3.714   1.119   0.517 -1.4410  0.2909 -0.9876
 5567TIP3    H238117   3.795   0.996   0.480 -0.3597  0.6619  0.1280
 5568TIP3   OH238118   3.739   4.267  11.877  0.7348  0.2176  0.2580
 5568TIP3    H138119   3.651   4.266  11.914  0.3683  1.6468 -0.5165
 5568TIP3    H238120   3.750   4.180  11.840  0.0400 -0.3090  1.2505
 5569TIP3   OH238121   6.624   5.152  12.069 -0.8683  0.2039  0.0566
 5569TIP3    H138122   6.707   5.199  12.084 -1.6266  0.6687  2.9582
 5569TIP3    H238123   6.603   5.111  12.153 -3.4921 -0.0733 -0.6902
 5570TIP3   OH238124   5.885   2.302  11.362 -0.5696  0.6330 -0.1742
 5570TIP3    H138125   5.952   2.299  11.293 -1.9282  2.3545 -1.5923
 5570TIP3    H238126   5.867   2.210  11.382  1.4302  0.1402 -0.5322
 5571TIP3   OH238127   4.489   3.570  10.812  0.2180 -0.2378 -0.0443
 5571TIP3    H138128   4.406   3.609  10.784  0.5700 -0.9579 -2.1581
 5571TIP3    H238129   4.551   3.643  10.809  0.0113 -0.0598 -0.0515
 5572TIP3   OH238130   2.715   3.641  16.435 -0.2180 -0.3354 -0.2390
 5572TIP3    H138131   2.746   3.667  16.522  1.4502 -0.0262 -0.9087
 5572TIP3    H238132   2.623   3.666  16.434 -0.3073 -0.5325  1.5155
 5573TIP3   OH238133   5.798   3.695  15.505 -0.2991 -0.3018  0.3731
 5573TIP3    H138134   5.834   3.778  15.472  1.7831 -1.7507 -1.1121
 5573TIP3    H238135   5.843   3.681  15.588  0.4694 -0.6797 -0.1019
 5574TIP3   OH238136   3.563   6.353   1.252  0.2598 -0.0793  0.5764
 5574TIP3    H138137   3.602   6.268   1.272  0.7930 -0.3388 -1.4237
 5574TIP3    H238138   3.636   6.415   1.260  0.6993 -0.3088 -1.3184
 5575TIP3   OH238139   2.147   1.459  11.781 -0.7866 -0.1296 -0.6296
 5575TIP3    H138140   2.168   1.446  11.874 -1.4189 -1.5068 -0.6690
 5575TIP3    H238141   2.194   1.388  11.736 -1.8613 -0.4928 -1.1848
 5576TIP3   OH238142   0.246   1.762  11.666  0.2920  0.3157  0.9482
 5576TIP3    H138143   0.336   1.731  11.654 -0.1450 -0.4977 -0.3151
 5576TIP3    H238144   0.246   1.850  11.628  0.1717 -0.2971 -0.4914
 5577TIP3   OH238145   1.046   1.909  14.924  0.4113  0.1863 -0.2077
 5577TIP3    H138146   1.001   1.959  14.992  0.7686 -0.6584  0.6709
 5577TIP3    H238147   1.068   1.826  14.966  1.5986  0.0674 -1.0208
 5578TIP3   OH238148   2.486   5.565  16.576 -0.4310  0.1297  0.0232
 5578TIP3    H138149   2.579   5.585  16.587  0.0657 -0.4697 -2.7216
 5578TIP3    H238150   2.484   5.475  16.545 -1.9771  0.0105  0.4081
 5579TIP3   OH238151   4.814   5.165  16.903 -0.5331  0.4347  0.0599
 5579TIP3    H138152   4.792   5.077  16.936  1.9656  0.3767  1.6907
 5579TIP3    H238153   4.813   5.156  16.808  1.0874 -1.7755  0.2049
 5580TIP3   OH238154   2.364   4.557   5.446 -0.1162  0.1561 -0.3190
 5580TIP3    H138155   2.445   4.603   5.469  0.1890  0.5657 -2.1453
 5580TIP3    H238156   2.301   4.627   5.430 -0.3027 -0.1137 -0.7765
 5581TIP3   OH238157   4.928   6.390  14.758  0.4108  0.1050  0.2868
 5581TIP3    H138158   4.868   6.400  14.832  0.6752  1.2132  0.3529
 5581TIP3    H238159   4.920   6.472  14.709  2.1968  0.4510  0.5401
 5582TIP3   OH238160   2.097   5.340   4.487  0.5292 -0.5473  0.1308
 5582TIP3    H138161   2.121   5.357   4.578  0.8477 -1.2421  0.1798
 5582TIP3    H238162   2.143   5.407   4.438  0.4217 -0.2192  0.4754
 5583TIP3   OH238163   4.228   5.587   0.838  0.0637  0.1341  0.7802
 5583TIP3    H138164   4.169   5.629   0.901  0.2621  0.6961  0.5940
 5583TIP3    H238165   4.178   5.582   0.757  0.4907  1.1893  0.4469
 5584TIP3   OH238166   4.963   5.098  11.420 -0.3309 -0.1589 -0.6294
 5584TIP3    H138167   5.050   5.104  11.460  0.4467 -1.2518 -2.1265
 5584TIP3    H238168   4.939   5.189  11.401  0.4631  0.1490 -0.1659
 5585TIP3   OH238169   3.658   6.602   2.975  0.2020 -0.5748 -0.3128
 5585TIP3    H138170   3.702   6.624   3.057 -1.3420 -1.4879  0.7791
 5585TIP3    H238171   3.666   6.507   2.969 -1.6358 -0.7517 -0.0783
 5586TIP3   OH238172   3.711   4.536  17.222  0.4504  0.1405  0.3238
 5586TIP3    H138173   3.696   4.453  17.266 -0.1734  1.2035  2.1561
 5586TIP3    H238174   3.637   4.544  17.161 -0.1868 -0.0414  1.0720
 5587TIP3   OH238175   6.684   2.771   1.917 -0.0103 -0.2512  0.4922
 5587TIP3    H138176   6.777   2.790   1.910 -0.4650  2.4799  1.2051
 5587TIP3    H238177   6.663   2.785   2.009 -1.3301  0.2847  0.1362
 5588TIP3   OH238178   0.300   1.339   4.284  0.0757  0.6493 -0.1282
 5588TIP3    H138179   0.296   1.373   4.373 -3.0636  0.0918 -0.0101
 5588TIP3    H238180   0.259   1.407   4.230 -0.2594 -0.0668 -0.7861
 5589TIP3   OH238181   0.230   3.655   3.967 -0.4141 -0.1410 -0.2858
 5589TIP3    H138182   0.279   3.675   3.888 -2.1448  0.7532 -1.1594
 5589TIP3    H238183   0.247   3.728   4.026 -0.8927  0.3086 -0.6959
 5590TIP3   OH238184   6.457   5.870  15.872  0.0124 -0.2512  0.1846
 5590TIP3    H138185   6.479   5.895  15.962 -0.9782 -1.9658  0.9405
 5590TIP3    H238186   6.519   5.918  15.817  1.2803  0.0522  1.8413
 5591TIP3   OH238187   2.581   4.714   0.447 -0.2996 -0.3587 -0.3767
 5591TIP3    H138188   2.629   4.793   0.422 -0.5076  0.7454  2.6050
 5591TIP3    H238189   2.644   4.663   0.499 -1.3838 -0.3304  0.9843
 5592TIP3   OH238190   2.703   3.696  13.202 -0.3582 -0.5761 -0.0761
 5592TIP3    H138191   2.655   3.760  13.150  2.1980  0.9363 -0.6380
 5592TIP3    H238192   2.742   3.746  13.273  0.9725 -1.6338 -0.0373
 5593TIP3   OH238193   2.952   5.060  15.751  0.3535  0.4128 -0.5917
 5593TIP3    H138194   2.938   5.074  15.657  1.3685 -3.0596 -1.3064
 5593TIP3    H238195   2.872   5.019  15.782 -0.3286  2.3420  0.3009
 5594TIP3   OH238196   4.901   3.164  16.655  0.2508 -0.4280  0.2311
 5594TIP3    H138197   4.871   3.074  16.654 -0.4107 -0.2325  1.2877
 5594TIP3    H238198   4.822   3.216  16.637  0.6418 -0.0663 -0.4589
 5595TIP3   OH238199   0.883   1.037   2.085  0.2897 -0.3458  0.2214
 5595TIP3    H138200   0.810   0.977   2.096  1.3226 -1.6971 -0.2254
 5595TIP3    H238201   0.930   1.035   2.168 -0.2767  0.6640  0.5736
 5596TIP3   OH238202   6.276   5.330   1.978 -0.3635 -0.3610  0.0195
 5596TIP3    H138203   6.281   5.309   2.072 -0.5531  1.6610  0.5023
 5596TIP3    H238204   6.345   5.394   1.964 -0.5848 -0.3755 -1.1463
 5597TIP3   OH238205   3.655   6.220   3.640  0.0606 -0.1942 -0.4755
 5597TIP3    H138206   3.733   6.167   3.627  0.2783  0.2726 -1.0642
 5597TIP3    H238207   3.649   6.274   3.562 -0.1872  0.6112  0.0896
 5598TIP3   OH238208   6.022   5.371  15.294  0.3832 -0.3169 -0.0098
 5598TIP3    H138209   5.951   5.419  15.337  1.1048 -0.2140  1.0646
 5598TIP3    H238210   6.081   5.440  15.262  0.2637 -0.4229 -0.4731
 5599TIP3   OH238211   1.978   3.330  15.475 -0.2919  0.0872  0.0068
 5599TIP3    H138212   1.990   3.237  15.457  1.5728  0.2973  0.0890
 5599TIP3    H238213   1.975   3.336  15.570  0.3280  0.1962  0.0195
 5600TIP3   OH238214   0.298   1.867   0.986  0.4688 -0.0325  0.2575
 5600TIP3    H138215   0.289   1.772   1.001  1.7524 -0.2158 -0.1202
 5600TIP3    H238216   0.328   1.902   1.070  3.3890 -0.4536 -0.5801
 5601TIP3   OH238217   0.822   6.016  11.356  0.1808 -0.3015 -0.8540
 5601TIP3    H138218   0.849   5.925  11.370 -0.3255 -0.4872 -1.0478
 5601TIP3    H238219   0.876   6.067  11.415 -0.0462 -0.8088 -0.2011
 5602TIP3   OH238220   6.207   4.906  16.143 -0.2095 -0.5969 -0.1665
 5602TIP3    H138221   6.177   4.955  16.220 -0.7435 -1.4961  0.2055
 5602TIP3    H238222   6.256   4.970  16.092 -0.0127  0.0603  0.8275
 5603TIP3   OH238223   2.722   4.547   1.971  0.0812 -0.3020 -0.2376
 5603TIP3    H138224   2.689   4.486   1.905 -1.8701 -1.1402  1.4711
 5603TIP3    H238225   2.763   4.492   2.037  0.1432  0.3665  0.2866
 5604TIP3   OH238226   0.455   5.538  14.927 -0.1525  0.5719 -0.0623
 5604TIP3    H138227   0.445   5.445  14.907  0.3059  0.1381  1.6340
 5604TIP3    H238228   0.436   5.582  14.844  0.6997 -1.0749 -1.1807
 5605TIP3   OH238229   5.976   5.852  11.232  0.2402  0.0877  0.4181
 5605TIP3    H138230   5.900   5.853  11.290 -0.6240 -0.9008 -0.6694
 5605TIP3    H238231   6.006   5.943  11.229  0.7332  0.0329  2.9603
 5606TIP3   OH238232   1.738   3.440  17.035 -0.3981  0.5731 -0.6810
 5606TIP3    H138233   1.701   3.507  16.978  0.8134  0.5346 -1.5409
 5606TIP3    H238234   1.684   3.442  17.114 -1.4758  1.3145 -1.4357
 5607TIP3   OH238235   2.342   6.137   5.171  0.4499  0.1568 -1.0697
 5607TIP3    H138236   2.305   6.109   5.087  0.0519 -0.4368 -0.7014
 5607TIP3    H238237   2.387   6.220   5.151  0.5233 -0.0761 -1.9031
 5608TIP3   OH238238   4.369   1.002  13.689  0.0323  0.1042  0.1224
 5608TIP3    H138239   4.404   1.088  13.710  0.4415  0.2092 -0.9670
 5608TIP3    H238240   4.386   0.949  13.767 -0.4350  1.0726  0.8780
 5609TIP3   OH238241   3.094   1.710  15.091 -0.1254 -0.3348 -0.5110
 5609TIP3    H138242   3.140   1.791  15.071  2.2101 -1.7375 -1.1515
 5609TIP3    H238243   3.118   1.691  15.182  1.0160 -1.3047 -0.9878
 5610TIP3   OH238244   5.226   2.116   0.587 -0.2637 -0.3104 -0.3195
 5610TIP3    H138245   5.286   2.043   0.600 -0.9496 -1.0962 -1.3840
 5610TIP3    H238246   5.265   2.167   0.517  1.3927  1.6658  1.9883
 5611TIP3   OH238247   0.686   0.881   2.418 -0.2627  0.0272 -0.2195
 5611TIP3    H138248   0.691   0.834   2.501  0.4975 -0.0102 -0.2847
 5611TIP3    H238249   0.677   0.973   2.442 -4.0206 -0.3058 -0.0584
 5612TIP3   OH238250   4.381   3.126   1.340  0.2059  0.5988 -0.3954
 5612TIP3    H138251   4.473   3.137   1.316  0.6976  0.1039  1.2221
 5612TIP3    H238252   4.373   3.169   1.425 -0.2418 -2.2678  1.0847
 5613TIP3   OH238253   4.147   2.819  14.847 -0.2608 -0.4911  0.3070
 5613TIP3    H138254   4.120   2.907  14.873  0.2049 -1.1355  3.1950
 5613TIP3    H238255   4.066   2.768  14.845 -0.3642 -0.3135 -0.0195
 5614TIP3   OH238256   2.548   4.918   1.606  0.4667 -0.1302 -0.0070
 5614TIP3    H138257   2.629   4.969   1.606  0.1504  0.5491 -3.3121
 5614TIP3    H238258   2.481   4.981   1.579 -0.7411 -1.2030  0.4750
 5615TIP3   OH238259   4.063   0.219  13.765 -0.2139 -0.0229 -0.3251
 5615TIP3    H138260   3.997   0.276  13.726 -0.3925 -0.2907 -0.4134
 5615TIP3    H238261   4.021   0.133  13.771  0.1526 -0.2145 -0.4531
 5616TIP3   OH238262   4.844   4.393  10.788 -0.0124  0.1053 -0.2384
 5616TIP3    H138263   4.922   4.341  10.805  0.2543  0.0757 -1.5348
 5616TIP3    H238264   4.771   4.337  10.814  0.3357 -0.3449 -0.2276
 5617TIP3   OH238265   3.499   6.294   0.781 -0.1052 -0.8180  0.1632
 5617TIP3    H138266   3.470   6.286   0.872  1.3995  0.1472  0.7470
 5617TIP3    H238267   3.455   6.373   0.750 -1.3317 -1.6455 -0.2444
 5618TIP3   OH238268   4.648   6.540   5.044 -0.2422 -0.0892 -0.4552
 5618TIP3    H138269   4.673   6.516   5.133  1.1739 -2.8901 -1.5836
 5618TIP3    H238270   4.710   6.609   5.019  1.0576 -1.1691 -0.2341
 5619TIP3   OH238271   1.923   5.066   4.233 -0.1608  0.3986  0.6603
 5619TIP3    H138272   1.888   4.983   4.264 -1.2752  0.9424  0.8580
 5619TIP3    H238273   2.017   5.061   4.254 -0.5405 -0.0423  2.3308
 5620TIP3   OH238274   6.517   1.898  11.089 -0.2153  0.8009 -0.0554
 5620TIP3    H138275   6.479   1.811  11.096 -0.6728  1.0989  1.2968
 5620TIP3    H238276   6.588   1.888  11.025 -0.8366 -0.3542 -0.5771
 5621TIP3   OH238277   2.677   3.040  16.142  0.0222 -0.0183 -0.2885
 5621TIP3    H138278   2.735   2.966  16.161  1.5659  1.1049 -0.4837
 5621TIP3    H238279   2.682   3.095  16.220 -0.9271  0.0057 -0.2403
 5622TIP3   OH238280   6.046   3.980   0.414  0.0755 -0.7876  0.2292
 5622TIP3    H138281   6.096   3.924   0.473  1.5857  0.0299 -0.2490
 5622TIP3    H238282   6.090   4.065   0.417  0.6521 -0.9242 -2.6503
 5623TIP3   OH238283   6.371   0.120   1.527 -0.0707  0.5187  0.0147
 5623TIP3    H138284   6.300   0.157   1.579  1.1842  1.2103  1.2537
 5623TIP3    H238285   6.401   0.192   1.472  1.4380  0.9905  1.4210
 5624TIP3   OH238286   3.438   2.307  13.769 -0.6389  0.1913 -0.3955
 5624TIP3    H138287   3.478   2.372  13.711 -0.3037  0.5849  0.2689
 5624TIP3    H238288   3.512   2.256  13.801 -0.9297 -0.7164 -1.1456
 5625TIP3   OH238289   3.454   3.582   0.977  0.5669 -0.0103  0.0480
 5625TIP3    H138290   3.373   3.633   0.981  0.3382 -0.3313 -0.4934
 5625TIP3    H238291   3.434   3.500   1.022  0.9710  0.4218  1.0260
 5626TIP3   OH238292   5.972   6.238   4.798  0.0315  0.2537 -0.3435
 5626TIP3    H138293   5.996   6.163   4.744 -0.2745  0.4369 -0.7322
 5626TIP3    H238294   5.948   6.199   4.883 -0.8702 -0.1568 -0.7801
 5627TIP3   OH238295   2.667   0.120  14.990  0.4159  0.1307  0.3586
 5627TIP3    H138296   2.690   0.197  15.042 -0.7346 -0.0539  1.1759
 5627TIP3    H238297   2.682   0.046  15.049  0.6545 -0.1951 -0.1144
 5628TIP3   OH238298   2.270   4.237   6.588  0.1192 -0.4343 -0.3241
 5628TIP3    H138299   2.302   4.174   6.653 -1.3272 -0.9506 -0.0802
 5628TIP3    H238300   2.294   4.199   6.504 -1.0621 -1.5049 -0.1886
 5629TIP3   OH238301   1.725   2.668  12.536  0.1625 -0.0333 -0.2274
 5629TIP3    H138302   1.670   2.614  12.479 -0.4162  1.2200 -0.8804
 5629TIP3    H238303   1.733   2.751  12.490 -1.3734  1.4546  2.1019
 5630TIP3   OH238304   3.089   6.183  13.241 -0.0830  0.4206  0.2746
 5630TIP3    H138305   3.145   6.260  13.239 -0.2712  0.5736  0.7083
 5630TIP3    H238306   3.147   6.111  13.267 -0.1691  0.6535  1.1308
 5631TIP3   OH238307   6.094   2.990   2.904  0.0703  0.8427 -0.1615
 5631TIP3    H138308   6.162   3.035   2.854 -1.0977  2.5968 -0.1811
 5631TIP3    H238309   6.038   2.949   2.837 -0.2457  1.3752 -0.2247
 5632TIP3   OH238310   3.043   5.666   6.059  0.1768  0.4711  0.7014
 5632TIP3    H138311   3.034   5.761   6.068  3.2847  1.0105 -1.0582
 5632TIP3    H238312   3.123   5.646   6.109  0.3471 -0.9845 -0.1498
 5633TIP3   OH238313   5.127   4.519  14.704  0.0390 -0.4323 -0.1451
 5633TIP3    H138314   5.076   4.444  14.735  1.2373 -0.1591  2.6741
 5633TIP3    H238315   5.204   4.482  14.662  1.1338 -0.8337  2.1374
 5634TIP3   OH238316   2.171   5.917   1.119 -0.2501  0.5061 -0.3548
 5634TIP3    H138317   2.153   5.896   1.211 -0.9738  1.6240 -0.2217
 5634TIP3    H238318   2.265   5.903   1.109 -0.6056 -2.2805 -0.1762
 5635TIP3   OH238319   0.724   1.721   3.524 -0.1134 -0.0614 -0.1923
 5635TIP3    H138320   0.680   1.641   3.550  2.2830 -1.3725 -0.0463
 5635TIP3    H238321   0.774   1.697   3.446  1.6097  0.9467  0.5702
 5636TIP3   OH238322   3.593   4.785   2.604 -0.4055 -0.1040 -0.0525
 5636TIP3    H138323   3.530   4.718   2.633 -0.2201 -0.9283 -1.4937
 5636TIP3    H238324   3.540   4.863   2.590 -1.0788 -0.6995 -0.9304
 5637TIP3   OH238325   0.686   0.040   2.579  0.0040 -0.2823  0.2319
 5637TIP3    H138326   0.748   0.088   2.524  0.5244  1.3156  2.1264
 5637TIP3    H238327   0.601   0.078   2.557  0.0282 -0.6392 -0.4849
 5638TIP3   OH238328   1.539   5.483  11.379 -0.2137  0.1649 -0.0978
 5638TIP3    H138329   1.617   5.506  11.430 -0.9354  1.1738  0.5760
 5638TIP3    H238330   1.484   5.562  11.383 -0.3955  0.1643 -2.2311
 5639TIP3   OH238331   5.325   4.550  15.723  0.1799 -0.0494  0.6760
 5639TIP3    H138332   5.258   4.617  15.712  0.5802  0.0774 -1.0249
 5639TIP3    H238333   5.308   4.486  15.654  0.3065 -1.3043  1.7645
 5640TIP3   OH238334   1.344   6.233   5.019 -0.0550 -0.5161 -0.3575
 5640TIP3    H138335   1.381   6.197   4.938  1.9652  0.2970  0.1723
 5640TIP3    H238336   1.288   6.305   4.989  0.0550 -0.7341 -1.0978
 5641TIP3   OH238337   6.586   1.746   4.905 -0.1467 -0.0095 -0.4583
 5641TIP3    H138338   6.671   1.783   4.928  0.6827 -1.0063 -1.8739
 5641TIP3    H238339   6.568   1.682   4.974  0.4010 -0.0408 -0.3455
 5642TIP3   OH238340   3.335   5.473  15.000  0.1531  0.0686  0.6044
 5642TIP3    H138341   3.356   5.494  14.909  1.0484 -3.1818  0.0027
 5642TIP3    H238342   3.415   5.494  15.049  0.6467 -0.8127  0.1877
 5643TIP3   OH238343   2.321   5.384  16.872  0.1280 -0.6091  0.2406
 5643TIP3    H138344   2.258   5.383  16.944  0.3137 -0.1665  0.4121
 5643TIP3    H238345   2.405   5.362  16.912  0.1260 -0.9433  0.0567
 5644TIP3   OH238346   2.584   5.962  13.527  0.2299  0.0589  0.0931
 5644TIP3    H138347   2.646   5.994  13.461  0.3629 -1.6138 -0.6159
 5644TIP3    H238348   2.573   6.036  13.587 -0.1137  1.7082 -1.9550
 5645TIP3   OH238349   2.617   2.869  13.191  0.1397 -0.4324  0.2501
 5645TIP3    H138350   2.584   2.817  13.265 -0.6193  1.4580  1.2704
 5645TIP3    H238351   2.694   2.914  13.225  0.9525 -1.0825 -0.7116
 5646TIP3   OH238352   5.059   3.740   5.927  0.3797  0.0462 -0.3250
 5646TIP3    H138353   5.097   3.667   5.880 -0.8317 -1.1605  0.5317
 5646TIP3    H238354   5.044   3.707   6.016 -1.7548  0.7778 -0.3810
 5647TIP3   OH238355   5.149   1.743   0.962  0.3828  0.2138 -0.4856
 5647TIP3    H138356   5.211   1.692   1.015 -1.6275 -0.6956  1.0696
 5647TIP3    H238357   5.163   1.834   0.990  0.6521 -0.0454  0.2508
 5648TIP3   OH238358   2.374   3.576  16.611 -0.0668  0.1494 -0.0106
 5648TIP3    H138359   2.289   3.533  16.610 -0.1918  0.3478  1.3730
 5648TIP3    H238360   2.377   3.626  16.529 -0.4811 -1.3644 -0.9708
 5649TIP3   OH238361   4.699   1.826   4.390  0.4607  0.1482 -0.2262
 5649TIP3    H138362   4.619   1.878   4.390  0.8144  0.7480 -3.1080
 5649TIP3    H238363   4.672   1.739   4.360  1.0896  0.7287 -2.5362
 5650TIP3   OH238364   2.223   2.758   4.606 -0.9314  0.2298 -0.2348
 5650TIP3    H138365   2.230   2.726   4.696 -0.6467 -0.6297 -0.5620
 5650TIP3    H238366   2.204   2.680   4.554  0.7232  0.4235 -1.1656
 5651TIP3   OH238367   4.125   5.705   1.510 -0.1306 -0.4807 -0.0908
 5651TIP3    H138368   4.178   5.691   1.431  0.1795  0.8780 -0.1289
 5651TIP3    H238369   4.113   5.799   1.515 -1.8842 -0.7116  0.3745
 5652TIP3   OH238370   0.689   6.481   0.750  0.4572 -0.0110 -0.1479
 5652TIP3    H138371   0.741   6.402   0.736  1.1707 -0.0991  2.7444
 5652TIP3    H238372   0.737   6.550   0.706  1.5350 -0.6043  0.0888
 5653TIP3   OH238373   2.432   2.186   3.498  0.5697 -0.5131 -0.3561
 5653TIP3    H138374   2.423   2.170   3.592  0.3653  0.1815 -0.2526
 5653TIP3    H238375   2.380   2.117   3.457 -1.8521  0.9571  0.1288
 5654TIP3   OH238376   3.706   0.073   5.673 -0.2115 -0.3719  0.2963
 5654TIP3    H138377   3.701   0.169   5.669  0.3688 -0.4121 -2.1605
 5654TIP3    H238378   3.617   0.046   5.694 -0.5319  0.6845  0.3589
 5655TIP3   OH238379   1.356   1.221   3.648  0.7659 -0.9078  0.1151
 5655TIP3    H138380   1.261   1.215   3.647  0.5969  1.3668  0.0380
 5655TIP3    H238381   1.382   1.199   3.558  0.2751 -0.7406 -0.0669
 5656TIP3   OH238382   1.385   3.056   1.594  0.2091 -0.0230 -0.0212
 5656TIP3    H138383   1.367   3.148   1.610 -0.2580 -0.3232  1.2268
 5656TIP3    H238384   1.298   3.015   1.589  0.2816  0.0357 -3.3789
 5657TIP3   OH238385   4.239   2.883   1.244 -0.3426 -0.4895 -0.8775
 5657TIP3    H138386   4.203   2.970   1.230 -1.1959 -0.7559 -0.3842
 5657TIP3    H238387   4.166   2.832   1.280  0.8402 -0.7576  1.1856
 5658TIP3   OH238388   4.931   2.634   0.606 -0.3769  0.3872 -0.3938
 5658TIP3    H138389   4.863   2.694   0.575  0.4190  1.9746  0.9029
 5658TIP3    H238390   5.010   2.687   0.610  0.2750 -0.6825  1.0430
 5659TIP3   OH238391   0.167   1.096  14.601 -0.3293  0.9169  0.0756
 5659TIP3    H138392   0.127   1.182  14.585  2.3183  2.4698  1.3930
 5659TIP3    H238393   0.168   1.054  14.515 -1.2632  2.3940 -0.6834
 5660TIP3   OH238394   3.008   0.051   5.604  0.5801  0.8471 -0.1690
 5660TIP3    H138395   3.022   0.075   5.512  1.0910  1.1403 -0.0134
 5660TIP3    H238396   3.028  -0.043   5.606 -1.1124  0.4561 -0.7066
 5661TIP3   OH238397   3.653   6.041   0.376  0.0803 -0.0508 -0.2847
 5661TIP3    H138398   3.649   6.133   0.351  2.2086 -0.0398 -0.6302
 5661TIP3    H238399   3.637   6.040   0.470  3.5355  1.0375  0.3644
 5662TIP3   OH238400   6.156   2.410   2.870  0.3332  0.0884  0.0399
 5662TIP3    H138401   6.173   2.504   2.880  0.4818  0.1125 -0.4572
 5662TIP3    H238402   6.063   2.401   2.891  0.1876  0.4301 -0.4612
 5663TIP3   OH238403   5.893   1.526   1.175 -0.7073  0.1296 -0.1129
 5663TIP3    H138404   5.867   1.562   1.260 -1.9225 -1.9453  0.4054
 5663TIP3    H238405   5.977   1.482   1.192 -1.5119 -1.2724  0.2785
 5664TIP3   OH238406   6.253   3.166  11.588 -0.2720  0.7962  0.0903
 5664TIP3    H138407   6.191   3.195  11.521  0.5219 -1.0006 -1.4535
 5664TIP3    H238408   6.202   3.107  11.644 -0.1914  0.0203 -0.6492
 5665TIP3   OH238409   0.000   1.224   4.635  0.3566 -0.5988  0.2869
 5665TIP3    H138410  -0.073   1.279   4.606  1.0740  0.9499  1.3074
 5665TIP3    H238411   0.049   1.280   4.696  2.5687 -1.4822 -0.6306
 5666TIP3   OH238412   4.380   5.742   2.349  0.2654 -0.6081  0.1892
 5666TIP3    H138413   4.318   5.790   2.294  0.3299  0.7040  1.2252
 5666TIP3    H238414   4.449   5.805   2.369 -0.2000 -0.7582  2.4770
 5667TIP3   OH238415   0.895   5.001  16.763  0.0658  0.7316 -0.0716
 5667TIP3    H138416   0.974   4.958  16.797  1.5065  1.9238 -1.8121
 5667TIP3    H238417   0.920   5.031  16.675 -2.2315  1.4212 -0.5179
 5668TIP3   OH238418   5.488   3.680   2.206  0.1595  0.2227  0.4153
 5668TIP3    H138419   5.458   3.592   2.232  1.4183  0.1018  1.5236
 5668TIP3    H238420   5.584   3.673   2.207  0.2530  1.4331 -0.1369
 5669TIP3   OH238421   0.168   6.762   3.717 -1.0187  0.0292 -0.4603
 5669TIP3    H138422   0.229   6.739   3.786 -2.0323  1.4794  0.9520
 5669TIP3    H238423   0.222   6.803   3.649 -0.6438  3.2087  1.6596
 5670TIP3   OH238424   1.697   3.560  12.962  0.5096 -0.0359  0.0765
 5670TIP3    H138425   1.646   3.623  13.013  1.1018 -0.6624  1.4772
 5670TIP3    H238426   1.656   3.476  12.981  1.1801 -0.3623  0.0789
 5671TIP3   OH238427   4.214   0.537   0.783 -0.2866 -0.1236  0.2852
 5671TIP3    H138428   4.189   0.612   0.838 -0.2794 -0.6038  0.9547
 5671TIP3    H238429   4.229   0.466   0.846 -1.0986 -0.9127 -0.4052
 5672TIP3   OH238430   6.352   1.189  11.577  0.0378  0.5940 -0.1973
 5672TIP3    H138431   6.353   1.284  11.565 -0.4984  0.7869  1.1744
 5672TIP3    H238432   6.261   1.164  11.565  0.4438 -0.0188 -2.3316
 5673TIP3   OH238433   0.970   3.903   3.735  0.0388 -0.3281  0.2188
 5673TIP3    H138434   0.982   3.814   3.702 -1.5811 -1.1445  1.8339
 5673TIP3    H238435   0.880   3.926   3.712  0.6404  1.1766 -0.7802
 5674TIP3   OH238436   6.333   4.430   1.951  0.0558  0.4458 -0.1402
 5674TIP3    H138437   6.253   4.431   2.005  0.9439  0.9774  1.1896
 5674TIP3    H238438   6.395   4.378   2.001 -0.1165 -1.8205 -2.1909
 5675TIP3   OH238439   2.051   5.378   5.603  0.0383 -0.5946  0.0148
 5675TIP3    H138440   2.119   5.444   5.620 -0.4631 -0.4865  1.8045
 5675TIP3    H238441   2.081   5.300   5.650 -0.9886 -0.5811  0.7188
 5676TIP3   OH238442   1.813   4.417  14.209  0.0555  0.2253 -0.1729
 5676TIP3    H138443   1.735   4.390  14.160  1.0386 -0.3642 -1.4373
 5676TIP3    H238444   1.886   4.379  14.160  1.1937  1.5298  0.5021
 5677TIP3   OH238445   5.247   6.151  15.046 -0.3960 -0.1036  0.0882
 5677TIP3    H138446   5.212   6.167  14.958 -0.1805  0.2706  0.0737
 5677TIP3    H238447   5.338   6.125  15.032  0.5139  2.7569  0.3728
 5678TIP3   OH238448   1.463   0.122  11.379  0.4204  0.2259 -0.0984
 5678TIP3    H138449   1.490   0.039  11.339 -1.7393 -1.0387  1.0044
 5678TIP3    H238450   1.541   0.151  11.427  2.0375  0.1881 -2.6020
 5679TIP3   OH238451   0.623   3.447  16.946  0.0698 -0.0575 -0.6519
 5679TIP3    H138452   0.662   3.535  16.948 -1.0704  0.4790 -1.3583
 5679TIP3    H238453   0.671   3.398  17.012  2.8353  0.2084 -2.4016
 5680TIP3   OH238454   4.718   0.968   2.383  0.1993  0.5786 -0.3072
 5680TIP3    H138455   4.706   0.978   2.288 -0.9350 -1.1208 -0.3657
 5680TIP3    H238456   4.631   0.986   2.420 -0.2486 -2.1705  0.1002
 5681TIP3   OH238457   6.135   3.191   5.589 -0.3782 -0.6867 -0.1769
 5681TIP3    H138458   6.092   3.182   5.505  0.5249  0.8340 -0.8228
 5681TIP3    H238459   6.222   3.225   5.568 -0.1129 -0.3732  1.3544
 5682TIP3   OH238460   0.850   4.746   4.639 -0.7163  0.5487 -0.9270
 5682TIP3    H138461   0.873   4.831   4.602 -0.6835  0.2734 -1.5478
 5682TIP3    H238462   0.784   4.766   4.706 -1.2506  0.9960 -1.5741
 5683TIP3   OH238463   0.434   0.608  11.646 -0.5154 -0.6035 -0.0427
 5683TIP3    H138464   0.519   0.581  11.680 -0.0416  0.6596 -0.1973
 5683TIP3    H238465   0.386   0.640  11.722 -0.9810 -1.6301  0.1001
 5684TIP3   OH238466   5.657   4.261   4.604 -0.1966  0.2571  0.2575
 5684TIP3    H138467   5.637   4.261   4.510  1.1920 -0.4328 -0.0541
 5684TIP3    H238468   5.690   4.349   4.621 -1.9454  0.8946  0.4473
 5685TIP3   OH238469   3.813   0.284   1.136 -0.1255 -0.0959  0.0931
 5685TIP3    H138470   3.731   0.250   1.171 -1.1721  0.8005 -1.4285
 5685TIP3    H238471   3.877   0.215   1.154 -1.9562 -2.4263 -1.8724
 5686TIP3   OH238472   2.870   3.499  13.132 -0.5709  0.3783  0.6287
 5686TIP3    H138473   2.897   3.445  13.207 -2.4741 -0.9868  0.3506
 5686TIP3    H238474   2.811   3.565  13.170  1.4229  2.0647  0.9006
 5687TIP3   OH238475   1.416   5.253   6.714 -0.5176 -0.2230  0.2785
 5687TIP3    H138476   1.391   5.175   6.764 -2.1525  0.2443  0.2234
 5687TIP3    H238477   1.475   5.221   6.646 -0.8623 -1.3514  0.5117
 5688TIP3   OH238478   6.131   1.466  16.269  0.1645  0.1976 -0.0417
 5688TIP3    H138479   6.084   1.497  16.347  0.4946 -0.4612  0.4170
 5688TIP3    H238480   6.129   1.541  16.209 -1.7205  0.0923 -0.1430
 5689TIP3   OH238481   3.592   4.165  13.429 -0.2243 -0.1392 -0.1935
 5689TIP3    H138482   3.579   4.214  13.347 -0.4600  0.8430  0.4225
 5689TIP3    H238483   3.525   4.199  13.488  1.3792  0.7766  1.1400
 5690TIP3   OH238484   0.982   1.466   2.919 -0.2803  0.1075  0.0296
 5690TIP3    H138485   0.932   1.387   2.900 -0.2027  0.0186  0.1938
 5690TIP3    H238486   0.918   1.537   2.911 -0.3881  0.0133  0.0429
 5691TIP3   OH238487   5.008   1.703  12.162 -0.5119 -0.0254 -0.5305
 5691TIP3    H138488   5.025   1.771  12.098  0.7887  0.4351  0.2898
 5691TIP3    H238489   5.042   1.738  12.245 -1.1319 -1.0688  0.1863
 5692TIP3   OH238490   1.464   2.177  12.863  0.7941 -0.8589 -0.1470
 5692TIP3    H138491   1.459   2.164  12.768  0.9542  2.1742 -0.6289
 5692TIP3    H238492   1.372   2.180  12.892  0.6675  1.1215 -0.6862
 5693TIP3   OH238493   1.009   3.578   5.552  0.3766 -0.1737  0.0228
 5693TIP3    H138494   0.963   3.649   5.596  0.4495 -0.8157  1.1619
 5693TIP3    H238495   0.974   3.577   5.463 -1.7710 -0.6094  0.8359
 5694TIP3   OH238496   4.234   5.565  16.404  0.0092  0.3857  0.5719
 5694TIP3    H138497   4.252   5.567  16.310 -4.0905 -0.6661 -0.3189
 5694TIP3    H238498   4.214   5.656  16.427 -0.4915  0.3998  0.0848
 5695TIP3   OH238499   6.548   6.739  16.198  0.3383  0.0251 -0.6749
 5695TIP3    H138500   6.566   6.833  16.208 -2.4396  0.7112 -1.4641
 5695TIP3    H238501   6.524   6.710  16.286  4.0708 -0.6791  0.1838
 5696TIP3   OH238502   3.192   4.366   5.229  0.2593  0.0559  0.3575
 5696TIP3    H138503   3.279   4.351   5.265  1.1788  1.4138 -1.2658
 5696TIP3    H238504   3.206   4.426   5.155 -1.5978 -2.4250 -2.1081
 5697TIP3   OH238505   3.369   0.024   0.811 -0.5431  0.0832 -0.1005
 5697TIP3    H138506   3.293   0.049   0.759 -0.5912 -0.6920 -0.4033
 5697TIP3    H238507   3.341  -0.054   0.860 -0.2392  0.3281  0.4772
 5698TIP3   OH238508   1.102   4.524  16.155  0.7652  0.6316  0.3875
 5698TIP3    H138509   1.096   4.618  16.176 -0.7216  0.1288  2.4310
 5698TIP3    H238510   1.155   4.487  16.225 -0.1757 -0.3250  0.6113
 5699TIP3   OH238511   2.531   5.761  10.983 -0.2793 -0.8671 -0.7058
 5699TIP3    H138512   2.471   5.696  10.947 -0.2493 -1.2293 -0.1050
 5699TIP3    H238513   2.570   5.802  10.906 -1.1949 -0.7221 -1.0990
 5700TIP3   OH238514   6.417   3.614   6.539 -0.4738  0.1089 -0.1764
 5700TIP3    H138515   6.465   3.638   6.460  0.4827 -1.5694 -0.1452
 5700TIP3    H238516   6.375   3.531   6.516 -1.3122  0.3142  0.6252
 5701TIP3   OH238517   4.785   0.413  15.253 -0.1420 -0.3649 -0.2967
 5701TIP3    H138518   4.815   0.325  15.228 -1.0271 -0.7907  0.0944
 5701TIP3    H238519   4.734   0.444  15.178  1.3873  0.4301 -1.0309
 5702TIP3   OH238520   0.790   5.504   0.820 -0.5132  0.2966 -0.1268
 5702TIP3    H138521   0.846   5.449   0.765 -0.1448  1.0292 -0.4930
 5702TIP3    H238522   0.833   5.505   0.905 -1.1449 -0.9340  0.2074
 5703TIP3   OH238523   0.842   0.172  13.222 -0.3098 -0.0666 -0.1403
 5703TIP3    H138524   0.823   0.205  13.134  1.4517  4.0790  0.9277
 5703TIP3    H238525   0.918   0.115  13.210  0.3707  1.0417 -1.2696
 5704TIP3   OH238526   3.043   1.552   1.387 -0.1818 -0.4200 -0.2243
 5704TIP3    H138527   3.032   1.544   1.481  1.6318 -1.4912 -0.0931
 5704TIP3    H238528   3.120   1.608   1.376 -0.9472  0.4872 -1.0774
 5705TIP3   OH238529   2.330   3.837   1.128  0.1552 -0.2460  0.6123
 5705TIP3    H138530   2.327   3.930   1.105  0.6510 -0.1994  0.7398
 5705TIP3    H238531   2.422   3.819   1.145 -0.1149 -0.4268  1.9643
 5706TIP3   OH238532   0.241   6.628   2.084  0.4517  0.3269 -0.4102
 5706TIP3    H138533   0.239   6.598   2.175 -0.0877 -1.1670 -0.8945
 5706TIP3    H238534   0.333   6.620   2.058  0.2967 -1.0179 -0.5625
 5707TIP3   OH238535   5.136   6.555   4.569 -0.1083  0.2429  0.4051
 5707TIP3    H138536   5.157   6.642   4.602 -0.2074 -0.1772  1.5852
 5707TIP3    H238537   5.221   6.514   4.552 -0.0591  0.4541  0.1348
 5708TIP3   OH238538   4.354   5.159  14.670 -0.2157 -0.2934 -0.3506
 5708TIP3    H138539   4.417   5.164  14.742 -0.7178  1.3253  0.0066
 5708TIP3    H238540   4.402   5.115  14.599  1.8189  2.1321 -0.5712
 5709TIP3   OH238541   4.007   3.865   2.966  0.1576 -0.1451  0.3778
 5709TIP3    H138542   3.937   3.801   2.949 -0.8544  1.1306 -0.3463
 5709TIP3    H238543   3.967   3.950   2.948  1.2488  0.7717  2.1114
 5710TIP3   OH238544   1.303   5.104   4.816 -0.1624  0.3649 -0.6322
 5710TIP3    H138545   1.350   5.187   4.827 -1.5538  1.0520  0.3316
 5710TIP3    H238546   1.210   5.127   4.828 -0.6434 -1.1705 -1.2782
 5711TIP3   OH238547   0.774   4.421   2.317  0.6757 -0.4314  0.3384
 5711TIP3    H138548   0.726   4.496   2.283 -0.1702 -1.4377 -0.7267
 5711TIP3    H238549   0.725   4.396   2.396 -0.3773 -1.2630 -0.5713
 5712TIP3   OH238550   1.844   1.601  12.517  0.1144 -0.3108  0.2929
 5712TIP3    H138551   1.801   1.516  12.524  0.7229 -0.5500  1.2294
 5712TIP3    H238552   1.778   1.664  12.544  0.2643 -0.6590  1.5281
 5713TIP3   OH238553   5.063   4.056   4.201  0.4664 -0.1634  0.3313
 5713TIP3    H138554   5.155   4.032   4.196  0.4326 -0.5807  1.5602
 5713TIP3    H238555   5.052   4.090   4.289  0.3277  3.7231 -1.1166
 5714TIP3   OH238556   0.666   5.978  13.243 -0.3552 -1.1333 -0.8230
 5714TIP3    H138557   0.604   6.031  13.193  0.1776  0.8239  0.5404
 5714TIP3    H238558   0.658   6.010  13.333  2.2743 -1.1947 -0.5436
 5715TIP3   OH238559   1.409   0.535  10.687 -0.1533  0.5274  0.0342
 5715TIP3    H138560   1.315   0.529  10.707 -0.5024  0.3327 -1.5484
 5715TIP3    H238561   1.437   0.443  10.679  0.0931  0.5940  0.1349
 5716TIP3   OH238562   2.256   5.119   1.245 -0.7654  0.3336  0.7483
 5716TIP3    H138563   2.194   5.144   1.176 -2.0345  0.2845  1.8686
 5716TIP3    H238564   2.313   5.054   1.203 -0.4917  1.5052 -0.7406
 5717TIP3   OH238565   3.288   6.116   0.762 -0.1358  0.2591  0.3510
 5717TIP3    H138566   3.351   6.188   0.759  0.0876  0.0553  0.1915
 5717TIP3    H238567   3.341   6.037   0.767 -0.2910 -0.0994 -2.6820
 5718TIP3   OH238568   5.571   4.558   4.650 -0.6671  0.1982 -0.2675
 5718TIP3    H138569   5.531   4.637   4.685 -2.0972 -0.0376 -1.3498
 5718TIP3    H238570   5.582   4.575   4.557  0.7270 -0.1844 -0.1915
 5719TIP3   OH238571   6.443   4.167   4.193  0.1743 -0.3790 -0.3477
 5719TIP3    H138572   6.508   4.202   4.133  0.2167 -0.0653 -0.1169
 5719TIP3    H238573   6.359   4.190   4.153  0.1756 -2.4278 -1.6332
 5720TIP3   OH238574   4.174   5.640  13.747 -0.2909  0.4872  0.3742
 5720TIP3    H138575   4.223   5.626  13.666  0.8861 -0.9339  1.2863
 5720TIP3    H238576   4.110   5.569  13.748 -1.2593  1.3522 -0.0003
 5721TIP3   OH238577   6.555   1.786  13.048  0.0970 -0.4308 -0.2568
 5721TIP3    H138578   6.497   1.724  13.092 -1.3461  0.9385 -0.1853
 5721TIP3    H238579   6.518   1.794  12.959  0.5423 -0.0296 -0.4052
 5722TIP3   OH238580   6.519   1.797   3.343 -0.3831  0.1102 -0.1155
 5722TIP3    H138581   6.504   1.704   3.327  0.6292  0.1722 -1.6618
 5722TIP3    H238582   6.595   1.800   3.402 -0.6501 -0.0537  0.2325
 5723TIP3   OH238583   2.009   6.385   1.709  0.2750 -0.2021 -0.1195
 5723TIP3    H138584   1.976   6.362   1.621  0.2322  1.0599 -0.4364
 5723TIP3    H238585   1.963   6.466   1.731  0.5383 -0.3395  0.9354
 5724TIP3   OH238586   4.272   4.618  12.016 -0.2248 -0.0070 -0.3971
 5724TIP3    H138587   4.258   4.538  11.964  0.5857  0.0906 -0.7756
 5724TIP3    H238588   4.353   4.601  12.065 -1.7190 -0.6557  1.9258
 5725TIP3   OH238589   1.234   2.935  10.857  0.6317 -0.2547 -0.0154
 5725TIP3    H138590   1.243   3.026  10.826  0.2818 -0.5016 -0.8694
 5725TIP3    H238591   1.268   2.882  10.785 -0.0219 -0.8352  0.1009
 5726TIP3   OH238592   3.291   1.656  10.619  0.3639  0.2551  0.1352
 5726TIP3    H138593   3.279   1.586  10.683  1.6444  0.7162  0.8884
 5726TIP3    H238594   3.282   1.613  10.534 -0.7694 -0.4629  0.6100
 5727TIP3   OH238595   4.367   4.666   1.954 -0.4263  0.2073  0.0108
 5727TIP3    H138596   4.340   4.618   1.875  0.1650 -1.3103  0.7177
 5727TIP3    H238597   4.285   4.698   1.992 -0.7227  0.8522 -1.1600
 5728TIP3   OH238598   4.502   0.171  17.023  0.1362  0.0651  0.4408
 5728TIP3    H138599   4.588   0.142  16.994 -1.0616 -0.1445 -3.1019
 5728TIP3    H238600   4.487   0.123  17.105  3.0227 -0.4474  0.7228
 5729TIP3   OH238601   5.631   0.050  13.304  0.5007 -0.6770 -0.0037
 5729TIP3    H138602   5.689  -0.001  13.361  0.1208  1.9955  2.9543
 5729TIP3    H238603   5.607   0.125  13.358 -1.9544  0.6566 -2.8831
 5730TIP3   OH238604   4.521   2.525  11.387  0.2060 -0.3832 -0.0589
 5730TIP3    H138605   4.562   2.589  11.329  2.4998 -1.4182  0.3719
 5730TIP3    H238606   4.590   2.501  11.449 -1.7458 -0.4378  2.1540
 5731TIP3   OH238607   5.265   2.432  13.670  0.4894 -0.0012 -0.2067
 5731TIP3    H138608   5.319   2.378  13.613  0.8791  1.7417 -1.5498
 5731TIP3    H238609   5.223   2.494  13.610 -1.9064 -0.4089  0.9825
 5732TIP3   OH238610   0.190   5.307  11.906 -1.2556 -0.2503  0.5198
 5732TIP3    H138611   0.244   5.368  11.956 -0.7800  0.0010 -0.2919
 5732TIP3    H238612   0.231   5.221  11.921  0.2624  0.1321 -1.2572
 5733TIP3   OH238613   6.437   1.101  15.691 -0.8207  0.3295 -0.5568
 5733TIP3    H138614   6.512   1.067  15.643 -0.1788  1.3595 -0.3124
 5733TIP3    H238615   6.381   1.025  15.706  0.7398 -0.6706  0.2951
 5734TIP3   OH238616   5.209   0.093   0.356 -0.2255 -0.2439 -0.5288
 5734TIP3    H138617   5.189   0.173   0.308 -1.5087 -0.2278  0.0265
 5734TIP3    H238618   5.248   0.124   0.438 -2.0255 -0.1303  0.2996
 5735TIP3   OH238619   0.116   2.624   1.649 -0.2326 -1.0633 -0.2169
 5735TIP3    H138620   0.057   2.640   1.575 -1.5177 -1.4606  0.6870
 5735TIP3    H238621   0.083   2.682   1.718  1.3316 -0.2479 -0.1501
 5736TIP3   OH238622   1.120   3.939  11.362  0.0190  0.1794  0.2745
 5736TIP3    H138623   1.169   3.947  11.444 -0.4110  0.8697  0.4666
 5736TIP3    H238624   1.176   3.886  11.306  1.4610  1.7700  0.1448
 5737TIP3   OH238625   4.640   2.014   1.135  0.0228 -0.1580  0.1115
 5737TIP3    H138626   4.634   1.948   1.066  1.3976 -0.1844  0.0141
 5737TIP3    H238627   4.568   2.074   1.116 -1.8238 -2.0893  0.7211
 5738TIP3   OH238628   4.380   5.935  15.530  0.3808 -0.3763 -0.6455
 5738TIP3    H138629   4.324   6.004  15.495 -0.7039 -0.7451  0.3531
 5738TIP3    H238630   4.469   5.964  15.510 -0.0832  1.0748 -0.6325
 5739TIP3   OH238631   2.085   0.527   2.416  0.2282 -0.4396 -0.2972
 5739TIP3    H138632   2.087   0.559   2.507  0.0468  0.0853 -0.4747
 5739TIP3    H238633   2.174   0.498   2.399  0.2352 -0.6564  0.0915
 5740TIP3   OH238634   2.234   4.837  12.576  0.2738 -0.3170 -0.1867
 5740TIP3    H138635   2.317   4.875  12.547  0.1994  0.4973  0.6630
 5740TIP3    H238636   2.250   4.808  12.665 -0.0895 -1.0006 -0.3391
 5741TIP3   OH238637   4.602   0.507  12.011  0.5863 -0.0127  0.5118
 5741TIP3    H138638   4.524   0.562  12.019 -0.0372 -0.8718  0.5595
 5741TIP3    H238639   4.676   0.566  12.026  0.0699  1.3697 -2.1257
 5742TIP3   OH238640   2.250   5.829  14.008  0.8639 -0.0081 -0.2194
 5742TIP3    H138641   2.339   5.819  14.040  0.9882 -0.9218 -0.8261
 5742TIP3    H238642   2.206   5.883  14.073  2.0384  1.0002 -0.2580
 5743TIP3   OH238643   1.844   5.044   0.913 -0.2654  0.2467 -0.9103
 5743TIP3    H138644   1.842   5.120   0.855 -0.7055 -0.3385 -1.6607
 5743TIP3    H238645   1.760   5.001   0.900  0.9678 -1.7916 -2.3601
 5744TIP3   OH238646   2.447   4.624  16.930  0.1531 -0.2217  0.0610
 5744TIP3    H138647   2.406   4.692  16.877  0.7670 -1.1710 -1.6638
 5744TIP3    H238648   2.402   4.543  16.904 -0.4334 -0.5164  1.9424
 5745TIP3   OH238649   5.796   4.032   4.604  0.2800  0.0224 -0.4196
 5745TIP3    H138650   5.758   4.119   4.593 -0.8751 -0.6433 -1.9357
 5745TIP3    H238651   5.721   3.973   4.597  0.8738 -1.0564  1.7527
 5746TIP3   OH238652   3.312   4.298   4.884 -0.2808 -0.1346 -0.6817
 5746TIP3    H138653   3.398   4.300   4.925 -0.8212  2.9453  0.4408
 5746TIP3    H238654   3.307   4.380   4.834 -2.1235 -0.7956 -1.6356
 5747TIP3   OH238655   0.186   0.234   5.540  0.0711 -0.2406  0.1930
 5747TIP3    H138656   0.145   0.198   5.462 -0.5721  0.9574 -0.0418
 5747TIP3    H238657   0.113   0.261   5.596  0.5273 -0.0665  0.7111
 5748TIP3   OH238658   3.240   0.506  11.897 -0.7602 -0.0455 -0.1201
 5748TIP3    H138659   3.158   0.457  11.894 -1.9870  2.0300 -1.6037
 5748TIP3    H238660   3.308   0.439  11.886 -2.2190 -1.7702  0.9936
 5749TIP3   OH238661   6.220   3.540   3.266  0.1763  0.6095  0.5022
 5749TIP3    H138662   6.151   3.526   3.201  1.0858  0.2304 -0.3988
 5749TIP3    H238663   6.284   3.472   3.247 -0.2608 -0.4767  2.7923
 5750TIP3   OH238664   4.557   3.970   6.027  0.6312 -0.0283  0.0409
 5750TIP3    H138665   4.611   4.047   6.012  0.3665  0.1092 -0.2219
 5750TIP3    H238666   4.593   3.903   5.969 -0.0822  0.3543 -0.8566
 5751TIP3   OH238667   4.773   5.582  13.362  0.0721  0.2010 -0.1005
 5751TIP3    H138668   4.714   5.628  13.421  0.4313 -0.8900  1.1271
 5751TIP3    H238669   4.735   5.595  13.275 -2.6579 -1.4976  0.7879
 5752TIP3   OH238670   4.239   1.670   3.954 -0.4053 -0.4875 -0.0944
 5752TIP3    H138671   4.222   1.591   4.005  0.5753 -1.0877 -0.6958
 5752TIP3    H238672   4.217   1.645   3.864  0.6999 -0.3309 -0.4111
 5753TIP3   OH238673   4.149   2.433  15.941 -0.1750 -0.0932 -0.2933
 5753TIP3    H138674   4.205   2.403  16.012  1.6330 -1.0689 -2.0523
 5753TIP3    H238675   4.141   2.527  15.954  0.6098 -0.1803  0.8806
 5754TIP3   OH238676   2.560   0.554  15.943  0.7732  0.1848  0.0257
 5754TIP3    H138677   2.622   0.567  15.872  0.9806  0.3019  0.2252
 5754TIP3    H238678   2.603   0.489  16.000  0.4958 -0.1004 -0.0880
 5755TIP3   OH238679   0.055   3.056  16.352  0.6625  0.4376  0.1522
 5755TIP3    H138680  -0.015   3.081  16.291 -0.9888 -1.3216  1.2694
 5755TIP3    H238681   0.125   3.025  16.295  0.2123  1.3646 -0.9554
 5756TIP3   OH238682   3.000   5.240   3.015 -0.3016  0.0450  0.1772
 5756TIP3    H138683   3.034   5.240   2.925 -0.6377 -1.7607  0.0280
 5756TIP3    H238684   2.905   5.242   3.004 -0.3445 -0.3314  0.4952
 5757TIP3   OH238685   1.586   0.943   0.935 -0.0766  0.6671 -0.2506
 5757TIP3    H138686   1.612   0.937   1.027 -1.5479 -0.6973  0.0795
 5757TIP3    H238687   1.669   0.936   0.887  0.6583  0.9754  0.9324
 5758TIP3   OH238688   2.219   6.077  16.507 -0.0379 -0.1337 -0.6677
 5758TIP3    H138689   2.214   5.991  16.466 -0.7261  0.5344 -2.0113
 5758TIP3    H238690   2.312   6.092  16.521  0.0326 -1.4732  0.4130
 5759TIP3   OH238691   0.925   4.019  16.430 -0.4999 -0.1047 -0.1627
 5759TIP3    H138692   0.960   3.971  16.505 -0.0875 -1.9349 -1.4688
 5759TIP3    H238693   0.837   3.985  16.418 -0.1712 -0.6483 -1.1592
 5760TIP3   OH238694   0.742   0.597  11.127  0.4031  0.0290  0.0925
 5760TIP3    H138695   0.707   0.509  11.115  3.2368 -1.0336 -0.7341
 5760TIP3    H238696   0.836   0.584  11.138  0.4297  2.6875  3.6268
 5761TIP3   OH238697   0.423   3.736  14.381  0.1290 -0.6334 -0.2347
 5761TIP3    H138698   0.377   3.677  14.440 -1.0333 -0.6830 -1.1672
 5761TIP3    H238699   0.426   3.820  14.428 -0.3564 -0.7975  0.0923
 5762TIP3   OH238700   6.082   4.991   3.149  0.3473 -0.0534 -0.1357
 5762TIP3    H138701   6.045   5.070   3.109 -0.8083 -1.0158 -0.9890
 5762TIP3    H238702   6.166   4.979   3.105  1.3982  1.7442  1.3139
 5763TIP3   OH238703   5.132   4.160   1.759  0.1466  0.2267  0.1369
 5763TIP3    H138704   5.129   4.250   1.792 -0.0524  0.7793 -1.3516
 5763TIP3    H238705   5.204   4.159   1.696 -2.2293  0.3762 -2.7022
 5764TIP3   OH238706   0.731   4.833   1.670  0.5325  0.3071  0.4473
 5764TIP3    H138707   0.677   4.879   1.734  0.5407  0.2148  0.5205
 5764TIP3    H238708   0.740   4.745   1.706 -0.5368 -0.1256 -0.3043
 5765TIP3   OH238709   1.401   1.581  15.180  0.5297 -0.2241  0.5803
 5765TIP3    H138710   1.443   1.601  15.097  1.4985 -0.1662  1.0882
 5765TIP3    H238711   1.359   1.496  15.165  0.2595  0.0256 -0.1246
 5766TIP3   OH238712   6.230   3.734  10.920  0.9672  0.4411  0.9053
 5766TIP3    H138713   6.274   3.819  10.916  2.2208 -0.2452 -0.8281
 5766TIP3    H238714   6.301   3.672  10.937  0.7831 -0.7354 -2.3386
 5767TIP3   OH238715   2.820   2.047   3.382 -0.1286  0.2856 -0.7251
 5767TIP3    H138716   2.810   2.101   3.461 -1.9945 -0.9296 -0.0964
 5767TIP3    H238717   2.897   1.994   3.399 -1.4648 -1.1604  1.0369
 5768TIP3   OH238718   3.646   4.401   2.384  1.1466 -0.1360  0.5607
 5768TIP3    H138719   3.554   4.415   2.403  0.9401  0.2280 -0.6753
 5768TIP3    H238720   3.686   4.488   2.392  1.1443 -0.0653 -0.1633
 5769TIP3   OH238721   5.333   0.526  16.234 -0.3388  0.8454 -0.0867
 5769TIP3    H138722   5.266   0.525  16.302 -1.7866 -2.0666 -1.4600
 5769TIP3    H238723   5.303   0.593  16.172 -1.7955 -0.1681 -0.4959
 5770TIP3   OH238724   4.775   3.623   1.631 -0.4888  0.4564 -0.0030
 5770TIP3    H138725   4.793   3.714   1.652 -0.9492  0.6302 -0.3516
 5770TIP3    H238726   4.858   3.590   1.596 -0.3336  0.7493  0.0875
 5771TIP3   OH238727   1.284   6.208   3.790 -0.0454  0.0358  0.4090
 5771TIP3    H138728   1.241   6.124   3.807  2.8126 -1.4148  0.8755
 5771TIP3    H238729   1.323   6.197   3.703  1.9483  0.1073  1.2536
 5772TIP3   OH238730   2.729   2.214   5.335  0.2205  0.7287  0.1992
 5772TIP3    H138731   2.743   2.122   5.314  0.7689  1.2793 -1.9634
 5772TIP3    H238732   2.685   2.250   5.257  0.8719  2.4926  0.6207
 5773TIP3   OH238733   4.373   3.877  15.709  0.0347 -0.4648 -0.1342
 5773TIP3    H138734   4.421   3.875  15.626 -1.9032  0.6954 -1.3221
 5773TIP3    H238735   4.419   3.941  15.762 -0.1371  0.5923 -1.2431
 5774TIP3   OH238736   0.974   5.875  13.749 -0.1652 -0.7699 -0.0567
 5774TIP3    H138737   1.013   5.962  13.740 -2.0345  0.1883  0.9615
 5774TIP3    H238738   0.958   5.865  13.843 -1.4761 -1.5471 -0.3523
 5775TIP3   OH238739   5.758   5.329  15.135  0.3248 -0.5166 -0.1164
 5775TIP3    H138740   5.734   5.421  15.136  0.1205 -0.5233 -1.8945
 5775TIP3    H238741   5.842   5.325  15.179  0.3233  0.5109 -0.0115
 5776TIP3   OH238742   3.165   3.284  14.304  0.1207  0.2807 -0.0218
 5776TIP3    H138743   3.192   3.273  14.395 -1.4982 -0.5092  0.3974
 5776TIP3    H238744   3.096   3.351  14.307  0.7005  0.9190 -0.7900
 5777TIP3   OH238745   1.716   1.909   6.401 -0.1096 -0.1481 -0.4207
 5777TIP3    H138746   1.707   1.909   6.306 -0.7901  0.9192 -0.3552
 5777TIP3    H238747   1.630   1.884   6.434 -0.2270  0.7405 -0.0517
 5778TIP3   OH238748   5.705   4.964   0.758  0.5131  0.2281  0.1191
 5778TIP3    H138749   5.706   5.055   0.728  0.5777  0.1206 -0.2131
 5778TIP3    H238750   5.787   4.927   0.724  0.0224 -0.2202 -0.6018
 5779TIP3   OH238751   5.671   1.758   1.711 -0.5020 -0.3605  0.2711
 5779TIP3    H138752   5.603   1.810   1.755  1.5424  3.0460 -0.3359
 5779TIP3    H238753   5.734   1.739   1.780 -1.1596 -1.9603  0.4500
 5780TIP3   OH238754   6.037   6.501   1.111 -0.0339  0.5436 -0.5879
 5780TIP3    H138755   6.119   6.516   1.158  0.4642 -3.9975  0.2294
 5780TIP3    H238756   5.969   6.516   1.176  0.5296 -2.5123  0.8164
 5781TIP3   OH238757   0.843   0.994  11.183  0.0546  0.2922  0.4127
 5781TIP3    H138758   0.764   0.943  11.199  1.7339 -2.8561 -0.6632
 5781TIP3    H238759   0.910   0.928  11.165  2.1367  2.9370 -2.1182
 5782TIP3   OH238760   5.503   4.612  16.459 -0.3170 -0.7156 -0.0003
 5782TIP3    H138761   5.423   4.638  16.413 -0.6211  0.5541  1.2321
 5782TIP3    H238762   5.474   4.586  16.546  0.6865  0.5502  0.7326
 5783TIP3   OH238763   6.697   3.955   3.523 -0.5364 -0.0484 -0.1605
 5783TIP3    H138764   6.645   3.900   3.582  0.4964 -0.7041  0.1405
 5783TIP3    H238765   6.727   4.027   3.578  0.9078 -0.9618  0.2818
 5784TIP3   OH238766   0.214   2.123   5.190  0.1530  0.4483 -0.6153
 5784TIP3    H138767   0.301   2.104   5.153 -0.4412 -0.0612 -1.7775
 5784TIP3    H238768   0.231   2.187   5.259  1.4794  0.2268 -0.7225
 5785TIP3   OH238769   6.539   0.423  16.583  0.3764  0.2795 -0.1780
 5785TIP3    H138770   6.505   0.506  16.613 -1.8115 -0.1804 -1.3000
 5785TIP3    H238771   6.510   0.359  16.647  2.9085  0.4718  1.2326
 5786TIP3   OH238772   4.122   4.852  11.979 -0.1721  0.1613 -0.9981
 5786TIP3    H138773   4.143   4.884  11.891  2.5730  0.1163 -0.4307
 5786TIP3    H238774   4.172   4.770  11.987 -0.4961  0.0996  0.5431
 5787TIP3   OH238775   5.862   3.185  16.260 -0.0190  0.1504  0.6608
 5787TIP3    H138776   5.948   3.149  16.281  0.7392  1.3320 -0.3946
 5787TIP3    H238777   5.879   3.256  16.199 -1.7689  0.2254  0.2165
 5788TIP3   OH238778   5.929   0.563  16.396  0.3894  0.2623  0.3929
 5788TIP3    H138779   5.849   0.610  16.373 -0.6044 -1.9665 -0.8337
 5788TIP3    H238780   5.938   0.496  16.329  2.7561 -0.1700  1.0938
 5789TIP3   OH238781   0.718   3.739   4.810 -0.1700 -0.1400  0.4184
 5789TIP3    H138782   0.623   3.737   4.825 -0.4729  0.8764 -1.2262
 5789TIP3    H238783   0.749   3.654   4.841 -1.4884 -0.1769  1.7250
 5790TIP3   OH238784   0.466   6.197  14.277 -0.5412 -0.1533  0.0472
 5790TIP3    H138785   0.403   6.225  14.211  0.2612 -0.6342 -0.9564
 5790TIP3    H238786   0.415   6.184  14.356 -1.4279  1.0103 -0.3253
 5791TIP3   OH238787   2.022   2.993  11.848 -0.7575  0.1853 -0.0801
 5791TIP3    H138788   2.062   2.922  11.797 -0.7391  0.3325 -0.2737
 5791TIP3    H238789   1.963   2.949  11.909 -2.2353  0.1004 -1.5098
 5792TIP3   OH238790   4.785   5.025  13.003 -0.1017  0.1413 -0.2365
 5792TIP3    H138791   4.840   5.035  12.925 -1.9968 -2.0462 -1.9601
 5792TIP3    H238792   4.837   5.061  13.075  2.6936 -0.0019 -2.1161
 5793TIP3   OH238793   2.983   0.608  11.254 -0.4448  0.2400  0.2258
 5793TIP3    H138794   2.932   0.683  11.225 -0.5784  0.2703  0.5419
 5793TIP3    H238795   2.919   0.538  11.265 -0.0225 -0.6519 -2.5085
 5794TIP3   OH238796   4.449   5.599  12.609  0.2751  0.6397  0.3128
 5794TIP3    H138797   4.356   5.581  12.597  0.3948  0.0002  0.3330
 5794TIP3    H238798   4.476   5.643  12.528  0.4343 -1.0913 -0.5876
 5795TIP3   OH238799   4.156   3.048   2.888 -0.4322  0.2344 -0.4041
 5795TIP3    H138800   4.075   3.026   2.842 -1.2167  1.2638  0.4480
 5795TIP3    H238801   4.127   3.096   2.966  0.8646 -1.5300  1.2124
 5796TIP3   OH238802   5.051   4.171   0.929 -0.4298  0.6408  0.0241
 5796TIP3    H138803   5.032   4.087   0.971 -0.0920 -0.2412 -1.5562
 5796TIP3    H238804   5.120   4.209   0.982 -2.2198  1.0108  2.1452
 5797TIP3   OH238805   0.021   3.615   1.432 -0.4696 -0.4030 -0.7786
 5797TIP3    H138806   0.108   3.652   1.421 -0.5059 -0.4744 -1.2939
 5797TIP3    H238807   0.036   3.533   1.480 -0.4698  0.6600  1.0978
 5798TIP3   OH238808   5.183   1.069  10.923 -0.5216  0.5443  0.5971
 5798TIP3    H138809   5.168   1.125  10.847  2.5259  1.5023  0.6391
 5798TIP3    H238810   5.235   0.997  10.890 -0.2485  0.3001  1.5368
 5799TIP3   OH238811   0.855   1.824  10.694  0.1824  0.1353 -0.2272
 5799TIP3    H138812   0.767   1.846  10.664  0.9383  1.7333 -1.3242
 5799TIP3    H238813   0.842   1.749  10.752 -1.6894 -0.8198 -1.8145
 5800TIP3   OH238814   4.982   3.010  12.659 -0.4656  0.2722 -0.2142
 5800TIP3    H138815   5.077   3.005  12.654 -0.4880 -0.2284 -0.2324
 5800TIP3    H238816   4.951   2.963  12.581 -0.7405 -1.0391  0.6685
 5801TIP3   OH238817   3.212   3.645  13.681 -0.0959  0.0457 -0.0083
 5801TIP3    H138818   3.122   3.612  13.671  0.1026 -0.5026 -0.0303
 5801TIP3    H238819   3.267   3.573  13.650  0.3115  0.9302 -1.3566
 5802TIP3   OH238820   3.130   2.215  15.252  0.2725 -0.3532  0.0828
 5802TIP3    H138821   3.220   2.206  15.282  0.5795  0.6819 -0.5316
 5802TIP3    H238822   3.128   2.297  15.203 -0.3597 -1.7318 -2.2890
 5803TIP3   OH238823   1.525   6.624  14.973 -0.4111  0.2425  0.9314
 5803TIP3    H138824   1.599   6.579  14.930  1.0344  2.1667  1.3345
 5803TIP3    H238825   1.459   6.631  14.904  0.4424  0.0189  0.0607
 5804TIP3   OH238826   6.461   0.549  10.823 -0.3672  0.5752  0.2369
 5804TIP3    H138827   6.427   0.545  10.733  0.6596 -0.5157 -0.1185
 5804TIP3    H238828   6.523   0.476  10.828 -0.9030  0.2181  2.0423
 5805TIP3   OH238829   0.331   5.045  11.924 -0.7521 -0.7802  0.0353
 5805TIP3    H138830   0.347   5.041  11.829 -1.8625 -0.2384 -0.1796
 5805TIP3    H238831   0.404   4.997  11.962  2.5292  3.2372 -0.8028
 5806TIP3   OH238832   6.509   0.122  15.055 -0.6462  0.0249 -0.3250
 5806TIP3    H138833   6.434   0.128  15.114  0.2208 -2.8834  1.1241
 5806TIP3    H238834   6.583   0.152  15.107 -0.3735  0.4688 -0.9595
 5807TIP3   OH238835   4.745   5.037   1.944  0.6389  0.0997  0.6609
 5807TIP3    H138836   4.677   5.094   1.979  0.3304  0.8236 -1.0542
 5807TIP3    H238837   4.696   4.963   1.906  0.7758  0.7659 -0.8355
 5808TIP3   OH238838   0.480   4.866  12.086 -0.0435  0.0908 -0.3804
 5808TIP3    H138839   0.443   4.810  12.018  0.6058 -0.2478 -0.4659
 5808TIP3    H238840   0.479   4.810  12.165  2.8579 -0.9168 -1.0089
 5809TIP3   OH238841   2.967   6.460   3.403  0.6201 -0.0101 -0.3871
 5809TIP3    H138842   2.943   6.398   3.334  0.8946 -0.2772 -0.2468
 5809TIP3    H238843   3.063   6.464   3.399  0.5474  1.2669 -1.1362
 5810TIP3   OH238844   4.185   0.361  15.519 -0.1777  0.1459  0.0571
 5810TIP3    H138845   4.278   0.385  15.513 -0.3634  0.4176 -1.8082
 5810TIP3    H238846   4.170   0.350  15.613  1.6088  0.6248  0.4219
 5811TIP3   OH238847   4.273   3.804  16.039 -0.0997 -0.0646 -0.6781
 5811TIP3    H138848   4.212   3.850  15.981 -0.3250 -0.0120 -0.3983
 5811TIP3    H238849   4.330   3.872  16.074 -1.7280  0.2974  1.3347
 5812TIP3   OH238850   5.229   3.462   5.080  0.1416 -0.0130  0.0491
 5812TIP3    H138851   5.263   3.405   5.010  1.3805  1.3746 -0.4917
 5812TIP3    H238852   5.212   3.402   5.153  2.8725 -0.8937  0.0093
 5813TIP3   OH238853   1.255   6.658   6.048  0.1620 -0.6938 -0.2524
 5813TIP3    H138854   1.162   6.680   6.052  0.6041  0.9167  1.6127
 5813TIP3    H238855   1.278   6.667   5.955 -1.3006 -0.1043 -0.5705
 5814TIP3   OH238856   2.985   0.781  15.191  0.2842 -0.0555 -0.3284
 5814TIP3    H138857   2.916   0.793  15.256  0.4154 -0.0632 -0.1893
 5814TIP3    H238858   2.967   0.849  15.126  1.9252  1.9112  1.2271
 5815TIP3   OH238859   4.594   5.827   1.976 -0.4579  0.3451 -0.3447
 5815TIP3    H138860   4.672   5.771   1.975 -0.4594  0.3545 -1.1169
 5815TIP3    H238861   4.520   5.767   1.979 -0.4163  0.3447  1.4161
 5816TIP3   OH238862   0.213   3.180  14.781  0.1401 -0.1308 -0.3034
 5816TIP3    H138863   0.274   3.175  14.708 -0.3060 -0.0177 -0.6836
 5816TIP3    H238864   0.155   3.253  14.760  0.8385  0.7598  0.7993
 5817TIP3   OH238865   2.354   2.620  14.699  0.8308  0.6711 -0.4744
 5817TIP3    H138866   2.354   2.715  14.713 -0.5013  0.5866  0.1477
 5817TIP3    H238867   2.317   2.609  14.612  0.9418  0.7156 -0.5282
 5818TIP3   OH238868   6.342   4.422   4.390  0.3251  0.2058  0.2141
 5818TIP3    H138869   6.428   4.448   4.422  0.7905 -0.3618 -0.5728
 5818TIP3    H238870   6.325   4.338   4.431  0.8528 -0.4471 -0.8893
 5819TIP3   OH238871   4.101   2.463   5.285  0.3512 -0.0941  0.0011
 5819TIP3    H138872   4.179   2.409   5.301  1.1695  0.0023 -3.1592
 5819TIP3    H238873   4.134   2.537   5.233 -1.8512 -0.0629 -1.4002
 5820TIP3   OH238874   0.525   5.739   6.413 -0.4109 -0.1015  0.3399
 5820TIP3    H138875   0.527   5.776   6.325 -1.0535 -0.3348  0.2242
 5820TIP3    H238876   0.581   5.661   6.407 -0.8698 -0.4072  0.0021
 5821TIP3   OH238877   2.639   5.159  13.399  0.1435 -0.5883  0.3110
 5821TIP3    H138878   2.567   5.146  13.461  0.3886  0.7604  0.8812
 5821TIP3    H238879   2.596   5.162  13.313 -0.5737  0.9674  0.7103
 5822TIP3   OH238880   1.745   3.815  12.765 -0.1158  0.1490  0.1774
 5822TIP3    H138881   1.743   3.722  12.741 -4.2887  0.0790  0.5317
 5822TIP3    H238882   1.787   3.858  12.691 -0.2915 -1.7361 -1.0465
 5823TIP3   OH238883   4.277   4.601  12.690 -0.5344  0.2243 -0.4622
 5823TIP3    H138884   4.222   4.594  12.768  1.3855 -0.1587  0.9048
 5823TIP3    H238885   4.307   4.692  12.691 -0.0186  0.0528 -0.4088
 5824TIP3   OH238886   1.259   2.849   5.749  0.1736  0.0752 -0.4174
 5824TIP3    H138887   1.322   2.907   5.792  0.0523  0.8873 -1.3100
 5824TIP3    H238888   1.277   2.762   5.786  3.3849 -0.1438 -2.2921
 5825TIP3   OH238889   0.786   5.165   2.391 -0.6566 -0.1216 -0.0974
 5825TIP3    H138890   0.863   5.207   2.353 -2.1014  1.4521 -1.3439
 5825TIP3    H238891   0.787   5.191   2.483 -0.8233  1.5930 -0.5741
 5826TIP3   OH238892   3.462   0.370   4.969  0.5662 -0.7043  0.9615
 5826TIP3    H138893   3.502   0.438   5.023 -0.9126  1.2450 -0.3411
 5826TIP3    H238894   3.516   0.369   4.890 -0.7110  0.5132  0.0575
 5827TIP3   OH238895   6.604   0.159   4.464  0.2508  0.1093 -0.3137
 5827TIP3    H138896   6.665   0.085   4.467  0.1114 -0.0337 -0.8796
 5827TIP3    H238897   6.653   0.230   4.423  0.5573  0.4969  0.7350
 5828TIP3   OH238898   3.166   4.028  15.682  0.2600 -0.6278  0.4465
 5828TIP3    H138899   3.259   4.008  15.672  0.5650  1.0381 -0.2026
 5828TIP3    H238900   3.131   4.024  15.593  0.2575  1.2622  0.3423
 5829TIP3   OH238901   3.364   2.831  12.572 -0.5565  0.4126 -0.4208
 5829TIP3    H138902   3.433   2.830  12.639 -0.7753  1.9742 -0.1493
 5829TIP3    H238903   3.289   2.872  12.616 -0.8845  0.9403 -1.4489
 5830TIP3   OH238904   4.506   3.393  11.955 -0.4042  0.3550  0.3722
 5830TIP3    H138905   4.510   3.346  12.039  1.5275  1.0971  0.7228
 5830TIP3    H238906   4.444   3.464  11.970 -0.3937  0.2268  1.0518
 5831TIP3   OH238907   3.795   3.181   0.057 -0.5212  0.2506 -0.7028
 5831TIP3    H138908   3.774   3.140  -0.027  2.5513  1.7922 -2.2951
 5831TIP3    H238909   3.713   3.225   0.082 -1.8133 -1.1411 -2.3187
 5832TIP3   OH238910   1.384   0.459  11.580  0.4455 -0.4331 -0.6689
 5832TIP3    H138911   1.400   0.401  11.654  1.0827 -0.0704 -0.5193
 5832TIP3    H238912   1.297   0.495  11.596 -0.2249 -1.8132 -1.0825
 5833TIP3   OH238913   5.221   2.748  13.859  0.1082  0.5279 -0.6605
 5833TIP3    H138914   5.256   2.797  13.933 -1.0114  1.7018 -0.8881
 5833TIP3    H238915   5.297   2.708  13.818  1.0787  2.2883 -0.6072
 5834TIP3   OH238916   1.224   2.088  14.731  0.1262  0.2301 -0.5232
 5834TIP3    H138917   1.256   2.022  14.669 -1.5708 -0.9813 -0.1574
 5834TIP3    H238918   1.184   2.037  14.801 -0.1869  1.6426  0.3436
 5835TIP3   OH238919   0.461   0.875  15.230  0.8143 -0.2545  0.0818
 5835TIP3    H138920   0.449   0.969  15.214  0.9916 -0.0237  1.2197
 5835TIP3    H238921   0.535   0.850  15.176  0.7764  0.2701 -0.2159
 5836TIP3   OH238922   6.756   2.525  12.670  0.2244  0.0849 -0.1477
 5836TIP3    H138923   6.666   2.554  12.686 -0.7262 -1.6401 -2.1172
 5836TIP3    H238924   6.777   2.558  12.583  0.7528 -1.2057 -0.5217
 5837TIP3   OH238925   4.382   2.906   4.003  0.2930 -1.0229 -0.4161
 5837TIP3    H138926   4.451   2.945   4.056 -0.3874  0.9101 -0.8947
 5837TIP3    H238927   4.310   2.892   4.064  0.8868 -2.5008 -0.0356
 5838TIP3   OH238928   6.619   6.261   4.845 -0.6092 -0.1604 -0.0131
 5838TIP3    H138929   6.552   6.329   4.844 -1.1833 -0.7170 -0.0915
 5838TIP3    H238930   6.630   6.239   4.938  1.2984  1.6954  0.2349
 5839TIP3   OH238931   1.830   6.022  14.826  0.5263  0.0732  0.2176
 5839TIP3    H138932   1.758   6.070  14.785  0.5047  0.7325  1.0153
 5839TIP3    H238933   1.898   6.088  14.839  0.1342  0.1007  2.1974
 5840TIP3   OH238934   1.464   3.439  13.744 -0.2047  0.7165  0.4275
 5840TIP3    H138935   1.380   3.393  13.741  1.0481 -1.5584 -2.0283
 5840TIP3    H238936   1.453   3.513  13.685 -0.8221  1.0393  0.9428
 5841TIP3   OH238937   4.838   3.745  13.191  0.2864 -0.3371  0.0801
 5841TIP3    H138938   4.806   3.794  13.267  0.2368  1.5759 -1.1383
 5841TIP3    H238939   4.858   3.812  13.126  2.7738 -1.7667 -0.7033
 5842TIP3   OH238940   5.087   4.381   0.381  0.0177 -0.0400  0.2272
 5842TIP3    H138941   5.034   4.302   0.389  1.0244 -0.8892 -1.3824
 5842TIP3    H238942   5.107   4.388   0.288  0.6209  1.6619  0.4668
 5843TIP3   OH238943   6.607   0.337  15.634 -0.1909 -0.0005  0.7511
 5843TIP3    H138944   6.522   0.368  15.666 -0.9149 -1.5467  0.3292
 5843TIP3    H238945   6.668   0.406  15.660 -1.6360  1.3403  0.6636
 5844TIP3   OH238946   6.380   5.190   1.041 -0.0563  0.6075 -0.4177
 5844TIP3    H138947   6.303   5.246   1.036 -0.3539  0.4047  1.4910
 5844TIP3    H238948   6.453   5.246   1.017 -0.5981  1.2726 -0.5167
 5845TIP3   OH238949   4.615   3.892  13.882 -0.0559 -0.1415 -0.3190
 5845TIP3    H138950   4.561   3.932  13.814 -0.5585 -0.4656 -0.1131
 5845TIP3    H238951   4.692   3.949  13.889 -0.9905  1.0802  0.3272
 5846TIP3   OH238952   1.038   1.953   6.277  0.1397  0.2601  0.0664
 5846TIP3    H138953   0.998   1.890   6.337  0.9039 -1.2968 -1.0228
 5846TIP3    H238954   1.132   1.936   6.283  0.2761  0.5788 -1.0232
 5847TIP3   OH238955   2.218   2.639   3.636 -0.1028 -0.1702 -0.7002
 5847TIP3    H138956   2.166   2.589   3.699 -0.9387 -0.6022 -1.7168
 5847TIP3    H238957   2.211   2.730   3.665  0.5551 -0.5035  0.5439
 5848TIP3   OH238958   3.485   6.083  13.604  0.6091 -0.0145  0.0607
 5848TIP3    H138959   3.580   6.089  13.594  0.6757  0.1467  0.7403
 5848TIP3    H238960   3.473   6.045  13.691  0.0424  0.7075  0.2985
 5849TIP3   OH238961   5.107   2.943  15.204 -0.9265  0.1845  0.4827
 5849TIP3    H138962   5.052   3.009  15.246  0.7426  2.0112 -0.1574
 5849TIP3    H238963   5.165   2.992  15.147 -1.6295 -2.0971 -2.2964
 5850TIP3   OH238964   6.652   2.735  14.815 -0.1597 -0.8218  0.1760
 5850TIP3    H138965   6.588   2.741  14.887  0.5072  0.1731  0.6899
 5850TIP3    H238966   6.705   2.814  14.823  0.3454 -1.0305 -1.0196
 5851TIP3   OH238967   2.722   1.508   1.025 -0.2878 -0.1756  0.2062
 5851TIP3    H138968   2.711   1.584   1.083  1.1522  0.0574  0.1967
 5851TIP3    H238969   2.815   1.507   1.005 -0.7138 -0.4695 -1.8376
 5852TIP3   OH238970   5.358   5.364  15.829  0.0483  0.3164 -0.6689
 5852TIP3    H138971   5.337   5.409  15.911  0.9304  1.7229 -1.1884
 5852TIP3    H238972   5.398   5.282  15.856  2.0921  1.5902  0.3521
 5853TIP3   OH238973   0.565   5.310  12.991 -0.7956 -0.4710 -0.4088
 5853TIP3    H138974   0.496   5.376  12.995 -0.4784 -0.1580 -0.0008
 5853TIP3    H238975   0.639   5.354  12.949  0.2508  0.2109  2.0704
 5854TIP3   OH238976   5.508   3.098  15.179 -0.0912  0.1704  0.2048
 5854TIP3    H138977   5.485   3.005  15.168 -1.9116  0.4633  1.2519
 5854TIP3    H238978   5.597   3.097  15.212  0.4136 -1.1597 -1.1073
 5855TIP3   OH238979   4.491   1.884   4.964  0.1069 -0.4012 -0.0640
 5855TIP3    H138980   4.526   1.855   4.880  0.8513  0.3036 -0.0130
 5855TIP3    H238981   4.514   1.977   4.968 -0.8722 -0.1808  0.4414
 5856TIP3   OH238982   5.727   0.992  11.957 -0.0642  0.4197 -0.0133
 5856TIP3    H138983   5.818   1.000  11.932  0.2505 -0.0010  0.9626
 5856TIP3    H238984   5.700   1.081  11.981  0.2010  0.4764  0.0677
 5857TIP3   OH238985   1.951   2.456  12.403  0.0806  0.2762  0.3322
 5857TIP3    H138986   1.948   2.444  12.498 -1.4814 -0.1876  0.2325
 5857TIP3    H238987   1.871   2.505  12.382  0.3304  0.2397 -0.7665
 5858TIP3   OH238988   5.918   1.854  10.925 -0.1684  0.0912  0.0095
 5858TIP3    H138989   5.949   1.796  10.856  0.4101 -0.4329  0.7059
 5858TIP3    H238990   5.962   1.938  10.908  1.0328 -0.4280  0.5400
 5859TIP3   OH238991   4.899   2.969  16.311  0.2824  0.6551 -0.3501
 5859TIP3    H138992   4.883   3.059  16.340 -0.3849  0.1739  0.7858
 5859TIP3    H238993   4.994   2.965  16.300  0.4285  1.2017  0.6108
 5860TIP3   OH238994   5.336   5.481  13.581 -0.2087  0.1320 -0.3522
 5860TIP3    H138995   5.408   5.473  13.518  1.1711  0.4632  1.1657
 5860TIP3    H238996   5.306   5.571  13.571 -2.3322 -0.7962 -2.9993
 5861TIP3   OH238997   5.361   0.674  14.729  0.0748 -0.4904  0.4310
 5861TIP3    H138998   5.384   0.707  14.816 -0.3735 -0.6506  0.6085
 5861TIP3    H238999   5.278   0.628  14.741  0.0016 -0.4998 -0.0832
 5862TIP3   OH239000   1.131   1.640  11.566  0.1427  0.0822  0.2417
 5862TIP3    H139001   1.128   1.585  11.645  0.2001  0.2535  0.3630
 5862TIP3    H239002   1.127   1.578  11.493 -0.3139 -0.0535  0.3800
 5863TIP3   OH239003   5.279   2.246  12.057 -0.1883 -0.2961 -0.1557
 5863TIP3    H139004   5.263   2.213  11.969 -0.7403  2.7423 -1.2365
 5863TIP3    H239005   5.237   2.331  12.060  2.4455  1.0374  2.0484
 5864TIP3   OH239006   0.992   3.712   0.244  0.4974  0.0209 -0.2986
 5864TIP3    H139007   1.087   3.721   0.235  0.5894 -0.2870  0.3279
 5864TIP3    H239008   0.977   3.619   0.259  0.1242  0.1075 -0.1132
 5865TIP3   OH239009   4.206   0.934   0.455  0.2430  0.4723  0.2316
 5865TIP3    H139010   4.281   0.947   0.514 -0.0592 -0.7068  0.8810
 5865TIP3    H239011   4.129   0.946   0.511 -0.0524 -0.1798 -0.0362
 5866TIP3   OH239012   3.320   3.092   6.431 -0.5553 -0.9663 -0.5632
 5866TIP3    H139013   3.300   3.156   6.363 -1.7632 -2.9975 -2.1593
 5866TIP3    H239014   3.415   3.080   6.425 -0.4658 -0.1185 -0.9514
 5867TIP3   OH239015   6.683   1.317  16.965 -0.6676 -0.0512 -0.0219
 5867TIP3    H139016   6.683   1.277  17.052  0.1973 -0.4564 -0.2081
 5867TIP3    H239017   6.774   1.312  16.936 -1.2997 -1.7611 -1.7893
 5868TIP3   OH239018   5.529   5.646   5.334 -0.0993 -0.1385 -0.1310
 5868TIP3    H139019   5.438   5.665   5.355  1.1454  2.1871  3.6541
 5868TIP3    H239020   5.547   5.563   5.378  0.0684  0.3184  0.6821
 5869TIP3   OH239021   4.076   0.369  14.249 -0.4483  0.0835 -0.3022
 5869TIP3    H139022   4.152   0.402  14.201  0.1215 -0.8887 -0.0853
 5869TIP3    H239023   4.018   0.334  14.182  0.7977 -2.1859 -0.2371
 5870TIP3   OH239024   3.869   5.416  13.786  0.3611  0.0910  0.7613
 5870TIP3    H139025   3.902   5.386  13.701  1.1049  0.7396  0.8268
 5870TIP3    H239026   3.783   5.373  13.794 -0.3827  1.2036 -0.9837
 5871TIP3   OH239027   3.116   5.375   4.910 -0.1467 -0.1972 -0.3561
 5871TIP3    H139028   3.101   5.434   4.837  0.6284  0.6965  0.1907
 5871TIP3    H239029   3.045   5.311   4.905  0.0813 -0.3288 -2.0638
 5872TIP3   OH239030   0.193   2.345   0.427 -0.6605 -0.2130  0.2105
 5872TIP3    H139031   0.109   2.344   0.472 -0.9120  1.4018 -0.1604
 5872TIP3    H239032   0.258   2.349   0.497 -1.0654  2.8012  0.5019
 5873TIP3   OH239033   1.861   1.794  11.238 -0.4908 -0.3577  0.0446
 5873TIP3    H139034   1.835   1.764  11.151 -0.2112 -0.3436 -0.0434
 5873TIP3    H239035   1.954   1.813  11.230 -0.6995  0.7130  0.0487
 5874TIP3   OH239036   1.446   1.390  11.666 -0.5289 -0.1541  0.2085
 5874TIP3    H139037   1.433   1.300  11.636  1.5779 -0.5230  0.2905
 5874TIP3    H239038   1.372   1.408  11.723 -0.0770 -2.4787  1.5840
 5875TIP3   OH239039   1.328   3.016  16.516  0.2054  0.2958 -0.6006
 5875TIP3    H139040   1.326   2.928  16.553 -0.1744  0.0564 -1.1783
 5875TIP3    H239041   1.320   3.002  16.422 -1.0790  1.0041 -0.6086
 5876TIP3   OH239042   3.324   0.640   2.304 -0.1230 -0.2053  0.0239
 5876TIP3    H139043   3.320   0.707   2.235 -1.0694 -0.0373  0.2410
 5876TIP3    H239044   3.238   0.598   2.302 -0.1796 -0.1425  1.1617
 5877TIP3   OH239045   6.299   3.332   4.306 -0.2375  0.5397 -0.2558
 5877TIP3    H139046   6.268   3.415   4.271 -0.6368  0.3112 -0.4449
 5877TIP3    H239047   6.225   3.272   4.295 -0.1567  0.3075  0.4060
 5878TIP3   OH239048   3.113   0.040   3.012 -0.0616  0.4622  0.1005
 5878TIP3    H139049   3.136   0.082   2.929 -1.7257 -1.6095 -1.4702
 5878TIP3    H239050   3.034  -0.010   2.993  0.8395 -1.9495  2.3358
 5879TIP3   OH239051   1.776   4.861  15.495 -0.4398  0.3526  0.1620
 5879TIP3    H139052   1.767   4.899  15.408  0.9767 -0.0958 -0.1952
 5879TIP3    H239053   1.722   4.782  15.493 -0.6803  0.5276 -0.1976
 5880TIP3   OH239054   0.393   1.237   0.192  0.7511  0.5224  0.3403
 5880TIP3    H139055   0.374   1.326   0.224 -0.8881  0.1683  0.3861
 5880TIP3    H239056   0.311   1.190   0.201  1.4787 -0.8791 -0.1601
 5881TIP3   OH239057   5.519   1.016  12.778  0.3369 -0.1425 -1.0134
 5881TIP3    H139058   5.429   1.000  12.750 -0.4481 -1.0387  1.7733
 5881TIP3    H239059   5.522   1.109  12.799  0.0274 -0.1295 -1.0311
 5882TIP3   OH239060   3.680   1.044  14.461 -0.9044  0.2114 -0.1123
 5882TIP3    H139061   3.616   0.980  14.493 -1.0405 -0.9444 -2.6082
 5882TIP3    H239062   3.628   1.103  14.406 -0.3081  0.9217  0.0845
 5883TIP3   OH239063   2.414   6.553  14.052  0.0296  0.1484  0.0091
 5883TIP3    H139064   2.426   6.579  14.143  0.7454 -0.6846  0.1541
 5883TIP3    H239065   2.501   6.525  14.023  0.1739  1.9772 -1.4301
 5884TIP3   OH239066   6.716   2.688   3.481  0.1269  0.1340 -0.1135
 5884TIP3    H139067   6.625   2.680   3.452  0.6113  2.3858 -2.4459
 5884TIP3    H239068   6.710   2.726   3.568 -1.2034 -1.7598  0.6585
 5885TIP3   OH239069   2.572   6.691   0.167 -0.0597 -0.2871 -0.1226
 5885TIP3    H139070   2.516   6.709   0.242 -1.7227 -0.1750 -1.3642
 5885TIP3    H239071   2.543   6.752   0.100 -0.7706 -2.5216 -1.9215
 5886TIP3   OH239072   5.936   5.574   2.261  0.0209  0.4556 -0.3124
 5886TIP3    H139073   6.011   5.604   2.313 -0.6834 -0.8851  1.5357
 5886TIP3    H239074   5.903   5.653   2.219  1.4114  1.3592  0.2620
 5887TIP3   OH239075   5.017   5.086  15.237 -0.0846  0.0746 -0.0600
 5887TIP3    H139076   5.043   4.996  15.259  0.5084 -0.1541 -1.6040
 5887TIP3    H239077   4.952   5.110  15.304 -1.4658 -2.0925 -0.5684
 5888TIP3   OH239078   3.804   6.725   3.722  0.0754 -0.0845 -0.3492
 5888TIP3    H139079   3.737   6.780   3.682 -0.8262 -1.6108 -0.9928
 5888TIP3    H239080   3.775   6.714   3.813 -0.3483 -0.3934 -0.5154
 5889TIP3   OH239081   2.750   3.766  11.435  0.1416  0.3172  0.6506
 5889TIP3    H139082   2.794   3.698  11.384 -0.9692  0.1818 -0.1369
 5889TIP3    H239083   2.822   3.818  11.472  0.9774 -0.7451  0.5307
 5890TIP3   OH239084   6.235   2.202  15.332 -0.2703  0.1870  0.1392
 5890TIP3    H139085   6.289   2.171  15.405  0.2129  0.1303 -0.2403
 5890TIP3    H239086   6.247   2.297  15.332  1.3951 -0.0087 -1.1719
 5891TIP3   OH239087   2.308   5.556   3.983 -0.6647  0.5253  0.7964
 5891TIP3    H139088   2.272   5.554   3.894 -0.8148  0.1255  0.8658
 5891TIP3    H239089   2.388   5.505   3.977 -1.0285 -0.0852  1.0436
 5892TIP3   OH239090   0.722   2.641   5.807 -0.1793  0.3801 -0.4646
 5892TIP3    H139091   0.697   2.625   5.898 -0.1490  0.3385 -0.4634
 5892TIP3    H239092   0.811   2.675   5.812 -0.7618  1.9180 -0.3762
 5893TIP3   OH239093   0.306   5.901  11.965  0.6316 -0.6504 -0.4180
 5893TIP3    H139094   0.258   5.891  11.882 -0.8364 -0.6397  0.4175
 5893TIP3    H239095   0.390   5.938  11.939 -0.5674  1.3007 -1.7462
 5894TIP3   OH239096   3.227   4.675   1.466 -0.4309 -0.0009 -0.2746
 5894TIP3    H139097   3.300   4.696   1.407 -1.0955  2.3254 -0.3209
 5894TIP3    H239098   3.186   4.760   1.484 -1.1771 -0.8683  2.3056
 5895TIP3   OH239099   5.905   5.259   5.190 -0.2118  0.2868 -0.2191
 5895TIP3    H139100   5.941   5.346   5.205  0.7346 -0.0630 -0.4105
 5895TIP3    H239101   5.980   5.207   5.161 -0.6251 -0.7536  0.5308
 5896TIP3   OH239102   6.684   4.505  10.802  0.0993  0.1118 -0.3061
 5896TIP3    H139103   6.717   4.585  10.761  1.5349 -1.5803 -2.5760
 5896TIP3    H239104   6.719   4.509  10.891  2.1559  0.8830 -1.1087
 5897TIP3   OH239105   0.075   3.773   6.005 -0.0120 -0.2709 -0.0555
 5897TIP3    H139106   0.033   3.696   5.967 -1.8634  0.7879 -0.2428
 5897TIP3    H239107   0.025   3.790   6.085  1.4648 -0.2624  0.8799
 5898TIP3   OH239108   0.771   5.291   1.135  1.1869 -0.0633 -0.9811
 5898TIP3    H139109   0.793   5.246   1.216 -1.9106  3.8979  2.2192
 5898TIP3    H239110   0.810   5.378   1.144 -1.7621  1.4707 -2.3417
 5899TIP3   OH239111   3.316   3.101   2.163  0.1844  0.2848 -0.5577
 5899TIP3    H139112   3.255   3.043   2.116 -0.4845 -0.5934  1.3403
 5899TIP3    H239113   3.270   3.124   2.244  0.4877  3.4112 -1.2126
 5900TIP3   OH239114   0.512   6.634   2.031  0.4908  0.4717 -0.0644
 5900TIP3    H139115   0.566   6.556   2.019  0.1718  0.0492  1.1781
 5900TIP3    H239116   0.552   6.700   1.974  1.3532 -0.3058 -0.3681
 5901TIP3   OH239117   6.130   3.160  12.057  0.2017 -0.2428  0.2910
 5901TIP3    H139118   6.053   3.212  12.034 -0.4113 -0.5016  1.6717
 5901TIP3    H239119   6.192   3.224  12.092  0.1371 -0.1995  0.3262
 5902TIP3   OH239120   4.324   5.182   1.717  0.9876  0.3465  0.6861
 5902TIP3    H139121   4.330   5.258   1.775  0.7077  2.4931 -1.9822
 5902TIP3    H239122   4.231   5.177   1.694  0.7549 -1.7238  1.9679
 5903TIP3   OH239123   3.432   1.643   1.778  0.4428  0.5586 -0.2444
 5903TIP3    H139124   3.511   1.664   1.828 -0.7101 -0.7089  2.2345
 5903TIP3    H239125   3.365   1.701   1.813  0.3306  1.9871 -2.6939
 5904TIP3   OH239126   3.109   3.592   5.937  0.1579 -0.3611  0.0380
 5904TIP3    H139127   3.076   3.636   6.014  1.2399 -0.3956  0.5363
 5904TIP3    H239128   3.200   3.572   5.958  0.1197 -1.4500 -0.7713
 5905TIP3   OH239129   1.172   3.543   6.247 -0.2717 -0.5608  0.2782
 5905TIP3    H139130   1.245   3.511   6.301 -0.2365 -0.3084  0.3789
 5905TIP3    H239131   1.102   3.562   6.309  0.6575  2.2682  0.5313
 5906TIP3   OH239132   0.359   6.703   2.593  0.2181  0.0866 -0.5800
 5906TIP3    H139133   0.378   6.670   2.681 -0.4814 -0.5686 -0.6730
 5906TIP3    H239134   0.397   6.638   2.534  1.1798  0.8094 -0.7744
 5907TIP3   OH239135   4.074   3.412   2.630 -0.0351  0.2813 -0.4218
 5907TIP3    H139136   3.995   3.365   2.657  1.8015 -1.2878  2.5112
 5907TIP3    H239137   4.044   3.501   2.611 -2.5847 -0.4500 -0.0021
 5908TIP3   OH239138   4.406   1.815  14.921  0.1237  1.0761 -0.2973
 5908TIP3    H139139   4.443   1.860  14.997 -0.2526  0.8523  0.0229
 5908TIP3    H239140   4.478   1.763  14.886  0.1691  0.7946  0.2050
 5909TIP3   OH239141   5.507   1.587  12.451 -0.0692  0.0318  0.1998
 5909TIP3    H139142   5.466   1.538  12.379 -1.0104 -0.4598  1.0657
 5909TIP3    H239143   5.505   1.678  12.421  2.0054 -0.4655 -1.5707
 5910TIP3   OH239144   1.988   5.305  16.525  0.2852  0.0114 -0.4312
 5910TIP3    H139145   1.945   5.317  16.440 -0.1319  0.7904 -0.1179
 5910TIP3    H239146   1.944   5.229  16.564 -1.6130  1.5101  0.3859
 5911TIP3   OH239147   2.109   4.886  11.120  0.4697 -0.9131 -0.1191
 5911TIP3    H139148   2.160   4.873  11.200  0.2499 -2.2727 -0.1953
 5911TIP3    H239149   2.087   4.798  11.091 -0.8299 -0.3766 -0.7943
 5912TIP3   OH239150   6.438   5.348  16.776 -0.6776 -0.2282 -0.7213
 5912TIP3    H139151   6.481   5.420  16.821 -0.8065  0.2939 -1.4218
 5912TIP3    H239152   6.496   5.327  16.703  0.1427 -1.8796  0.3652
 5913TIP3   OH239153   0.179   3.642   6.336 -0.3646  0.0979 -0.2382
 5913TIP3    H139154   0.250   3.702   6.358  0.4218 -0.5974 -0.8465
 5913TIP3    H239155   0.100   3.697   6.336 -0.2454  0.3293  3.0908
 5914TIP3   OH239156   5.051   4.483   2.568 -0.4603 -1.0254 -0.6843
 5914TIP3    H139157   5.093   4.511   2.487  2.4599 -1.0161  0.7644
 5914TIP3    H239158   5.030   4.391   2.553  0.5286 -1.1618 -1.3038
 5915TIP3   OH239159   4.455   4.977   1.603  0.0725  0.0374 -0.2078
 5915TIP3    H139160   4.542   5.016   1.609  0.2192 -0.1539 -1.0902
 5915TIP3    H239161   4.398   5.041   1.645  0.8595 -0.5689  1.8358
 5916TIP3   OH239162   0.650   4.757   3.339  0.1134  0.4233  0.4436
 5916TIP3    H139163   0.710   4.762   3.413  1.4803  0.7036 -0.6651
 5916TIP3    H239164   0.593   4.833   3.349  1.2047  1.2536  0.4407
 5917TIP3   OH239165   4.508   5.516   0.819 -0.3003 -0.5438  0.1498
 5917TIP3    H139166   4.413   5.528   0.820 -0.1856  0.3567  0.6043
 5917TIP3    H239167   4.528   5.482   0.906 -0.0572  0.4691  0.4932
 5918TIP3   OH239168   5.546   1.169  10.877 -0.9314 -0.5605 -0.5134
 5918TIP3    H139169   5.479   1.237  10.878 -1.3337 -0.9290 -1.7644
 5918TIP3    H239170   5.544   1.134  10.788  2.0048  0.4938 -1.0653
 5919TIP3   OH239171   1.748   2.411   0.632  0.0985  0.3647 -0.5503
 5919TIP3    H139172   1.824   2.398   0.689  0.7600 -0.8149 -1.6920
 5919TIP3    H239173   1.779   2.390   0.544 -2.4392 -3.6810 -0.6033
 5920TIP3   OH239174   1.686   2.606  12.145 -0.0620  0.0748 -0.1495
 5920TIP3    H139175   1.760   2.632  12.090  2.0871  1.8278  3.3370
 5920TIP3    H239176   1.634   2.685  12.155 -0.4330 -0.2271  0.3578
 5921TIP3   OH239177   3.584   4.761  15.599  0.0112 -0.1662  0.1844
 5921TIP3    H139178   3.592   4.775  15.505 -2.8270 -0.3608 -0.1103
 5921TIP3    H239179   3.565   4.667  15.608 -2.0380  0.2855  0.7756
 5922TIP3   OH239180   2.533   1.777  12.715 -0.6687 -0.0502 -0.1508
 5922TIP3    H139181   2.444   1.812  12.716 -0.6945 -0.1329  2.6017
 5922TIP3    H239182   2.587   1.848  12.680 -1.5018  0.7558  0.2022
 5923TIP3   OH239183   4.103   3.834  14.012  0.4240 -0.3787  0.2600
 5923TIP3    H139184   4.161   3.778  14.063 -0.4178 -1.1025  0.4303
 5923TIP3    H239185   4.048   3.773  13.962 -0.7161  0.2748  0.6930
 5924TIP3   OH239186   3.302   3.590   3.538 -0.0554  0.1706  0.0652
 5924TIP3    H139187   3.210   3.617   3.540  0.2992  1.4069  0.1886
 5924TIP3    H239188   3.350   3.672   3.525  0.9585 -0.6471 -1.4005
 5925TIP3   OH239189   0.787   1.375  11.384  0.9075 -0.5482 -0.1888
 5925TIP3    H139190   0.764   1.293  11.428  1.8836  0.2887  1.9481
 5925TIP3    H239191   0.834   1.347  11.306 -1.2873 -2.0846 -1.0331
 5926TIP3   OH239192   2.575   6.599   2.018  0.2023 -0.6773  0.8038
 5926TIP3    H139193   2.646   6.562   2.070  0.7808 -0.1375  0.4010
 5926TIP3    H239194   2.619   6.644   1.946 -0.4370  1.4781  1.7009
 5927TIP3   OH239195   2.862   6.121  12.226  0.0040  0.3081 -0.0771
 5927TIP3    H139196   2.854   6.033  12.188 -2.0110  0.1521  0.6536
 5927TIP3    H239197   2.806   6.176  12.173  1.3866  1.2139 -0.6261
 5928TIP3   OH239198   0.690   0.249   3.628  0.1243 -0.3623  0.2621
 5928TIP3    H139199   0.597   0.240   3.607  0.0726  0.7491  0.0078
 5928TIP3    H239200   0.700   0.340   3.656  1.0015 -0.6818  1.0038
 5929TIP3   OH239201   0.340   2.703  14.559  0.0939  0.0865  0.5088
 5929TIP3    H139202   0.256   2.718  14.517  0.7997 -0.2562 -1.0966
 5929TIP3    H239203   0.376   2.626  14.514  1.6766  0.8086  0.4815
 5930TIP3   OH239204   4.905   6.155  15.052  0.5040 -0.0069  0.0730
 5930TIP3    H139205   4.997   6.134  15.067  0.3861  0.0916  0.9581
 5930TIP3    H239206   4.899   6.249  15.070  0.0827 -0.1585  0.7190
 5931TIP3   OH239207   2.649   4.697   2.580  0.4943  0.0769 -0.0622
 5931TIP3    H139208   2.657   4.625   2.642  1.7195  0.6413  0.4647
 5931TIP3    H239209   2.556   4.718   2.578  0.2190 -1.1213  0.2336
 5932TIP3   OH239210   1.469   2.138  16.261 -0.5566  0.2990 -0.4982
 5932TIP3    H139211   1.465   2.232  16.275 -3.0718  0.1582  0.0813
 5932TIP3    H239212   1.463   2.127  16.166  2.2252  0.7676 -0.7743
 5933TIP3   OH239213   2.353   4.836  14.014 -0.2398  0.1679  0.3609
 5933TIP3    H139214   2.260   4.817  14.002 -0.0558 -0.3254 -0.3103
 5933TIP3    H239215   2.385   4.859  13.927  0.3076  0.1555  0.5536
 5934TIP3   OH239216   1.948   0.326  12.104 -0.1964  0.2774 -0.1404
 5934TIP3    H139217   2.012   0.327  12.034 -1.1602 -4.3444 -1.2868
 5934TIP3    H239218   1.999   0.320  12.185  0.8398 -0.7124 -0.8714
 5935TIP3   OH239219   0.187   3.272   1.927 -0.1197 -0.2107  0.5173
 5935TIP3    H139220   0.222   3.331   1.860 -1.6636  0.7916  0.5470
 5935TIP3    H239221   0.264   3.237   1.971  0.8737  0.4935 -0.6068
 5936TIP3   OH239222   6.444   0.463   1.276 -0.2354 -0.6802 -0.3990
 5936TIP3    H139223   6.427   0.555   1.296  2.3078 -0.5494  1.4070
 5936TIP3    H239224   6.393   0.445   1.197 -1.1597  2.1344 -0.4767
 5937TIP3   OH239225   0.549   2.830  12.715 -0.0780 -0.0959  0.2747
 5937TIP3    H139226   0.540   2.736  12.734  0.7564 -0.5598 -1.5030
 5937TIP3    H239227   0.631   2.837  12.667 -1.3158  1.2010 -1.7315
 5938TIP3   OH239228   6.610   2.569  14.518  0.2060  0.1950 -0.0447
 5938TIP3    H139229   6.647   2.490  14.479 -0.2301  0.0701 -0.2060
 5938TIP3    H239230   6.644   2.570  14.607  0.4763 -0.0005 -0.1451
 5939TIP3   OH239231   0.154   5.471   5.207  1.0205  0.6782  0.3332
 5939TIP3    H139232   0.222   5.535   5.226  1.4648  0.1094  0.6653
 5939TIP3    H239233   0.159   5.458   5.112  0.1632  1.9841  0.0924
 5940TIP3   OH239234   4.447   6.713  12.829  0.1696 -0.1399  0.3990
 5940TIP3    H139235   4.393   6.642  12.795  0.6370  0.0531 -0.7889
 5940TIP3    H239236   4.528   6.708  12.778  0.7260  0.4318  1.2045
 5941TIP3   OH239237   5.559   3.680   6.309  0.2526  0.3760  0.1963
 5941TIP3    H139238   5.553   3.747   6.377 -2.3302  1.0501 -0.6527
 5941TIP3    H239239   5.470   3.644   6.303  0.9884 -1.2597 -1.2413
 5942TIP3   OH239240   3.348   6.186  11.761 -0.2308  0.0245  0.8687
 5942TIP3    H139241   3.336   6.280  11.747  2.5956  0.5428  1.6880
 5942TIP3    H239242   3.421   6.180  11.823  0.5226 -2.7317 -0.2276
 5943TIP3   OH239243   1.292   3.353   0.890 -0.4559 -0.6502  0.7246
 5943TIP3    H139244   1.302   3.261   0.866 -0.0231 -0.4476  0.1265
 5943TIP3    H239245   1.295   3.400   0.807  2.4046  0.1915  1.2652
 5944TIP3   OH239246   3.089   0.210   5.004  0.1339 -0.3927 -0.1153
 5944TIP3    H139247   3.175   0.179   5.030  0.5208  0.3846 -0.4570
 5944TIP3    H239248   3.028   0.157   5.056  0.8576  0.6910  1.9073
 5945TIP3   OH239249   0.785   3.847   0.394  0.4172  0.6287  0.3605
 5945TIP3    H139250   0.828   3.906   0.333  1.2309  1.0798  1.3558
 5945TIP3    H239251   0.843   3.771   0.399 -0.9648 -0.5792 -1.4420
 5946TIP3   OH239252   2.101   2.107  13.271 -0.0274 -0.3003  0.7162
 5946TIP3    H139253   2.035   2.109  13.202 -0.1902 -0.8301  0.8558
 5946TIP3    H239254   2.053   2.080  13.350  0.0478  0.8270  1.1619
 5947TIP3   OH239255   5.688   2.255   4.903 -0.5906 -0.1032 -0.3879
 5947TIP3    H139256   5.752   2.325   4.897  0.3233 -0.6896  2.1346
 5947TIP3    H239257   5.727   2.190   4.962 -2.6074 -1.4216 -0.4261
 5948TIP3   OH239258   0.175   1.269  16.936 -0.3354  0.5544 -0.5539
 5948TIP3    H139259   0.179   1.304  17.025 -1.1680 -1.7901  0.4416
 5948TIP3    H239260   0.248   1.311  16.891  1.3564  0.2911  1.8067
 5949TIP3   OH239261   1.179   2.576  13.183 -0.5029  0.2375  0.4478
 5949TIP3    H139262   1.227   2.591  13.102 -1.4547 -1.6617 -0.5096
 5949TIP3    H239263   1.222   2.631  13.248  2.9390 -1.3749 -0.3866
 5950TIP3   OH239264   4.557   6.543  14.678  0.6620  0.6854  0.2742
 5950TIP3    H139265   4.488   6.482  14.704 -0.4746  1.8245 -0.0363
 5950TIP3    H239266   4.597   6.502  14.601  0.4899 -0.0760  0.5780
 5951TIP3   OH239267   5.285   0.780   1.231  0.3759  0.4171 -0.4002
 5951TIP3    H139268   5.245   0.711   1.178 -1.0552  2.0321 -1.4667
 5951TIP3    H239269   5.211   0.823   1.274  1.3175  0.7830  0.8959
 5952TIP3   OH239270   3.914   1.277   2.041  0.0984  0.3737  0.6031
 5952TIP3    H139271   3.987   1.313   1.991  0.1736  0.2408  0.6186
 5952TIP3    H239272   3.885   1.348   2.097  0.2647  0.4003  0.6521
 5953TIP3   OH239273   5.257   6.361  13.583 -0.4955 -0.2903 -0.5608
 5953TIP3    H139274   5.215   6.300  13.644 -1.7339 -0.6527 -1.7212
 5953TIP3    H239275   5.272   6.440  13.634 -0.4119 -0.9935  0.5227
 5954TIP3   OH239276   5.831   3.313  15.201  0.4068  0.2616  0.2163
 5954TIP3    H139277   5.902   3.263  15.161  0.1573  0.3744 -0.3568
 5954TIP3    H239278   5.876   3.384  15.249  0.6696  0.4630 -0.3261
 5955TIP3   OH239279   3.983   1.021  15.519 -0.0542 -0.3374  0.1890
 5955TIP3    H139280   4.075   1.009  15.499  0.2941  2.2802 -0.0306
 5955TIP3    H239281   3.982   1.045  15.612 -0.6555 -1.7064  0.5476
 5956TIP3   OH239282   0.981   4.050  13.418  0.7387  0.4616  0.3860
 5956TIP3    H139283   0.967   3.962  13.455  2.4685  0.1583  0.3535
 5956TIP3    H239284   0.909   4.102  13.455 -1.7196 -1.4664 -1.4404
 5957TIP3   OH239285   5.506   2.936  12.970  0.1325  0.2612 -0.7801
 5957TIP3    H139286   5.481   3.024  12.943 -1.2808 -0.2546 -1.1995
 5957TIP3    H239287   5.493   2.935  13.065  0.1036  0.4931 -0.7810
 5958TIP3   OH239288   5.772   3.218   0.435  0.6087 -0.0737 -0.4681
 5958TIP3    H139289   5.820   3.275   0.376  1.8979 -1.7445 -1.0826
 5958TIP3    H239290   5.834   3.199   0.506  0.5218 -1.3899 -0.7178
 5959TIP3   OH239291   6.002   4.352   6.385  0.0448  0.3644 -0.6043
 5959TIP3    H139292   6.092   4.380   6.365 -0.3063  1.1106 -1.1320
 5959TIP3    H239293   5.954   4.433   6.400 -0.9370  0.0486 -2.0155
 5960TIP3   OH239294   0.918   4.794  13.525 -0.1403 -0.1645  0.1567
 5960TIP3    H139295   0.882   4.880  13.504  2.6556  0.6515 -1.5091
 5960TIP3    H239296   0.986   4.779  13.459  0.8561 -2.7431  1.6809
 5961TIP3   OH239297   4.665   2.617   1.336 -0.5675 -0.2026 -0.3486
 5961TIP3    H139298   4.665   2.548   1.402 -0.3897 -0.4913 -0.6464
 5961TIP3    H239299   4.589   2.670   1.357  1.1095  1.3986  1.8236
 5962TIP3   OH239300   3.248   5.921   6.294 -0.3790 -0.0864  0.2385
 5962TIP3    H139301   3.236   5.850   6.357  0.6158 -0.0001  0.5313
 5962TIP3    H239302   3.163   5.928   6.250 -0.0236 -2.5337 -0.9178
 5963TIP3   OH239303   1.858   3.716   0.759 -0.2522 -0.3690  0.0991
 5963TIP3    H139304   1.815   3.749   0.680 -1.4661 -2.2392 -0.0720
 5963TIP3    H239305   1.893   3.631   0.732 -1.0774 -1.2387  1.6747
 5964TIP3   OH239306   3.330   5.748   4.557 -0.3754  0.7220 -0.3831
 5964TIP3    H139307   3.395   5.679   4.551  1.2456  1.9025  2.8090
 5964TIP3    H239308   3.261   5.711   4.612 -0.4673  0.9287 -0.3587
 5965TIP3   OH239309   6.160   6.458  16.450 -0.2496 -0.2594 -0.2304
 5965TIP3    H139310   6.116   6.395  16.508 -1.6617  0.6954 -0.2178
 5965TIP3    H239311   6.253   6.438  16.458 -0.7152 -2.9249 -0.9046
 5966TIP3   OH239312   4.685   3.274   5.096 -0.2421  0.3043  0.6408
 5966TIP3    H139313   4.760   3.226   5.131 -0.3089  0.6223  1.2336
 5966TIP3    H239314   4.665   3.339   5.163 -1.8684 -0.6304  1.0892
 5967TIP3   OH239315   6.165   4.151   2.477  0.4358  0.1953 -0.0428
 5967TIP3    H139316   6.123   4.118   2.397 -0.7395 -0.4630  0.8302
 5967TIP3    H239317   6.258   4.136   2.464  0.1152 -1.3646 -0.6215
 5968TIP3   OH239318   4.768   3.482  16.046  0.0598  0.4213  0.0449
 5968TIP3    H139319   4.763   3.408  16.106 -0.5021 -0.4127 -1.0052
 5968TIP3    H239320   4.708   3.460  15.975 -0.7280  2.2497  0.0986
 5969TIP3   OH239321   6.704   0.145   2.335 -0.2069  0.0912 -0.4438
 5969TIP3    H139322   6.775   0.105   2.386 -1.0483 -0.4002  0.3527
 5969TIP3    H239323   6.747   0.215   2.285  1.1354 -1.2407 -1.2152
 5970TIP3   OH239324   5.833   2.137   3.695  0.2421 -0.1801  0.4039
 5970TIP3    H139325   5.741   2.145   3.719  0.7838 -1.6955  3.1535
 5970TIP3    H239326   5.833   2.080   3.619 -1.3535  3.1025 -2.2222
 5971TIP3   OH239327   4.795   6.369   0.962 -0.0641 -0.0502 -0.0886
 5971TIP3    H139328   4.717   6.316   0.978  1.2124 -1.7199  0.7472
 5971TIP3    H239329   4.791   6.438   1.028 -0.2715 -0.7916  0.6822
 5972TIP3   OH239330   6.257   1.365   4.616 -0.1019 -0.3282  0.2016
 5972TIP3    H139331   6.180   1.366   4.673 -0.2237 -1.4060  0.0822
 5972TIP3    H239332   6.332   1.362   4.675 -0.0176  3.1036  0.3730
 5973TIP3   OH239333   1.923   6.049  12.704 -0.1130  0.4588  0.0747
 5973TIP3    H139334   1.981   6.048  12.779 -0.8372 -0.5101  0.6238
 5973TIP3    H239335   1.980   6.034  12.629  0.5287  0.8686  0.4800
 5974TIP3   OH239336   1.873   1.282  12.747  0.1217 -0.1982 -0.0048
 5974TIP3    H139337   1.826   1.327  12.817 -1.0578 -0.7794 -0.4141
 5974TIP3    H239338   1.823   1.301  12.668  0.9215 -0.3140 -0.5450
 5975TIP3   OH239339   3.949   0.483   2.331  0.0586  0.2166 -0.0871
 5975TIP3    H139340   4.011   0.426   2.286 -0.3999 -1.4073  1.3251
 5975TIP3    H239341   3.889   0.511   2.262  1.6957  0.9419 -1.2489
 5976TIP3   OH239342   2.724   6.638  12.049  0.0513 -0.6214  0.0812
 5976TIP3    H139343   2.762   6.647  11.962 -0.4478  0.1730 -0.0622
 5976TIP3    H239344   2.794   6.662  12.109  0.7368 -2.2567 -0.0491
 5977TIP3   OH239345   3.254   1.791  13.731  0.1538  0.5760  0.4460
 5977TIP3    H139346   3.239   1.865  13.672  0.7072  0.8960  0.7003
 5977TIP3    H239347   3.348   1.773  13.724 -0.0693 -0.4702 -0.0450
 5978TIP3   OH239348   6.618   2.786  16.788  0.4097  0.1053  0.4948
 5978TIP3    H139349   6.680   2.718  16.811  0.2646  0.0657  0.7732
 5978TIP3    H239350   6.627   2.851  16.858  0.4354  0.2948  0.3169
 5979TIP3   OH239351   4.283   3.168   4.526  0.2534 -0.2128 -0.1886
 5979TIP3    H139352   4.258   3.085   4.486  1.7875 -0.1124 -1.3989
 5979TIP3    H239353   4.255   3.160   4.617 -1.6482 -1.1620 -0.8306
 5980TIP3   OH239354   6.008   1.388   1.809 -0.0823  0.1552 -0.0744
 5980TIP3    H139355   6.006   1.346   1.895  2.8749  0.3711  0.1516
 5980TIP3    H239356   5.998   1.481   1.827  2.4210  0.4097  0.2860
 5981TIP3   OH239357   3.750   4.101   0.484 -0.5201  0.3501  0.0075
 5981TIP3    H139358   3.807   4.069   0.414  2.3709 -0.4895  2.6447
 5981TIP3    H239359   3.726   4.023   0.533 -3.6151  0.7558 -0.7388
 5982TIP3   OH239360   0.028   1.983  11.785 -0.3899  0.3590  0.4402
 5982TIP3    H139361   0.007   2.073  11.759  0.6231  0.7609  0.9922
 5982TIP3    H239362   0.120   1.987  11.810 -0.3489 -0.8384  0.4761
 5983TIP3   OH239363   2.704   4.233   4.656 -0.5817 -0.1701 -0.1594
 5983TIP3    H139364   2.702   4.152   4.706 -1.0334  1.0662  1.9091
 5983TIP3    H239365   2.764   4.290   4.704  0.7067  0.3221 -2.2659
 5984TIP3   OH239366   5.534   1.780   0.973  0.4478  0.4710 -0.1413
 5984TIP3    H139367   5.534   1.866   0.931 -1.6422  0.3723 -0.3501
 5984TIP3    H239368   5.614   1.780   1.027 -0.9759  3.6656  2.1347
 5985TIP3   OH239369   2.755   5.889   2.961 -0.2361  0.3865 -0.0926
 5985TIP3    H139370   2.782   5.799   2.977 -1.9281 -0.0330  0.4453
 5985TIP3    H239371   2.837   5.939   2.964  0.7862 -1.2023 -1.0284
 5986TIP3   OH239372   2.950   0.594   3.674  0.2101 -0.0503 -0.1692
 5986TIP3    H139373   2.896   0.630   3.745 -0.3787  0.3779 -0.8185
 5986TIP3    H239374   2.926   0.502   3.670  1.9434 -0.6168  1.7061
 5987TIP3   OH239375   1.522   4.034   5.032 -0.4264 -0.1297 -0.0528
 5987TIP3    H139376   1.579   4.004   4.960 -0.2382  0.0031  0.0425
 5987TIP3    H239377   1.523   4.129   5.026  1.6387 -0.0146  1.7156
 5988TIP3   OH239378   3.059   3.951   3.764  0.3845  0.4149  0.5914
 5988TIP3    H139379   3.073   3.909   3.679 -5.2917 -3.1093  1.1680
 5988TIP3    H239380   3.014   4.033   3.743 -2.9247 -1.4273  0.1489
 5989TIP3   OH239381   6.569   1.139  12.756  0.7739  0.6539  0.1968
 5989TIP3    H139382   6.657   1.172  12.775  1.2922 -0.6682  0.1510
 5989TIP3    H239383   6.584   1.060  12.704 -0.4438  0.2827  0.3949
 5990TIP3   OH239384   5.377   0.816  16.032  0.2440 -0.0786 -0.1811
 5990TIP3    H139385   5.308   0.803  16.096  1.2106  1.4446  1.2233
 5990TIP3    H239386   5.456   0.830  16.084  1.4863 -1.1135 -1.7396
 5991TIP3   OH239387   4.009   2.894   3.202 -0.3043  0.6268  0.0230
 5991TIP3    H139388   3.969   2.818   3.245  1.7687  0.0543  1.0118
 5991TIP3    H239389   3.990   2.882   3.109 -0.9889 -0.4942  0.2956
 5992TIP3   OH239390   5.743   0.297   4.359 -0.5143 -0.0923 -0.3269
 5992TIP3    H139391   5.769   0.383   4.392 -0.4806 -0.3830  0.4207
 5992TIP3    H239392   5.809   0.275   4.294  1.0670 -0.7701  1.4638
 5993TIP3   OH239393   4.382   0.390   1.169 -0.0858 -0.4618  0.3851
 5993TIP3    H139394   4.342   0.473   1.196 -0.9263 -0.2173 -1.5165
 5993TIP3    H239395   4.427   0.411   1.087 -1.0014 -2.0437 -0.5564
 5994TIP3   OH239396   6.663   4.398  15.949  0.1558 -0.3603 -0.0964
 5994TIP3    H139397   6.643   4.358  15.864 -0.0867 -0.7252  0.1295
 5994TIP3    H239398   6.597   4.467  15.959 -0.6378 -1.1722  0.3776
 5995TIP3   OH239399   5.748   3.337  12.043  0.0829  0.0303 -0.3752
 5995TIP3    H139400   5.741   3.355  11.950 -0.5445  1.3197 -0.0859
 5995TIP3    H239401   5.822   3.390  12.073 -0.8930  1.0573  0.2189
 5996TIP3   OH239402   0.191   5.633   0.620 -0.0514  0.2329 -0.1743
 5996TIP3    H139403   0.279   5.666   0.605  0.0082 -0.0219 -0.3954
 5996TIP3    H239404   0.133   5.703   0.590  0.0746  0.4831  0.1621
 5997TIP3   OH239405   3.366   1.592  14.672  0.3850 -0.2241  0.1222
 5997TIP3    H139406   3.404   1.635  14.596 -0.6011  0.2417 -0.1134
 5997TIP3    H239407   3.371   1.498  14.652  0.2635 -0.1101 -0.4543
 5998TIP3   OH239408   3.699   5.583  12.067  0.2967  0.9969  0.0885
 5998TIP3    H139409   3.711   5.514  12.001  2.8554 -0.0750  1.5938
 5998TIP3    H239410   3.633   5.641  12.029  0.4501 -0.5165 -2.6523
 5999TIP3   OH239411   4.683   2.296  16.508  0.1129  0.5261  0.3701
 5999TIP3    H139412   4.766   2.293  16.460 -0.4885  0.6336 -0.6981
 5999TIP3    H239413   4.662   2.389  16.514  0.1460  0.5063  0.7646
 6000TIP3   OH239414   6.177   5.020   4.789  0.2886  0.4876 -0.0473
 6000TIP3    H139415   6.127   4.938   4.794  0.9502  0.0059 -1.1281
 6000TIP3    H239416   6.144   5.063   4.711 -0.4690  1.5380  0.8439
 6001TIP3   OH239417   5.784   5.096  12.015 -0.3604  0.0031 -0.4506
 6001TIP3    H139418   5.852   5.064  12.075  0.4666 -1.8909 -2.3483
 6001TIP3    H239419   5.702   5.068  12.056  0.1058  0.1563  0.6113
 6002TIP3   OH239420   0.046   0.805  13.994  0.1252 -0.5515  0.0180
 6002TIP3    H139421  -0.041   0.805  14.034  0.1685  1.0190  0.1166
 6002TIP3    H239422   0.073   0.713  13.997 -1.3384 -0.9846  0.3953
 6003TIP3   OH239423   3.319   4.899  15.411  0.0170 -0.1596  0.3332
 6003TIP3    H139424   3.253   4.903  15.342  1.1177 -0.6412 -0.7640
 6003TIP3    H239425   3.284   4.954  15.481 -1.3114 -0.0134 -0.4259
 6004TIP3   OH239426   3.078   3.887   3.244  0.4658  0.1496 -0.0966
 6004TIP3    H139427   3.096   3.815   3.184  2.7048 -0.1423  0.8875
 6004TIP3    H239428   2.993   3.864   3.283  1.4520 -2.3236  0.7018
 6005TIP3   OH239429   4.413   4.156   4.908  0.5865  0.5500 -0.4532
 6005TIP3    H139430   4.461   4.111   4.977 -0.0111 -0.7834 -0.8945
 6005TIP3    H239431   4.322   4.129   4.919  0.2918  1.2637 -1.0288
 6006TIP3   OH239432   5.583   2.610  13.457  0.6145  0.4418  0.2141
 6006TIP3    H139433   5.495   2.580  13.434  1.6527 -2.2211 -0.5772
 6006TIP3    H239434   5.576   2.639  13.548 -0.9509 -0.2904  0.3493
 6007TIP3   OH239435   4.073   1.315  13.462 -0.6180  0.1535  0.1225
 6007TIP3    H139436   4.166   1.307  13.437 -0.3352  1.3878  0.7304
 6007TIP3    H239437   4.064   1.261  13.540  0.0530  1.5069  1.1681
 6008TIP3   OH239438   2.725   3.488   4.492 -0.4746  0.0770  0.1158
 6008TIP3    H139439   2.715   3.393   4.497  0.3263 -0.0698 -0.7846
 6008TIP3    H239440   2.655   3.516   4.433  2.0375 -0.5149 -3.2691
 6009TIP3   OH239441   5.647   3.229   3.744  0.2575  0.6272 -0.2827
 6009TIP3    H139442   5.595   3.150   3.758  1.5306 -0.1431  0.1344
 6009TIP3    H239443   5.599   3.298   3.790  0.2340 -0.3142  1.1352
 6010TIP3   OH239444   4.970   2.664  15.555 -0.2507  0.1172 -0.4676
 6010TIP3    H139445   5.052   2.624  15.583  0.1034  0.7346 -0.6144
 6010TIP3    H239446   4.997   2.735  15.496 -0.8435  0.8767  0.1608
 6011TIP3   OH239447   2.376   5.416   2.883 -0.8690  0.5192 -0.3907
 6011TIP3    H139448   2.342   5.505   2.895 -1.4922  0.2709 -0.3221
 6011TIP3    H239449   2.460   5.428   2.839  0.0336  1.2784  1.4985
 6012TIP3   OH239450   4.220   5.890   2.976  0.0098  0.2542 -0.0527
 6012TIP3    H139451   4.266   5.971   2.956 -0.1898  0.2590 -0.4816
 6012TIP3    H239452   4.207   5.893   3.071  2.2923 -0.4895  0.3207
 6013TIP3   OH239453   6.284   5.512  15.246  0.2748  0.4855 -0.9403
 6013TIP3    H139454   6.280   5.500  15.341 -2.1032 -2.2512 -1.3248
 6013TIP3    H239455   6.271   5.607  15.234 -0.4058  0.7282  1.4262
 6014TIP3   OH239456   4.655   6.106  14.975 -0.3618 -0.5679 -0.2601
 6014TIP3    H139457   4.750   6.101  14.983 -0.2982  1.1109  0.1853
 6014TIP3    H239458   4.641   6.150  14.891 -0.7023  1.2088  0.7163
 6015TIP3   OH239459   5.310   2.026  16.339  0.0138 -0.1372  0.0733
 6015TIP3    H139460   5.277   1.978  16.415 -1.4533 -0.7476 -0.9339
 6015TIP3    H239461   5.274   2.114  16.350  0.2236 -0.0846  0.3512
 6016TIP3   OH239462   5.237   1.253  15.861 -0.3485  0.1417 -0.3753
 6016TIP3    H139463   5.181   1.320  15.821 -2.2721 -1.1957  0.0136
 6016TIP3    H239464   5.206   1.170  15.825  0.9641 -0.7026  0.3564
 6017TIP3   OH239465   3.834   1.834  13.038  0.1633 -0.1115 -0.6776
 6017TIP3    H139466   3.739   1.831  13.046  0.2023  0.6645  0.2450
 6017TIP3    H239467   3.863   1.744  13.053 -0.2627  0.0986  1.5173
 6018TIP3   OH239468   0.516   6.739   3.603 -0.7579 -0.0866  0.3661
 6018TIP3    H139469   0.434   6.778   3.572 -0.3482  0.3390 -0.1793
 6018TIP3    H239470   0.531   6.779   3.689 -0.9035  0.1458  0.2824
 6019TIP3   OH239471   1.302   0.548  15.759  0.0437  0.6466 -0.0144
 6019TIP3    H139472   1.224   0.538  15.815  0.2107  1.4353  0.3692
 6019TIP3    H239473   1.283   0.495  15.682 -1.4076  1.7834 -0.4684
 6020TIP3   OH239474   5.414   4.618  15.190  0.2867  0.1988  0.9133
 6020TIP3    H139475   5.342   4.594  15.132  0.9554  3.4426 -1.4235
 6020TIP3    H239476   5.378   4.687  15.246  1.3764  1.3714  0.1850
 6021TIP3   OH239477   5.946   2.982   3.813 -0.3318 -0.1805  0.4017
 6021TIP3    H139478   5.928   2.999   3.720 -0.7526  1.3698  0.7414
 6021TIP3    H239479   6.040   2.964   3.816 -0.1347  0.6885 -0.2215
 6022TIP3   OH239480   1.357   1.436   1.438  0.0222  0.1427 -0.0731
 6022TIP3    H139481   1.311   1.357   1.465 -1.3459  1.5173  1.6884
 6022TIP3    H239482   1.288   1.500   1.421  1.1212  1.0204 -1.3019
 6023TIP3   OH239483   5.865   2.978   3.445 -0.2917  0.6341  0.1105
 6023TIP3    H139484   5.893   2.904   3.392  2.2685 -0.2004  2.5029
 6023TIP3    H239485   5.798   2.943   3.503  0.7068  0.2273  1.0374
 6024TIP3   OH239486   2.675   5.331  16.785  0.4307  0.2457 -0.0070
 6024TIP3    H139487   2.685   5.251  16.838 -2.4879  0.2331  0.6106
 6024TIP3    H239488   2.714   5.400  16.838  1.3581 -0.4649  0.2560
 6025TIP3   OH239489   2.995   3.473  14.366 -0.2136  0.1149  0.0984
 6025TIP3    H139490   3.022   3.561  14.340 -1.7826  0.3844 -0.6785
 6025TIP3    H239491   2.900   3.474  14.358 -0.3294 -1.3499  1.0658
 6026TIP3   OH239492   0.288   5.969  12.329 -0.5652 -0.3576  0.2814
 6026TIP3    H139493   0.384   5.966  12.327 -0.5831 -1.6116  0.8200
 6026TIP3    H239494   0.263   5.892  12.380 -1.9009 -0.8068 -0.9969
 6027TIP3   OH239495   0.686   1.895   4.458 -0.3689 -0.5161 -0.3530
 6027TIP3    H139496   0.716   1.804   4.451  1.3015 -0.0644  0.6881
 6027TIP3    H239497   0.647   1.900   4.546 -2.3535 -0.7428 -1.1889
 6028TIP3   OH239498   3.983   3.240   4.306 -0.2097  0.6229 -0.5863
 6028TIP3    H139499   3.891   3.265   4.313 -0.6110 -0.7083 -1.0208
 6028TIP3    H239500   4.026   3.284   4.380 -1.4287  0.1580  0.3985
 6029TIP3   OH239501   0.029   4.165  10.943 -0.4524  0.6375 -0.1188
 6029TIP3    H139502   0.093   4.187  10.875 -0.4659 -1.0395 -0.6888
 6029TIP3    H239503   0.012   4.248  10.987  2.2312  1.0909  0.1458
 6030TIP3   OH239504   3.814   6.116   2.572 -0.5950 -0.0133 -0.6356
 6030TIP3    H139505   3.834   6.199   2.616 -1.2823 -1.1018  1.7896
 6030TIP3    H239506   3.730   6.132   2.530  0.8868  1.6064 -3.1453
 6031TIP3   OH239507   5.174   5.196  16.442  0.6508 -0.0799 -0.3757
 6031TIP3    H139508   5.195   5.103  16.431 -1.6167 -0.7638  0.7910
 6031TIP3    H239509   5.242   5.229  16.501  0.2621 -1.5185  0.9291
 6032TIP3   OH239510   3.634   0.817   0.333 -0.2744 -0.0229 -0.7219
 6032TIP3    H139511   3.620   0.885   0.399 -2.4210 -2.7483  1.7920
 6032TIP3    H239512   3.578   0.842   0.260  2.7617  3.4824 -2.0083
 6033TIP3   OH239513   2.663   1.540   1.355  0.2038 -1.0024  0.3016
 6033TIP3    H139514   2.716   1.618   1.339 -1.6124  0.0394 -0.8164
 6033TIP3    H239515   2.604   1.565   1.427 -1.2353 -0.8749 -0.8884
 6034TIP3   OH239516   1.640   6.072  16.656  0.1318  0.4329  0.2244
 6034TIP3    H139517   1.724   6.033  16.678  0.2378 -0.2934 -1.3746
 6034TIP3    H239518   1.659   6.165  16.643  0.8420  0.1479 -0.8431
 6035TIP3   OH239519   3.383   0.093  15.313 -0.2441 -0.2173  0.4474
 6035TIP3    H139520   3.406   0.185  15.305 -1.2598  0.1213  1.1886
 6035TIP3    H239521   3.416   0.068  15.399  1.1175 -0.8824 -0.2654
 6036TIP3   OH239522   4.048   1.897  16.318  0.4679 -0.7549 -0.0113
 6036TIP3    H139523   4.042   1.802  16.316 -0.4079 -0.6907 -0.9902
 6036TIP3    H239524   4.077   1.922  16.230 -0.7327 -0.0559 -0.2357
 6037TIP3   OH239525   2.729   5.362   3.021  0.3580  0.1129  0.2122
 6037TIP3    H139526   2.694   5.305   2.953  0.4747 -1.8558  1.7572
 6037TIP3    H239527   2.696   5.325   3.103 -0.7740  3.1292  1.1933
 6038TIP3   OH239528   0.899   6.781   4.961  0.2306 -1.0232 -0.2993
 6038TIP3    H139529   0.907   6.702   4.907  1.4393 -2.0317  1.3208
 6038TIP3    H239530   0.810   6.779   4.996  0.3246 -1.7628 -0.1101
 6039TIP3   OH239531   2.828   1.689   5.568  0.0656  0.1231 -0.2514
 6039TIP3    H139532   2.885   1.622   5.532  0.0561  0.4949 -0.9624
 6039TIP3    H239533   2.873   1.771   5.549 -0.5309  0.3924 -0.4976
 6040TIP3   OH239534   2.680   2.481   2.589 -0.3797 -0.3780 -0.0336
 6040TIP3    H139535   2.661   2.527   2.671  2.1813 -0.3296  0.5836
 6040TIP3    H239536   2.595   2.469   2.548 -1.5888  0.6499  2.0781
 6041TIP3   OH239537   5.876   0.165   3.261  0.6409  0.3987  0.0888
 6041TIP3    H139538   5.947   0.156   3.197  1.5907  1.5966  0.9496
 6041TIP3    H239539   5.873   0.080   3.305  2.0426  0.5743  0.5556
 6042TIP3   OH239540   5.396   6.528  15.808  0.5567  0.3592 -0.4590
 6042TIP3    H139541   5.418   6.607  15.759  1.4179  1.0976  1.0987
 6042TIP3    H239542   5.480   6.490  15.831  0.1662  0.3834  1.0256
 6043TIP3   OH239543   1.290   1.900  15.563 -0.2913  0.2370 -0.3461
 6043TIP3    H139544   1.241   1.865  15.638 -1.2076  0.9394 -0.6081
 6043TIP3    H239545   1.348   1.829  15.537 -0.7542 -0.4005  0.3389
 6044TIP3   OH239546   0.815   3.408  12.026  0.4604 -0.0250  0.2363
 6044TIP3    H139547   0.753   3.385  11.956 -1.6032  2.0335  1.3146
 6044TIP3    H239548   0.896   3.362  12.002 -1.4998 -2.9701 -1.1147
 6045TIP3   OH239549   1.761   2.230  15.853 -0.3415  0.1784 -0.2362
 6045TIP3    H139550   1.825   2.160  15.857 -0.9329 -0.3044  0.8632
 6045TIP3    H239551   1.685   2.191  15.808 -0.7961  0.0083  0.6718
 6046TIP3   OH239552   5.346   6.104  15.879  0.1438 -1.0736  0.8846
 6046TIP3    H139553   5.268   6.067  15.921 -0.1666  0.3068  1.5526
 6046TIP3    H239554   5.397   6.028  15.852 -0.0008 -2.0151  3.1296
 6047TIP3   OH239555   1.409   1.416   0.454  0.0319  0.3747 -0.0639
 6047TIP3    H139556   1.474   1.375   0.510  0.6765  0.6240 -0.6128
 6047TIP3    H239557   1.439   1.397   0.365 -0.2112  1.1472 -0.3201
 6048TIP3   OH239558   4.350   1.560   4.616 -0.2494  0.5038  0.3941
 6048TIP3    H139559   4.347   1.473   4.656  0.5571  0.6333  0.7443
 6048TIP3    H239560   4.259   1.591   4.619 -0.4192 -0.0369  0.9114
 6049TIP3   OH239561   2.920   1.622  14.134  0.2671  0.5787 -0.0284
 6049TIP3    H139562   2.894   1.610  14.226 -0.4748  0.1759 -0.2919
 6049TIP3    H239563   2.967   1.542  14.112 -2.0038 -0.5757 -0.8453
 6050TIP3   OH239564   6.722   1.512   6.153 -0.3215 -0.2269  0.5211
 6050TIP3    H139565   6.718   1.460   6.233  2.1208 -1.3717 -0.0558
 6050TIP3    H239566   6.712   1.449   6.082  0.0085  0.4376 -0.1311
 6051TIP3   OH239567   0.363   0.656  13.788  0.0359  0.2090 -0.4454
 6051TIP3    H139568   0.439   0.656  13.730 -0.6728  0.1533 -1.3932
 6051TIP3    H239569   0.298   0.708  13.742  0.3023  2.2877  1.4573
 6052TIP3   OH239570   2.054   0.629  13.112 -0.4185  0.4813 -0.0194
 6052TIP3    H139571   2.077   0.689  13.041 -0.9131  0.5572 -0.1135
 6052TIP3    H239572   1.961   0.645  13.128 -0.3663  0.2827  0.4742
 6053TIP3   OH239573   5.974   6.647  10.241  0.0631 -0.0750  0.2197
 6053TIP3    H139574   5.902   6.679  10.294 -0.7833 -1.9981  0.2891
 6053TIP3    H239575   6.053   6.675  10.287 -0.6646 -0.6315  1.8298
 6054TIP3   OH239576   3.458   3.929   4.766  0.3378 -0.4673 -0.5577
 6054TIP3    H139577   3.370   3.935   4.805  0.9740  0.3035  0.7942
 6054TIP3    H239578   3.466   3.838   4.738 -0.1443 -1.0380  1.1120
 6055TIP3   OH239579   5.236   5.935   1.781  0.7755 -0.0382  0.1287
 6055TIP3    H139580   5.287   5.938   1.862  1.2145 -0.9632 -0.0951
 6055TIP3    H239581   5.149   5.964   1.806  0.5911 -1.4402  1.1954
 6056TIP3   OH239582   4.012   0.049  11.531  0.0796 -0.2235 -0.0621
 6056TIP3    H139583   4.066   0.036  11.454 -0.4764  2.0109 -0.8645
 6056TIP3    H239584   4.048   0.127  11.573 -1.2716  0.1482  0.4635
 6057TIP3   OH239585   1.544   4.558   1.454  0.1216 -0.8201  0.0337
 6057TIP3    H139586   1.564   4.641   1.498 -1.6053 -0.2449 -0.2068
 6057TIP3    H239587   1.574   4.491   1.515 -0.7564 -0.0277  1.3736
 6058TIP3   OH239588   0.938   5.317   0.657  0.2164  0.8239 -0.2609
 6058TIP3    H139589   0.995   5.338   0.730 -0.3620  1.8712 -0.0994
 6058TIP3    H239590   0.869   5.262   0.695 -0.0367  1.2972 -0.0227
 6059TIP3   OH239591   5.123   5.865  14.975  0.1292  0.7980 -0.4628
 6059TIP3    H139592   5.172   5.946  14.965  0.7358  0.4592 -0.3163
 6059TIP3    H239593   5.161   5.806  14.910 -0.6290  0.7819 -0.8934
 6060TIP3   OH239594   4.401   0.153  13.552 -0.3548 -0.1932  0.1228
 6060TIP3    H139595   4.431   0.179  13.465 -1.0044  0.6436  0.1385
 6060TIP3    H239596   4.363   0.233  13.588  0.9399 -0.2326  1.6220
 6061TIP3   OH239597   2.166   1.595   2.636 -0.1222  0.5056 -0.6408
 6061TIP3    H139598   2.199   1.523   2.582  0.0031  0.2134 -0.1820
 6061TIP3    H239599   2.091   1.557   2.682  2.0610 -0.4372  2.3256
 6062TIP3   OH239600   2.150   5.618  16.447 -0.0700 -0.1326  0.2936
 6062TIP3    H139601   2.192   5.626  16.533  0.1739  1.1177  0.0593
 6062TIP3    H239602   2.223   5.603  16.387 -0.3965 -3.2649  0.5579
 6063TIP3   OH239603   3.759   3.615   3.979 -0.4130 -0.6500 -0.2505
 6063TIP3    H139604   3.852   3.618   3.957 -0.2609 -1.8423  0.2139
 6063TIP3    H239605   3.738   3.705   4.005  0.8396 -0.5868  0.5889
 6064TIP3   OH239606   6.709   2.847  12.800  0.5676 -0.2582  0.2203
 6064TIP3    H139607   6.744   2.925  12.756 -0.4663  0.4249  0.5860
 6064TIP3    H239608   6.786   2.806  12.840  1.0898  0.7314  0.2565
 6065TIP3   OH239609   0.218   0.567   0.553 -0.3528 -0.2216 -0.7950
 6065TIP3    H139610   0.179   0.484   0.524  3.5175 -2.0102 -1.2974
 6065TIP3    H239611   0.297   0.576   0.499  1.8712  1.3075  2.5300
 6066TIP3   OH239612   3.564   2.044  16.589  0.5995  0.2835 -0.3092
 6066TIP3    H139613   3.491   2.094  16.628  0.8954  1.4955 -1.2471
 6066TIP3    H239614   3.595   2.100  16.518  0.8105 -1.3643 -1.5445
 6067TIP3   OH239615   3.405   6.233   4.085  0.0631  0.1519 -0.1870
 6067TIP3    H139616   3.342   6.166   4.110 -0.0976  0.6201  0.6806
 6067TIP3    H239617   3.368   6.315   4.119  0.4755  0.6182 -0.8494
 6068TIP3   OH239618   2.329   3.469  15.121  0.2256  0.2849 -0.0285
 6068TIP3    H139619   2.383   3.390  15.114 -0.1336  0.2124 -2.4572
 6068TIP3    H239620   2.246   3.439  15.158  1.1521  0.0533  1.8633
 6069TIP3   OH239621   3.605   5.771   0.966  0.0542  0.0999 -0.2572
 6069TIP3    H139622   3.659   5.780   1.044 -0.1266 -1.8863  0.1235
 6069TIP3    H239623   3.586   5.677   0.961 -1.1954  0.4222 -1.8363
 6070TIP3   OH239624   2.203   3.406   0.936  0.6161  0.1884  0.3524
 6070TIP3    H139625   2.234   3.495   0.957  0.5148  0.2951  0.0541
 6070TIP3    H239626   2.149   3.382   1.011  0.5483  0.4280  0.3838
 6071TIP3   OH239627   5.395   2.116   1.686 -0.1195 -0.4880  1.1218
 6071TIP3    H139628   5.384   2.029   1.723 -1.9619 -0.6331  0.2910
 6071TIP3    H239629   5.329   2.122   1.617 -0.2174  1.6490  1.3376
 6072TIP3   OH239630   1.994   2.309  13.514 -0.1235 -0.4180 -0.0698
 6072TIP3    H139631   1.960   2.394  13.485 -0.0344 -0.6833 -0.9910
 6072TIP3    H239632   1.995   2.314  13.609  0.0054  0.6648 -0.1256
 6073TIP3   OH239633   6.226   4.487   1.303  0.0559  0.1235 -0.9261
 6073TIP3    H139634   6.261   4.575   1.293  2.3710 -0.3187  2.1649
 6073TIP3    H239635   6.243   4.444   1.219  0.8971  1.9585 -1.7238
 6074TIP3   OH239636   6.192   6.060   4.873 -0.1233 -0.3421 -0.0895
 6074TIP3    H139637   6.168   6.144   4.911 -0.5269 -0.5551  0.1276
 6074TIP3    H239638   6.238   6.083   4.792 -3.4040  0.0530 -1.9449
 6075TIP3   OH239639   0.607   6.737  10.425  1.1274  0.4942 -0.5731
 6075TIP3    H139640   0.602   6.658  10.372  1.4296  1.0245 -1.4078
 6075TIP3    H239641   0.666   6.715  10.496  0.7619 -0.2097 -0.4799
 6076TIP3   OH239642   1.624   1.519   1.917  0.5551  0.1610 -0.2120
 6076TIP3    H139643   1.531   1.500   1.927  0.6921 -0.4760 -0.1549
 6076TIP3    H239644   1.629   1.615   1.925  0.2637 -0.0094  2.9196
 6077TIP3   OH239645   4.315   1.407   5.076  0.3474  0.3670  0.1197
 6077TIP3    H139646   4.377   1.457   5.023 -0.1081  1.1193  0.2801
 6077TIP3    H239647   4.367   1.337   5.115  0.8308  0.2461 -0.7382
 6078TIP3   OH239648   3.741   2.330  10.493  0.0482 -0.3677 -0.1828
 6078TIP3    H139649   3.675   2.348  10.426 -0.6533 -0.3947  0.5062
 6078TIP3    H239650   3.714   2.381  10.569 -0.4635 -2.1952  0.8873
 6079TIP3   OH239651   4.281   2.719   0.794 -0.2548  0.4074  0.4108
 6079TIP3    H139652   4.252   2.670   0.716  1.9525  0.7375 -0.6516
 6079TIP3    H239653   4.234   2.802   0.788  1.5383  1.3054 -1.7918
 6080TIP3   OH239654   4.583   3.634   6.185  0.6379 -0.3378 -0.3135
 6080TIP3    H139655   4.589   3.688   6.264 -1.7116  1.2659 -1.1759
 6080TIP3    H239656   4.619   3.549   6.211 -2.3767 -0.6403  3.1948
 6081TIP3   OH239657   2.725   4.252   3.226 -0.5365  0.1343 -0.1663
 6081TIP3    H139658   2.743   4.279   3.316 -0.9297 -0.4722  0.0979
 6081TIP3    H239659   2.636   4.280   3.209 -1.7046 -2.7339  0.8151
 6082TIP3   OH239660   5.271   2.056   4.728  0.1062  0.3070 -0.0036
 6082TIP3    H139661   5.208   1.985   4.736  1.6533 -1.0492  0.5793
 6082TIP3    H239662   5.265   2.104   4.811 -0.1547  0.1716  0.0548
 6083TIP3   OH239663   6.205   5.831   3.080 -0.1258  0.0869 -0.0310
 6083TIP3    H139664   6.227   5.817   2.988  1.2315  0.3241  0.2432
 6083TIP3    H239665   6.267   5.775   3.128 -0.4121  0.4344  0.7561
 6084TIP3   OH239666   4.977   4.261  16.071 -0.5457  0.3508  0.3401
 6084TIP3    H139667   5.041   4.197  16.041 -0.1924  0.6772  0.4039
 6084TIP3    H239668   4.970   4.324  15.999 -1.2733 -0.0370  0.0600
 6085TIP3   OH239669   5.069   0.944   0.831  0.6211  0.3440  0.9134
 6085TIP3    H139670   5.007   0.884   0.872 -1.7294  1.7220 -0.4849
 6085TIP3    H239671   5.036   0.955   0.742  3.0322  0.9516  0.0633
 6086TIP3   OH239672   5.265   0.730   2.599  0.0394  0.1289  0.6546
 6086TIP3    H139673   5.194   0.746   2.661 -0.5840  0.6961 -0.1957
 6086TIP3    H239674   5.317   0.811   2.600 -1.2124  0.9944 -1.1615
 6087TIP3   OH239675   1.763   1.495   3.586 -0.7077  0.2567  0.5305
 6087TIP3    H139676   1.776   1.588   3.603  0.8570  0.7131 -2.7438
 6087TIP3    H239677   1.825   1.450   3.644 -0.0953  1.3650  0.7366
 6088TIP3   OH239678   1.350   5.347  10.786  0.0179 -0.0947 -0.2326
 6088TIP3    H139679   1.328   5.415  10.723 -0.3275  1.9950  2.0817
 6088TIP3    H239680   1.279   5.283  10.780 -0.9667  1.0407 -0.6136
 6089TIP3   OH239681   0.528   4.245   4.611  0.1490  0.7721 -0.2183
 6089TIP3    H139682   0.531   4.159   4.568 -0.0669 -0.0087  1.2792
 6089TIP3    H239683   0.437   4.272   4.604 -0.0614  0.2585  0.4657
 6090TIP3   OH239684   2.747   5.923  14.320 -0.4495 -0.5427 -0.0105
 6090TIP3    H139685   2.842   5.932  14.327 -0.5813  0.8733 -0.0807
 6090TIP3    H239686   2.732   5.886  14.233 -0.1359  1.9572 -1.1525
 6091TIP3   OH239687   1.582   1.672  14.937 -0.4917  0.1301  0.6251
 6091TIP3    H139688   1.592   1.646  14.846 -1.5426 -3.4150  1.4474
 6091TIP3    H239689   1.504   1.727  14.938  1.3275  2.9012 -1.0343
 6092TIP3   OH239690   2.305   2.220  13.101 -0.0352 -0.3662 -0.1219
 6092TIP3    H139691   2.269   2.176  13.177 -2.0057  3.1088  1.0500
 6092TIP3    H239692   2.282   2.164  13.027 -1.8490 -1.6149  1.3645
 6093TIP3   OH239693   2.736   2.506  13.157 -0.1179  0.0163  0.1499
 6093TIP3    H139694   2.763   2.471  13.072  0.1989 -3.0179  1.4203
 6093TIP3    H239695   2.645   2.533  13.145  0.2853  0.6996 -1.4513
 6094TIP3   OH239696   6.453   5.938   0.961 -0.0541 -0.0039 -0.6693
 6094TIP3    H139697   6.482   5.997   0.892  0.0107  2.7878  1.6622
 6094TIP3    H239698   6.487   5.977   1.041 -1.2311 -2.4804  1.0797
 6095TIP3   OH239699   2.430   5.146   2.982  0.0248 -0.1198 -0.1317
 6095TIP3    H139700   2.412   5.234   2.949  1.4517 -0.3831 -1.7115
 6095TIP3    H239701   2.389   5.143   3.068 -2.0317  1.3100 -1.0234
 6096TIP3   OH239702   3.194   0.602  13.198 -0.4583  0.0715  0.4338
 6096TIP3    H139703   3.268   0.632  13.145 -0.5758 -0.4381 -0.0137
 6096TIP3    H239704   3.233   0.547  13.265 -0.4355 -0.2058  0.1909
 6097TIP3   OH239705   5.446   3.722  11.110  0.3317 -0.0918  0.1050
 6097TIP3    H139706   5.516   3.685  11.056  0.5143  0.7133 -0.2060
 6097TIP3    H239707   5.465   3.815  11.115 -1.2809  0.2976 -0.8231
 6098TIP3   OH239708   2.339   6.636  12.948 -0.5876  0.1332 -0.2508
 6098TIP3    H139709   2.326   6.719  12.995 -0.7571 -0.0449  0.0140
 6098TIP3    H239710   2.413   6.594  12.991  0.3210  0.7326 -1.1935
 6099TIP3   OH239711   5.612   4.281  14.341  0.4845  0.1929  0.0594
 6099TIP3    H139712   5.667   4.294  14.418 -1.0744 -1.3375  1.4510
 6099TIP3    H239713   5.622   4.188  14.320  0.2227  0.4155 -1.0670
 6100TIP3   OH239714   6.098   4.700   4.312  0.0764  0.3128 -0.1956
 6100TIP3    H139715   6.163   4.659   4.255  0.2702  0.8634 -0.3798
 6100TIP3    H239716   6.128   4.680   4.400 -0.2167 -0.5333 -0.2847
 6101TIP3   OH239717   5.221   3.544   1.668 -0.1472  0.1747  0.5956
 6101TIP3    H139718   5.193   3.631   1.697  0.9606  0.4750  0.7795
 6101TIP3    H239719   5.149   3.513   1.613 -0.4411  1.3213  0.3161
 6102TIP3   OH239720   1.300   2.381  10.544  0.3811 -0.3093 -0.0626
 6102TIP3    H139721   1.224   2.341  10.503 -0.7260  2.3550 -0.7076
 6102TIP3    H239722   1.286   2.368  10.638 -0.6525 -0.2336 -0.1999
 6103TIP3   OH239723   1.885   3.434   5.729  0.2163 -0.2965 -0.4244
 6103TIP3    H139724   1.817   3.430   5.797 -0.7660  0.0436 -1.3670
 6103TIP3    H239725   1.897   3.528   5.713  0.4748 -0.3764 -0.7011
 6104TIP3   OH239726   3.080   2.325  11.209 -0.2772 -0.4999  0.1258
 6104TIP3    H139727   3.164   2.369  11.197  1.1587 -3.2407 -0.2634
 6104TIP3    H239728   3.103   2.239  11.243 -2.9727 -1.2287  0.1933
 6105TIP3   OH239729   1.657   6.588  12.609  0.3062  0.8685 -0.3034
 6105TIP3    H139730   1.741   6.541  12.610 -0.4292 -0.4821  0.7947
 6105TIP3    H239731   1.619   6.568  12.694 -1.9514 -0.0531 -1.4964
 6106TIP3   OH239732   6.326   6.430  11.952 -1.1946  0.2781 -0.0813
 6106TIP3    H139733   6.384   6.463  12.021  0.3808 -0.9052 -0.7981
 6106TIP3    H239734   6.379   6.435  11.873 -2.2071 -0.4679 -0.8109
 6107TIP3   OH239735   6.590   5.290  13.751 -0.2210 -0.0054  0.4841
 6107TIP3    H139736   6.666   5.335  13.715  0.8189 -0.0880  2.4790
 6107TIP3    H239737   6.621   5.200  13.765 -0.9523 -0.2542  0.5061
 6108TIP3   OH239738   0.805   0.679   1.483 -0.1404  1.1105  0.4672
 6108TIP3    H139739   0.842   0.713   1.401 -0.9264 -1.6156 -1.0925
 6108TIP3    H239740   0.713   0.705   1.479 -0.4506 -0.0270 -0.1214
 6109TIP3   OH239741   3.242   0.253  16.300 -0.1548 -0.1769  0.0010
 6109TIP3    H139742   3.187   0.182  16.265  0.6289 -2.3868  3.0147
 6109TIP3    H239743   3.320   0.251  16.245 -0.6017 -0.9323 -0.6349
 6110TIP3   OH239744   5.592   5.545  16.834  0.1606 -0.7432 -0.2105
 6110TIP3    H139745   5.531   5.601  16.786 -0.0268 -1.7851 -1.2207
 6110TIP3    H239746   5.626   5.601  16.904 -0.5749  0.3998 -0.7451
 6111TIP3   OH239747   3.475   3.330   2.114  0.0692  0.2914  0.1277
 6111TIP3    H139748   3.477   3.321   2.019  0.6064  0.8967  0.0805
 6111TIP3    H239749   3.411   3.265   2.143 -1.2472  1.1429 -0.7727
 6112TIP3   OH239750   0.397   0.452  12.624 -0.2996  0.2012  0.0828
 6112TIP3    H139751   0.411   0.524  12.563 -0.0353  0.9052  0.9688
 6112TIP3    H239752   0.303   0.453  12.640 -0.0426  1.6911  1.6978
 6113TIP3   OH239753   4.075   6.035  14.319 -1.1480 -0.3645 -0.5174
 6113TIP3    H139754   4.098   6.128  14.315 -1.5033 -0.2573 -0.0698
 6113TIP3    H239755   4.046   6.014  14.230  1.4706 -0.7152 -1.3251
 6114TIP3   OH239756   4.576   2.344  13.338 -0.2316  0.2348  0.5097
 6114TIP3    H139757   4.642   2.401  13.377 -1.5045  1.7069  0.5426
 6114TIP3    H239758   4.577   2.366  13.245 -0.4961  0.0692  0.4674
 6115TIP3   OH239759   2.197   0.076  13.705 -0.0355 -0.0974 -0.0289
 6115TIP3    H139760   2.245   0.103  13.627 -0.6604  0.8198 -0.1089
 6115TIP3    H239761   2.245   0.001  13.739  0.8215  0.1397 -0.7190
 6116TIP3   OH239762   6.753   2.294   5.575  0.0970 -0.8329  0.3456
 6116TIP3    H139763   6.799   2.211   5.565 -0.6984 -1.1431 -0.6842
 6116TIP3    H239764   6.723   2.317   5.487 -0.5965  0.0198  0.7944
 6117TIP3   OH239765   3.931   0.390   0.187  0.5965 -0.3694 -0.4459
 6117TIP3    H139766   3.882   0.309   0.203 -0.5862  0.1774 -1.2127
 6117TIP3    H239767   3.959   0.419   0.274 -1.3304 -0.1587  0.1300
 6118TIP3   OH239768   6.451   6.614  12.829  0.0158  0.2362  0.3023
 6118TIP3    H139769   6.530   6.561  12.817  0.2274  0.6740 -0.3121
 6118TIP3    H239770   6.469   6.668  12.906 -0.1776 -0.5502  0.8939
 6119TIP3   OH239771   1.219   1.794  16.476 -0.1994  0.3062 -0.0109
 6119TIP3    H139772   1.297   1.750  16.442 -0.4178  0.5784 -0.8717
 6119TIP3    H239773   1.219   1.880  16.432 -2.7044 -0.8775 -2.4687
 6120TIP3   OH239774   0.427   3.653   2.816  0.6869 -0.2617 -0.7220
 6120TIP3    H139775   0.376   3.730   2.790  0.4778 -0.8488 -2.1334
 6120TIP3    H239776   0.378   3.579   2.780  0.7552 -1.0797  0.8424
 6121TIP3   OH239777   2.693   0.698   4.178 -0.6468 -0.0949 -0.0066
 6121TIP3    H139778   2.754   0.752   4.228  0.4050 -2.3233  1.1397
 6121TIP3    H239779   2.609   0.707   4.224 -0.4201  0.3080  0.3336
 6122TIP3   OH239780   0.535   5.146   1.064 -0.6249 -0.0638 -0.5216
 6122TIP3    H139781   0.605   5.211   1.066 -0.5961 -0.1172  0.7575
 6122TIP3    H239782   0.527   5.116   1.155 -0.7899 -1.6785 -1.0455
 6123TIP3   OH239783   4.205   5.761  14.821  0.2997 -0.7669  0.2731
 6123TIP3    H139784   4.140   5.736  14.755 -0.9119  2.8387 -0.0331
 6123TIP3    H239785   4.246   5.841  14.785  0.8083  0.2944  3.0889
 6124TIP3   OH239786   3.844   2.405   5.629 -0.2544  0.5853 -0.5278
 6124TIP3    H139787   3.750   2.426   5.632  0.2116  2.7813  0.0782
 6124TIP3    H239788   3.886   2.483   5.664  1.8205 -0.3458 -0.8991
 6125TIP3   OH239789   5.207   3.622  15.683 -0.6878 -0.2489 -0.0128
 6125TIP3    H139790   5.239   3.532  15.687 -1.9743 -0.7736 -1.0761
 6125TIP3    H239791   5.143   3.622  15.612 -0.5756  1.5497 -0.1560
 6126TIP3   OH239792   2.307   2.911  17.072 -0.3722  0.4490 -0.3544
 6126TIP3    H139793   2.316   2.829  17.023 -0.8603  0.4891 -0.5047
 6126TIP3    H239794   2.217   2.910  17.105  0.2120 -0.0151  1.3008
 6127TIP3   OH239795   1.773   2.985  12.435  0.0949  0.0583  0.3027
 6127TIP3    H139796   1.679   2.972  12.450  0.1518 -0.5339  0.1368
 6127TIP3    H239797   1.781   3.078  12.414 -0.3092  0.3667  1.4764
 6128TIP3   OH239798   5.068   1.671  16.452 -0.3980  0.2294  0.2131
 6128TIP3    H139799   5.161   1.668  16.432 -0.4165  1.9818 -0.1969
 6128TIP3    H239800   5.032   1.736  16.391 -1.6206  0.6690  1.3809
 6129TIP3   OH239801   4.767   1.569  15.466  0.2899  0.4243 -0.3344
 6129TIP3    H139802   4.801   1.658  15.452 -0.3309  0.7285  0.0792
 6129TIP3    H239803   4.803   1.518  15.393 -0.3774  1.2899 -1.2816
 6130TIP3   OH239804   2.467   3.766   0.412  0.3065 -0.3410  0.4126
 6130TIP3    H139805   2.428   3.690   0.456  0.3897  0.4554  1.8554
 6130TIP3    H239806   2.392   3.821   0.389  0.3575 -0.1799  0.6324
 6131TIP3   OH239807   2.123   4.903   0.318  0.0564  0.1406 -0.2424
 6131TIP3    H139808   2.090   4.846   0.388  1.9262 -0.8484 -0.1276
 6131TIP3    H239809   2.048   4.916   0.260 -1.1312 -0.2182  1.1612
 6132TIP3   OH239810   1.282   2.751  10.650  0.2127  0.1453  0.1649
 6132TIP3    H139811   1.232   2.718  10.725  0.8879  0.0169  0.5586
 6132TIP3    H239812   1.365   2.781  10.687  0.1919  0.9323 -0.4018
 6133TIP3   OH239813   1.494   6.644  13.664 -0.2362  0.3946  0.4468
 6133TIP3    H139814   1.570   6.661  13.608 -0.2107 -0.8467  0.0997
 6133TIP3    H239815   1.518   6.566  13.713 -1.0425  0.3711  0.8030
 6134TIP3   OH239816   5.187   5.450   4.612  0.0203  0.3317  0.4044
 6134TIP3    H139817   5.149   5.398   4.541  1.1373 -0.6033  0.4816
 6134TIP3    H239818   5.161   5.540   4.592  1.1457  0.2152 -1.7639
 6135TIP3   OH239819   5.693   2.802   4.394  0.0408  0.0713  0.3118
 6135TIP3    H139820   5.642   2.757   4.461  0.3434  0.0078  0.4988
 6135TIP3    H239821   5.652   2.888   4.386  0.4819  0.3533  1.1175
 6136TIP3   OH239822   1.527   4.755   5.043  0.1136 -0.2535  0.4320
 6136TIP3    H139823   1.552   4.838   5.084  1.2779 -0.5879  0.4231
 6136TIP3    H239824   1.492   4.780   4.957 -0.3822  0.2912  0.7865
 6137TIP3   OH239825   0.559   3.200  14.086  0.7482  0.2737  0.0241
 6137TIP3    H139826   0.555   3.220  13.992 -1.0312 -1.4781 -0.3091
 6137TIP3    H239827   0.482   3.146  14.102  1.3049  0.1395  2.4149
 6138TIP3   OH239828   3.787   5.653   1.345  0.3840  0.1742  0.0202
 6138TIP3    H139829   3.760   5.562   1.342  2.3813 -0.4077 -1.1408
 6138TIP3    H239830   3.799   5.671   1.439  0.2755 -0.8282  0.2346
 6139TIP3   OH239831   0.715   1.444   5.617  0.3367  0.1843  0.6216
 6139TIP3    H139832   0.748   1.414   5.532  0.6952 -1.2354  1.2412
 6139TIP3    H239833   0.697   1.363   5.665 -1.4860  0.9550  1.2802
 6140TIP3   OH239834   1.942   0.664  16.212 -0.2525 -0.2072 -0.0652
 6140TIP3    H139835   1.916   0.746  16.171 -0.1202 -0.2925 -0.3262
 6140TIP3    H239836   1.864   0.632  16.257  0.1236  0.8804  1.4156
 6141TIP3   OH239837   2.199   1.749  15.934 -0.1931  0.3405 -0.7676
 6141TIP3    H139838   2.177   1.839  15.913  0.1523 -0.1305 -3.3910
 6141TIP3    H239839   2.191   1.743  16.029 -2.3799  2.5310 -0.7814
 6142TIP3   OH239840   1.866   5.346  12.996  0.3270 -0.0360 -0.0287
 6142TIP3    H139841   1.946   5.395  12.980 -0.0739  0.4272 -0.6262
 6142TIP3    H239842   1.819   5.396  13.063 -0.3126  0.6671 -0.9918
 6143TIP3   OH239843   3.341   0.974  17.124 -0.0012  0.2084  0.6110
 6143TIP3    H139844   3.273   0.916  17.088 -0.9415  1.7329 -0.1290
 6143TIP3    H239845   3.368   1.028  17.049  0.9876  0.6040  1.2471
 6144TIP3   OH239846   4.836   5.240  16.035  0.1124 -0.3763  0.2177
 6144TIP3    H139847   4.902   5.189  16.081  1.2127 -0.0561 -0.9689
 6144TIP3    H239848   4.886   5.293  15.973 -0.9190  2.6002  1.8007
 6145TIP3   OH239849   3.714   5.744   5.343 -0.1534 -0.1912 -0.2010
 6145TIP3    H139850   3.629   5.701   5.355 -1.1584  1.5787 -0.8038
 6145TIP3    H239851   3.772   5.699   5.404 -1.7064 -0.9357  0.7703
 6146TIP3   OH239852   2.018   3.857  16.875  0.0767  0.0003 -0.2013
 6146TIP3    H139853   2.084   3.889  16.937 -0.0197  1.1696 -0.6869
 6146TIP3    H239854   2.055   3.876  16.789 -0.9038  0.7180 -0.4763
 6147TIP3   OH239855   2.754   5.104   4.487 -0.3612  0.7012 -0.1931
 6147TIP3    H139856   2.681   5.133   4.542 -0.2170  0.8380 -0.0750
 6147TIP3    H239857   2.712   5.049   4.420 -0.4582 -0.0286  0.4521
 6148TIP3   OH239858   1.498   1.738   1.002  0.2774  0.0484  0.1854
 6148TIP3    H139859   1.529   1.820   1.041 -0.7351 -0.1895  1.5462
 6148TIP3    H239860   1.471   1.763   0.914  0.0760  1.1787  0.5496
 6149TIP3   OH239861   0.349   5.527   3.756 -1.2964  1.0218  0.2949
 6149TIP3    H139862   0.336   5.579   3.835 -0.2259  0.9068  0.5511
 6149TIP3    H239863   0.310   5.442   3.775 -3.4874  1.8627 -0.2972
 6150TIP3   OH239864   0.080   5.217  12.618  0.0314 -0.0839 -0.7106
 6150TIP3    H139865   0.030   5.204  12.699  1.2865 -2.0322 -0.1956
 6150TIP3    H239866   0.027   5.175  12.550 -0.4761  0.5422 -0.7052
 6151TIP3   OH239867   4.538   4.496   4.496  0.1485  0.2773 -0.1734
 6151TIP3    H139868   4.559   4.438   4.423  0.8477  0.5551 -0.1959
 6151TIP3    H239869   4.570   4.450   4.574  0.3696  0.4641 -0.1534
 6152TIP3   OH239870   3.327   5.735   1.687 -0.0703  0.0581 -0.0847
 6152TIP3    H139871   3.416   5.764   1.706 -0.5179  1.9010 -0.7627
 6152TIP3    H239872   3.320   5.650   1.731  0.8574  1.5059  2.9304
 6153TIP3   OH239873   3.938   0.367  14.969 -0.0108  0.1468  0.0845
 6153TIP3    H139874   3.950   0.317  14.888  0.7101  0.5109 -0.0373
 6153TIP3    H239875   3.986   0.317  15.035 -2.6101 -1.4682  0.8287
 6154TIP3   OH239876   4.998   3.294  10.415 -1.1510 -0.2277  0.2335
 6154TIP3    H139877   5.072   3.268  10.361 -2.1854 -0.8346 -0.9173
 6154TIP3    H239878   5.006   3.389  10.421 -0.4387 -0.2605 -0.1128
 6155TIP3   OH239879   3.655   0.435   3.716  0.5834 -0.5855  0.3287
 6155TIP3    H139880   3.696   0.408   3.799 -0.4830  2.8603  2.0745
 6155TIP3    H239881   3.699   0.516   3.693 -1.9245  0.6322 -0.3024
 6156TIP3   OH239882   5.633   4.492  13.240 -0.1861  0.2083  0.3923
 6156TIP3    H139883   5.664   4.467  13.328 -2.5400  1.2857  1.5828
 6156TIP3    H239884   5.677   4.575  13.222 -1.8361  1.4321  1.8174
 6157TIP3   OH239885   5.129   0.647  10.679 -0.1558  0.1460 -0.1115
 6157TIP3    H139886   5.160   0.565  10.641  0.9726  0.0961  0.8992
 6157TIP3    H239887   5.038   0.629  10.703  0.1524 -0.8741  0.3066
 6158TIP3   OH239888   2.593   3.850   0.173  0.2590 -0.2908 -0.5792
 6158TIP3    H139889   2.663   3.914   0.185 -1.4250  1.7227 -1.0211
 6158TIP3    H239890   2.571   3.822   0.262  0.7364  0.0694 -0.3424
 6159TIP3   OH239891   0.072   1.888  12.104 -0.9078 -0.0021  0.1520
 6159TIP3    H139892   0.128   1.821  12.065  0.7356  2.6376 -2.1866
 6159TIP3    H239893   0.120   1.917  12.182 -0.4880  0.0815 -0.1361
 6160TIP3   OH239894   1.929   0.564   5.593 -0.8947  0.3283  0.2070
 6160TIP3    H139895   1.851   0.512   5.608 -0.7760  0.4501  1.2456
 6160TIP3    H239896   1.923   0.637   5.655 -0.5198  0.9548 -0.4785
 6161TIP3   OH239897   4.063   2.343   2.791 -0.1934  0.3802  0.2526
 6161TIP3    H139898   4.041   2.361   2.699 -0.0372 -0.8365 -0.0370
 6161TIP3    H239899   3.995   2.387   2.841 -1.6294 -0.9248 -0.5366
 6162TIP3   OH239900   3.733   4.772  11.501  0.2059 -0.5910 -0.2240
 6162TIP3    H139901   3.803   4.771  11.436  0.0177  0.3148 -0.4429
 6162TIP3    H239902   3.752   4.848  11.556  1.3064 -2.2682  1.8223
 6163TIP3   OH239903   6.585   5.904   0.525  0.0037  0.2677 -0.2314
 6163TIP3    H139904   6.565   5.819   0.564 -0.3643  0.7653  0.6825
 6163TIP3    H239905   6.584   5.889   0.431 -0.7117 -0.5963 -0.0819
 6164TIP3   OH239906   2.201   1.154   4.362 -0.1458 -0.4319 -0.0120
 6164TIP3    H139907   2.138   1.221   4.334  0.2342 -0.2092 -0.3274
 6164TIP3    H239908   2.234   1.187   4.446 -0.5158 -0.5952  0.2017
 6165TIP3   OH239909   2.949   4.653  15.686 -0.6191 -0.2621 -0.3231
 6165TIP3    H139910   2.855   4.666  15.683 -0.5301  0.1677 -1.3777
 6165TIP3    H239911   2.965   4.580  15.626 -0.3726 -0.8672  0.4766
 6166TIP3   OH239912   3.000   2.928  15.044  0.4651  0.3461  0.1014
 6166TIP3    H139913   2.994   2.844  14.998  0.1735  0.4938 -0.1332
 6166TIP3    H239914   3.041   2.906  15.127  0.1317 -0.0809  0.1616
 6167TIP3   OH239915   2.383   2.230  14.220  0.6503 -0.1165 -0.1355
 6167TIP3    H139916   2.326   2.192  14.153  0.8411 -1.5509  0.5188
 6167TIP3    H239917   2.410   2.156  14.274  1.2582  0.9047  0.9692
 6168TIP3   OH239918   0.991   4.304   1.134 -0.1700 -0.0071  0.1880
 6168TIP3    H139919   0.934   4.359   1.080  0.0724  0.2620  0.2023
 6168TIP3    H239920   0.980   4.337   1.223  0.1870  0.2014  0.1558
 6169TIP3   OH239921   2.357   1.137  14.053  0.4385  0.5445 -0.5643
 6169TIP3    H139922   2.319   1.216  14.091  0.4781  0.0307  0.5835
 6169TIP3    H239923   2.439   1.166  14.013  1.3824  0.7925  1.4842
 6170TIP3   OH239924   2.495   4.154   1.044 -0.4046  0.0477  0.0126
 6170TIP3    H139925   2.529   4.174   1.131 -0.0675  1.4435 -0.4181
 6170TIP3    H239926   2.537   4.071   1.020  1.3961  0.8847  0.1954
 6171TIP3   OH239927   0.425   1.762   0.416  0.0055  0.3061  0.6345
 6171TIP3    H139928   0.518   1.745   0.402  0.1884  2.2596 -0.7284
 6171TIP3    H239929   0.416   1.764   0.511  1.1323 -1.0374  0.7841
 6172TIP3   OH239930   6.691   6.225  12.005  0.5795 -0.3866  0.3484
 6172TIP3    H139931   6.677   6.208  12.098 -0.3786  0.0594  0.2958
 6172TIP3    H239932   6.631   6.166  11.960  0.4264 -0.0032  0.0429
 6173TIP3   OH239933   4.629   2.096  12.374 -0.1136  0.1953 -0.0362
 6173TIP3    H139934   4.582   2.093  12.458 -0.9044  0.9428 -0.4494
 6173TIP3    H239935   4.712   2.051  12.392 -0.2948  0.3072  1.1350
 6174TIP3   OH239936   4.525   1.546   1.879  0.4120  0.4810  0.3751
 6174TIP3    H139937   4.534   1.460   1.920  2.3096  0.3756 -0.2014
 6174TIP3    H239938   4.539   1.529   1.786 -0.5137  1.2271  0.0886
 6175TIP3   OH239939   5.986   1.718   1.613  0.1459  0.5550  0.2821
 6175TIP3    H139940   6.047   1.646   1.598  1.1177  1.2569  0.7605
 6175TIP3    H239941   6.042   1.795   1.627 -0.8033  1.0071  1.8296
 6176TIP3   OH239942   4.777   2.479  15.496 -0.4533 -0.0598 -0.1001
 6176TIP3    H139943   4.775   2.469  15.401  0.4799  2.3521 -0.4169
 6176TIP3    H239944   4.842   2.548  15.511 -0.0878 -0.9073  2.3353
 6177TIP3   OH239945   5.063   6.184   6.496 -0.7047  0.4429  0.6471
 6177TIP3    H139946   5.082   6.247   6.427  0.3527 -0.4410  0.1076
 6177TIP3    H239947   5.143   6.182   6.549 -1.3714  0.8426  1.6852
 6178TIP3   OH239948   3.282   5.105  13.288  0.3380  0.0510  0.2967
 6178TIP3    H139949   3.253   5.182  13.239  1.0929  0.3075  0.2587
 6178TIP3    H239950   3.376   5.099  13.271  0.4532 -0.3418  1.0456
 6179TIP3   OH239951   2.016   4.010   1.857 -0.1018 -0.6902 -0.1837
 6179TIP3    H139952   1.994   4.097   1.823  1.2739 -0.0761  0.4824
 6179TIP3    H239953   2.104   3.992   1.825  0.4816 -0.8994  1.4733
 6180TIP3   OH239954   1.131   3.818  15.652  0.3599 -0.3797  0.3009
 6180TIP3    H139955   1.064   3.886  15.646  0.1430 -0.6032  0.2030
 6180TIP3    H239956   1.206   3.862  15.693 -0.5576 -0.6369  2.3571
 6181TIP3   OH239957   5.800   0.807  11.119 -0.2010  0.0788 -0.2542
 6181TIP3    H139958   5.872   0.807  11.057 -0.6309 -2.8615 -0.8134
 6181TIP3    H239959   5.796   0.717  11.151 -2.3490  0.6796  1.2633
 6182TIP3   OH239960   5.427   1.409   2.696  0.1942 -0.1309 -0.0759
 6182TIP3    H139961   5.468   1.410   2.783 -0.5616 -0.2505  0.2789
 6182TIP3    H239962   5.384   1.494   2.689  2.9934  1.2528 -1.6532
 6183TIP3   OH239963   6.724   6.429   4.304 -0.2189 -0.0904 -0.1051
 6183TIP3    H139964   6.738   6.401   4.213 -1.1731 -1.3063  0.1127
 6183TIP3    H239965   6.712   6.524   4.297 -0.2181 -0.1610 -1.2447
 6184TIP3   OH239966   2.918   1.057   2.627  0.3263  0.3037  0.0487
 6184TIP3    H139967   2.978   1.016   2.691  0.3987  0.7135  0.2464
 6184TIP3    H239968   2.976   1.102   2.566  0.2498  0.0331 -0.2223
 6185TIP3   OH239969   6.337   5.135   5.859 -0.1865 -0.2575  0.3487
 6185TIP3    H139970   6.365   5.075   5.928 -1.6426 -1.9270 -0.4614
 6185TIP3    H239971   6.316   5.216   5.905  3.0891  0.0975  1.3024
 6186TIP3   OH239972   6.664   0.861  15.891  0.1751 -0.2706  0.4372
 6186TIP3    H139973   6.614   0.928  15.938  0.8216 -0.2499  1.1015
 6186TIP3    H239974   6.756   0.887  15.902  0.4222 -1.1715  0.5588
 6187TIP3   OH239975   2.251   0.953  15.653 -0.2141 -0.3991  0.7186
 6187TIP3    H139976   2.221   1.002  15.729 -0.5118 -1.0211  1.0045
 6187TIP3    H239977   2.210   0.867  15.661  0.2312 -0.6737  0.1776
 6188TIP3   OH239978   4.099   3.635   6.666 -0.0829 -0.1264 -0.3761
 6188TIP3    H139979   4.180   3.659   6.710 -1.0017  1.4548  0.4871
 6188TIP3    H239980   4.062   3.565   6.719 -1.0618  1.5993  1.2733
 6189TIP3   OH239981   0.273   1.035   0.936 -0.2047  0.1847 -0.0905
 6189TIP3    H139982   0.363   1.003   0.949 -0.7022 -1.0736  0.2424
 6189TIP3    H239983   0.267   1.111   0.994  1.2548  1.4532 -1.5325
 6190TIP3   OH239984   0.218   0.039   5.739  0.4030  0.4228  0.0589
 6190TIP3    H139985   0.208   0.097   5.663 -2.0602  0.0410  0.0378
 6190TIP3    H239986   0.136   0.050   5.788 -0.2548 -3.2494 -0.1095
 6191TIP3   OH239987   1.276   6.028  11.594 -0.0090  0.5345  0.2298
 6191TIP3    H139988   1.354   6.076  11.623 -0.5239  1.4198  0.1600
 6191TIP3    H239989   1.252   5.974  11.669  1.2441 -0.4727 -0.0914
 6192TIP3   OH239990   2.801   6.434   2.649 -0.3702 -0.1999  0.5681
 6192TIP3    H139991   2.733   6.493   2.680 -1.7614 -1.7665  0.5514
 6192TIP3    H239992   2.832   6.473   2.567  0.6644  1.9327  1.9290
 6193TIP3   OH239993   6.178   3.561  13.542  0.1189  0.1830 -0.2502
 6193TIP3    H139994   6.125   3.565  13.622  0.4875 -0.8981  0.0512
 6193TIP3    H239995   6.251   3.621  13.559  0.3046 -0.1933  0.3067
 6194TIP3   OH239996   2.484   1.013  15.898  0.1240 -0.2548  0.3044
 6194TIP3    H139997   2.447   0.924  15.894  0.8757 -0.5475 -0.2645
 6194TIP3    H239998   2.540   1.012  15.975  0.5946 -0.4648 -0.0336
 6195TIP3   OH239999   4.311   4.243   4.329 -0.7124 -0.3175 -0.3952
 6195TIP3    H140000   4.311   4.210   4.419 -0.3419  1.3921  0.2481
 6195TIP3    H240001   4.401   4.275   4.315 -1.5780  2.3108 -0.2578
 6196TIP3   OH240002   3.751   1.252   0.242 -0.5970 -0.5795 -0.1402
 6196TIP3    H140003   3.761   1.166   0.200  2.6709  0.4741 -1.7263
 6196TIP3    H240004   3.804   1.311   0.188 -0.9783  1.9959  2.1887
 6197TIP3   OH240005   2.922   3.189   4.659  0.0286  0.7250 -0.3132
 6197TIP3    H140006   2.847   3.201   4.601 -1.3859 -1.4377  0.9694
 6197TIP3    H240007   2.999   3.194   4.602 -1.3356 -1.7703 -2.4610
 6198TIP3   OH240008   0.507   2.806   3.529  0.1218 -0.2123  0.9018
 6198TIP3    H140009   0.511   2.786   3.623  0.8222 -0.4770  0.8150
 6198TIP3    H240010   0.486   2.899   3.526  2.0153  0.2360  1.3309
 6199TIP3   OH240011   2.921   5.970  14.863  0.5455 -0.4001 -0.1151
 6199TIP3    H140012   2.878   6.046  14.899  1.4155 -0.6509  1.5203
 6199TIP3    H240013   2.880   5.956  14.777 -2.4973 -0.5837  1.3278
 6200TIP3   OH240014   4.540   3.743  13.592 -0.0897 -0.1579  0.5348
 6200TIP3    H140015   4.574   3.770  13.506  2.1671  0.0251  1.4449
 6200TIP3    H240016   4.499   3.821  13.628 -0.7036 -0.1329 -0.2129
 6201TIP3   OH240017   2.010   6.290  11.638 -0.1111 -0.0576  0.6429
 6201TIP3    H140018   2.021   6.301  11.544 -0.9999 -1.8006  0.3040
 6201TIP3    H240019   1.928   6.335  11.658  1.7067  3.1507  1.1936
 6202TIP3   OH240020   0.731   0.017  14.768  0.0357  0.7455  0.7870
 6202TIP3    H140021   0.794   0.088  14.755  1.1392  0.0190  2.0522
 6202TIP3    H240022   0.667   0.053  14.829 -0.5657  1.3383 -0.1708
 6203TIP3   OH240023   5.682   0.585   3.256 -0.3173 -0.4901 -0.1288
 6203TIP3    H140024   5.698   0.506   3.205 -1.5175 -0.8359  0.0178
 6203TIP3    H240025   5.743   0.650   3.219  2.3546 -2.0928  1.3073
 6204TIP3   OH240026   4.271   4.554   3.716 -0.1046  0.1034  0.5972
 6204TIP3    H140027   4.333   4.495   3.759  0.5046  1.1982  1.2522
 6204TIP3    H240028   4.294   4.641   3.750 -0.9405  0.7200 -0.4092
 6205TIP3   OH240029   0.641   6.497  16.776  0.7116 -0.9956 -0.1792
 6205TIP3    H140030   0.733   6.473  16.786  0.8568 -0.6630 -0.6884
 6205TIP3    H240031   0.640   6.558  16.702  0.0608 -1.1291 -0.2822
 6206TIP3   OH240032   6.481   4.906   3.891  0.6500 -0.1702  0.7479
 6206TIP3    H140033   6.571   4.903   3.925  0.4909 -1.1336  1.0988
 6206TIP3    H240034   6.426   4.885   3.966  0.2179 -1.0432  0.2007
 6207TIP3   OH240035   3.021   3.553  16.987  0.3487 -0.3673 -0.7758
 6207TIP3    H140036   2.990   3.512  16.907  1.5924 -1.6105 -0.6316
 6207TIP3    H240037   3.041   3.480  17.046 -1.9745  0.5456  1.2293
 6208TIP3   OH240038   2.645   2.892  15.560  0.2638 -0.4115 -0.3177
 6208TIP3    H140039   2.669   2.946  15.484 -0.8145  1.4619  0.6468
 6208TIP3    H240040   2.645   2.802  15.526  1.5072  0.2290 -2.1051
 6209TIP3   OH240041   3.608   0.551   1.558 -0.0292  0.1619 -0.0846
 6209TIP3    H140042   3.619   0.462   1.523 -2.1797 -0.4777  0.8060
 6209TIP3    H240043   3.536   0.588   1.508  1.3309  1.6941 -0.9468
 6210TIP3   OH240044   6.754   2.723   4.245  0.4554 -0.0614  0.2543
 6210TIP3    H140045   6.801   2.658   4.194  0.4059  0.4384 -0.4364
 6210TIP3    H240046   6.687   2.673   4.293  0.4187 -0.5122 -0.2655
 6211TIP3   OH240047   3.009   2.669   5.245 -0.4084  0.1636 -0.4982
 6211TIP3    H140048   2.992   2.761   5.222 -0.0741  0.0031 -1.3836
 6211TIP3    H240049   3.004   2.668   5.341 -0.8135  1.0280 -0.5003
 6212TIP3   OH240050   4.342   3.032  11.206 -0.2270  0.4662 -0.3227
 6212TIP3    H140051   4.342   3.062  11.115 -1.3773  2.1364  0.2205
 6212TIP3    H240052   4.277   3.086  11.250 -0.0331 -0.6522  1.4052
 6213TIP3   OH240053   1.395   1.306   2.482 -0.1552 -0.5378  0.6020
 6213TIP3    H140054   1.477   1.356   2.479 -0.1944 -0.4857  0.3526
 6213TIP3    H240055   1.408   1.242   2.552 -0.5383  0.5762  1.7039
 6214TIP3   OH240056   2.451   4.355  14.303  0.1630 -0.1749 -0.6029
 6214TIP3    H140057   2.516   4.285  14.313  1.0732  0.3425 -2.6399
 6214TIP3    H240058   2.502   4.432  14.280 -0.9601  0.8739  0.3726
 6215TIP3   OH240059   1.588   1.978   4.689 -0.7040 -0.0206  0.2226
 6215TIP3    H140060   1.569   1.919   4.616  0.6587 -0.2215  0.0120
 6215TIP3    H240061   1.663   1.939   4.733  1.0464  2.2063 -0.6804
 6216TIP3   OH240062   2.660   3.849   3.064 -0.5318  0.0662  0.4492
 6216TIP3    H140063   2.698   3.772   3.022 -0.9666  0.6455 -1.0472
 6216TIP3    H240064   2.717   3.921   3.040 -1.0207  0.4771  0.5015
 6217TIP3   OH240065   5.759   1.061   1.118 -0.5632 -0.0781  0.1249
 6217TIP3    H140066   5.717   0.984   1.158 -0.2869 -0.5035 -0.4023
 6217TIP3    H240067   5.726   1.062   1.029 -1.0576  0.7846  0.3115
 6218TIP3   OH240068   6.175   4.098   5.223  0.4490 -0.4118 -0.0579
 6218TIP3    H140069   6.082   4.084   5.205  0.4568  0.3266 -0.7255
 6218TIP3    H240070   6.199   4.172   5.167  1.2179 -0.0076  0.7928
 6219TIP3   OH240071   3.859   4.349   0.183 -0.2759  0.1910 -0.7341
 6219TIP3    H140072   3.917   4.425   0.174 -1.3853  0.9236 -1.9257
 6219TIP3    H240073   3.814   4.362   0.266 -0.0811  0.5700 -0.6868
 6220TIP3   OH240074   4.239   0.466  13.718 -0.2514 -0.0945  0.1854
 6220TIP3    H140075   4.191   0.548  13.731 -1.3151 -0.7128  0.2530
 6220TIP3    H240076   4.174   0.397  13.735  0.7610 -0.9565  0.6302
 6221TIP3   OH240077   2.055   0.920  13.968 -0.8648  0.2889 -0.1228
 6221TIP3    H140078   2.114   0.844  13.961 -0.0937  0.8562  0.1239
 6221TIP3    H240079   1.996   0.911  13.893  0.2356  0.2872 -1.0037
 6222TIP3   OH240080   6.527   1.939  14.687 -0.0096  0.3781  0.1343
 6222TIP3    H140081   6.591   1.997  14.729 -0.5402  2.2484 -1.5760
 6222TIP3    H240082   6.442   1.979  14.705 -0.2239  1.4601 -2.9750
 6223TIP3   OH240083   0.267   6.703   0.153  0.7910 -0.9107  0.8406
 6223TIP3    H140084   0.188   6.651   0.166 -0.0568  0.3458  0.7734
 6223TIP3    H240085   0.317   6.654   0.087 -0.5228 -1.0497 -0.0685
 6224TIP3   OH240086   0.887   2.751   2.352  0.0741  0.2735 -0.2520
 6224TIP3    H140087   0.922   2.829   2.396  0.4341 -0.3462  0.5893
 6224TIP3    H240088   0.884   2.684   2.421 -1.0257 -0.2180 -0.7639
 6225TIP3   OH240089   4.315   0.444  15.088 -0.2839 -0.7309 -0.1530
 6225TIP3    H140090   4.245   0.430  15.152 -0.3357 -0.5234 -0.1624
 6225TIP3    H240091   4.340   0.357  15.059  0.1945 -0.8668  0.6418
 6226TIP3   OH240092   5.708   1.568   5.939 -0.4017  0.3187 -0.6180
 6226TIP3    H140093   5.725   1.538   5.850 -1.7524  1.1607 -1.1758
 6226TIP3    H240094   5.747   1.501   5.995  1.4588  0.3636 -1.8303
 6227TIP3   OH240095   1.605   5.942   2.803  0.0855  0.2286  0.5066
 6227TIP3    H140096   1.552   5.999   2.859 -1.1911 -0.7355  0.3234
 6227TIP3    H240097   1.622   5.994   2.725 -0.0942  0.7711  0.8270
 6228TIP3   OH240098   0.753   1.734  12.036 -0.6804 -1.0523 -0.5698
 6228TIP3    H140099   0.814   1.781  11.980 -0.2621 -0.9617 -0.0469
 6228TIP3    H240100   0.735   1.795  12.108  0.0654 -1.7839  0.2476
 6229TIP3   OH240101   2.594   5.792   4.935  0.0201 -0.2221  0.4580
 6229TIP3    H140102   2.578   5.817   5.026  0.6731  1.3745  0.1531
 6229TIP3    H240103   2.544   5.856   4.883  1.2258  0.1134 -0.3258
 6230TIP3   OH240104   1.978   1.500   0.628  0.0799 -0.4416  0.5741
 6230TIP3    H140105   2.016   1.443   0.561 -1.1373 -1.6104  0.8434
 6230TIP3    H240106   1.989   1.588   0.593  0.4342 -0.9590 -0.6705
 6231TIP3   OH240107   0.273   2.674   1.045  0.3071  0.6263  0.1227
 6231TIP3    H140108   0.280   2.662   1.139  0.0756  2.2408  0.3522
 6231TIP3    H240109   0.289   2.767   1.031  0.0895  0.4464 -1.4064
 6232TIP3   OH240110   4.099   2.684   2.886  0.1097  0.2284 -0.3256
 6232TIP3    H140111   4.058   2.636   2.957  1.0801 -2.6886 -1.6742
 6232TIP3    H240112   4.191   2.692   2.913  0.3486 -0.3426 -0.9636
 6233TIP3   OH240113   5.254   0.422   1.247  0.1978  0.2026 -0.2900
 6233TIP3    H140114   5.221   0.443   1.334  0.2566 -0.6950 -0.0501
 6233TIP3    H240115   5.343   0.458   1.245  0.1410  0.3538 -0.0376
 6234TIP3   OH240116   0.011   3.569   5.863  0.0437  0.3268 -0.6740
 6234TIP3    H140117   0.008   3.531   5.775  1.4122 -1.5688  0.0562
 6234TIP3    H240118   0.086   3.527   5.905 -2.4716 -1.2691  2.4727
 6235TIP3   OH240119   5.980   1.117  16.600  0.0366  0.3500  0.3496
 6235TIP3    H140120   6.017   1.166  16.527  1.0273  1.0085  1.2697
 6235TIP3    H240121   5.975   1.027  16.569  0.0847  0.6875 -0.6563
 6236TIP3   OH240122   1.424   6.373  11.521  0.3649  0.0435 -0.0305
 6236TIP3    H140123   1.358   6.375  11.590  1.3919 -1.1210  0.9955
 6236TIP3    H240124   1.478   6.451  11.536 -0.5908  0.8569 -0.7165
 6237TIP3   OH240125   6.364   3.690  16.352  0.2812 -0.0911  0.3383
 6237TIP3    H140126   6.457   3.711  16.341  0.8008 -2.5790 -0.4100
 6237TIP3    H240127   6.364   3.615  16.412 -1.2904  0.2689  0.7968
 6238TIP3   OH240128   0.787   5.444   4.936  0.1735 -0.1833 -0.1787
 6238TIP3    H140129   0.880   5.444   4.960  0.4426 -2.1979 -1.1748
 6238TIP3    H240130   0.748   5.376   4.990 -0.2009 -1.1858 -1.6875
 6239TIP3   OH240131   2.181   1.832  14.804 -0.4905  0.1441  0.6461
 6239TIP3    H140132   2.191   1.909  14.860 -0.9378  2.4971 -2.3389
 6239TIP3    H240133   2.174   1.758  14.865 -0.5531  2.5013  3.6252
 6240TIP3   OH240134   4.139   0.841  14.048 -0.5097  0.3579  0.0598
 6240TIP3    H140135   4.084   0.919  14.058 -1.2948 -0.0168 -1.1041
 6240TIP3    H240136   4.104   0.779  14.112 -1.7469 -0.0231 -0.9522
 6241TIP3   OH240137   1.279   6.336   1.210 -0.5971 -0.3261  0.0126
 6241TIP3    H140138   1.284   6.336   1.306 -1.7009  0.8242  0.0738
 6241TIP3    H240139   1.339   6.406   1.183 -0.4831 -0.4793 -0.1326
 6242TIP3   OH240140   0.596   4.851  10.467 -1.1267 -0.1499 -0.1691
 6242TIP3    H140141   0.653   4.774  10.457  1.1810  1.2332  1.7437
 6242TIP3    H240142   0.514   4.815  10.502  0.1006 -1.7126  1.2425
 6243TIP3   OH240143   4.134   1.032   3.095  0.1015 -0.4215  0.0033
 6243TIP3    H140144   4.112   1.117   3.057  0.7531 -0.5515 -0.6505
 6243TIP3    H240145   4.207   1.050   3.154 -0.7047 -0.2757  0.9894
 6244TIP3   OH240146   3.621   4.581   6.381 -0.4015  0.0506  0.2392
 6244TIP3    H140147   3.589   4.500   6.423  0.0103  0.3591  1.1739
 6244TIP3    H240148   3.684   4.617   6.444  0.5397  0.3226 -0.8350
 6245TIP3   OH240149   5.222   4.531   2.790 -0.0127 -0.3195  0.2731
 6245TIP3    H140150   5.158   4.510   2.721  0.0680 -1.0118  0.3981
 6245TIP3    H240151   5.301   4.483   2.763 -0.3985 -1.7218  1.5494
 6246TIP3   OH240152   0.029   6.406   1.944 -0.5687  0.4858 -0.3999
 6246TIP3    H140153  -0.064   6.429   1.950 -0.6559  0.2404 -0.7535
 6246TIP3    H240154   0.075   6.489   1.948 -0.9164  0.8010 -2.4602
 6247TIP3   OH240155   0.114   1.630   4.137  0.2760 -0.0908 -0.0403
 6247TIP3    H140156   0.175   1.626   4.064 -1.5951  1.7066 -1.7622
 6247TIP3    H240157   0.130   1.716   4.177 -0.6809  0.1146 -0.0959
 6248TIP3   OH240158   1.966   5.260  11.483 -0.3335  0.0891  0.1366
 6248TIP3    H140159   2.008   5.188  11.528 -1.1363 -0.3993  0.1210
 6248TIP3    H240160   1.962   5.233  11.392 -3.4143 -1.2374  0.5967
 6249TIP3   OH240161   3.967   6.631   0.597 -0.0043  0.3113  0.0623
 6249TIP3    H140162   3.917   6.606   0.675  1.6124 -0.0546  0.9877
 6249TIP3    H240163   3.964   6.726   0.596 -0.3988  0.3059  0.3141
 6250TIP3   OH240164   1.579   2.664   0.304 -0.1134 -0.3037 -0.0872
 6250TIP3    H140165   1.535   2.749   0.307  0.0107 -0.2582  0.4135
 6250TIP3    H240166   1.561   2.631   0.216  1.1284  0.9168 -0.8094
 6251TIP3   OH240167   6.502   1.313  14.396 -0.2697  0.3272  0.0939
 6251TIP3    H140168   6.432   1.265  14.440 -0.2423  0.7856  0.6396
 6251TIP3    H240169   6.480   1.405  14.407 -0.3888  0.4526 -1.0672
 6252TIP3   OH240170   6.029   3.800   0.216 -0.0552 -0.6539 -0.0494
 6252TIP3    H140171   6.033   3.882   0.266 -0.3382 -0.3706 -0.4920
 6252TIP3    H240172   6.120   3.779   0.197 -0.0295  0.0958 -0.8055
 6253TIP3   OH240173   3.329   6.722  17.001 -0.4977 -0.3437  0.3257
 6253TIP3    H140174   3.296   6.657  17.063 -0.6142 -0.9953 -0.4241
 6253TIP3    H240175   3.317   6.806  17.046 -1.2564 -0.7524  0.8902
 6254TIP3   OH240176   1.124   5.705   5.072 -0.3739  0.4599  0.0778
 6254TIP3    H140177   1.152   5.796   5.062  0.7152  0.3155  1.5965
 6254TIP3    H240178   1.028   5.709   5.065 -0.2466  1.5196 -1.2044
 6255TIP3   OH240179   1.664   4.588  15.458  0.4968 -0.2470 -0.2979
 6255TIP3    H140180   1.600   4.534  15.505  0.2661  0.4437  0.1891
 6255TIP3    H240181   1.705   4.528  15.396 -0.0502 -0.8863 -0.0468
 6256TIP3   OH240182   5.236   5.625   3.908 -0.2552  0.5647 -0.5916
 6256TIP3    H140183   5.323   5.625   3.946  0.0949 -0.1574 -1.3937
 6256TIP3    H240184   5.240   5.690   3.838  0.1723 -0.7481 -1.8164
 6257TIP3   OH240185   0.016   4.669   6.788  0.0702 -0.2366  0.2469
 6257TIP3    H140186  -0.075   4.639   6.790 -0.0507  0.1497  0.8545
 6257TIP3    H240187   0.058   4.620   6.859  0.4835 -0.8757 -0.4438
 6258TIP3   OH240188   6.320   2.238   1.696  0.3243  0.3096 -0.2579
 6258TIP3    H140189   6.345   2.223   1.787  2.3485  1.4431 -0.5868
 6258TIP3    H240190   6.388   2.194   1.645  0.8429  2.1377 -1.1993
 6259TIP3   OH240191   4.176   4.400   2.679  0.2542  0.4917  0.2344
 6259TIP3    H140192   4.153   4.466   2.746  1.6723 -0.7996  2.0559
 6259TIP3    H240193   4.259   4.431   2.643 -0.0809  0.7390 -0.3241
 6260TIP3   OH240194   3.222   0.284   6.347  0.2879  0.4472  0.2722
 6260TIP3    H140195   3.131   0.277   6.376  0.1906 -2.4259 -0.5922
 6260TIP3    H240196   3.239   0.378   6.347 -2.8366  1.0911 -0.0120
 6261TIP3   OH240197   1.113   0.352   1.860  0.6630  0.1146  0.4311
 6261TIP3    H140198   1.130   0.390   1.946 -0.8199  1.9499 -0.0525
 6261TIP3    H240199   1.044   0.406   1.823 -1.8605 -3.3431 -0.1545
 6262TIP3   OH240200   2.341   4.205   0.123 -0.2285  0.0580  0.1503
 6262TIP3    H140201   2.417   4.203   0.065 -1.2802 -0.2977 -1.2361
 6262TIP3    H240202   2.376   4.235   0.207  1.7858 -1.9153  0.0614
 6263TIP3   OH240203   4.513   1.307   5.248 -0.5050 -0.3263 -0.5336
 6263TIP3    H140204   4.562   1.246   5.193 -0.0813  0.1124 -0.6414
 6263TIP3    H240205   4.574   1.378   5.266 -1.6351  1.0897 -2.0885
 6264TIP3   OH240206   2.344   1.992  16.434 -0.1570 -0.5078  0.2540
 6264TIP3    H140207   2.437   1.999  16.457  0.3622 -2.1287 -1.2318
 6264TIP3    H240208   2.301   1.968  16.516  0.9406 -1.0904  0.6688
 6265TIP3   OH240209   5.577   3.285  14.866 -0.1041  0.3788 -0.0863
 6265TIP3    H140210   5.516   3.212  14.874  0.7964 -0.4600 -0.6385
 6265TIP3    H240211   5.626   3.266  14.786  1.6398  0.4217  0.9381
 6266TIP3   OH240212   3.383   4.663   2.971 -0.0593  0.0548  0.0389
 6266TIP3    H140213   3.341   4.577   2.965 -0.5000  0.2355  0.4309
 6266TIP3    H240214   3.465   4.647   3.017 -0.0377 -0.1941 -0.0880
 6267TIP3   OH240215   3.990   2.656   3.363 -0.0327  0.0364 -0.0361
 6267TIP3    H140216   3.913   2.617   3.322  0.4852 -0.9846 -0.0338
 6267TIP3    H240217   4.061   2.593   3.348  0.3910  0.1221  1.5380
 6268TIP3   OH240218   0.920   6.270  12.249 -0.1749 -0.1362 -0.0277
 6268TIP3    H140219   0.956   6.182  12.254  0.3633  0.1382  1.3833
 6268TIP3    H240220   0.851   6.265  12.183  0.6713 -1.3129 -0.8439
 6269TIP3   OH240221   0.879   5.909   5.334  0.0316 -0.5636 -0.1207
 6269TIP3    H140222   0.891   5.881   5.243 -0.3545  1.6005 -0.8605
 6269TIP3    H240223   0.820   5.844   5.371 -0.7195 -0.8364 -1.7626
 6270TIP3   OH240224   5.230   1.915  16.635  0.2773  0.5263 -0.3437
 6270TIP3    H140225   5.312   1.881  16.600  1.1751  0.6212  1.6219
 6270TIP3    H240226   5.255   1.988  16.690 -1.1789  0.9018 -0.1510
 6271TIP3   OH240227   2.814   0.657  12.563  0.1333  0.1926  0.3680
 6271TIP3    H140228   2.880   0.642  12.631  0.8186 -0.2672 -0.3922
 6271TIP3    H240229   2.768   0.574  12.554 -0.4451  0.4688  0.7889
 6272TIP3   OH240230   0.003   4.778  11.485  0.1781 -0.6262  0.4173
 6272TIP3    H140231  -0.014   4.872  11.493  2.4654 -0.1669  0.0939
 6272TIP3    H240232   0.003   4.762  11.390  2.2294 -0.4788  0.3880
 6273TIP3   OH240233   4.803   3.402   1.242  0.4897  0.1735 -0.0734
 6273TIP3    H140234   4.747   3.369   1.171 -0.1343 -1.1000  0.9798
 6273TIP3    H240235   4.764   3.486   1.266 -0.1857 -0.0823 -0.2521
 6274TIP3   OH240236   3.622   0.108   1.272  0.3895  0.3125 -0.8789
 6274TIP3    H140237   3.537   0.099   1.230 -0.9674  1.1287  1.5735
 6274TIP3    H240238   3.641   0.022   1.308 -0.6493  0.7678  0.8024
 6275TIP3   OH240239   6.258   1.833  16.322 -0.0489 -0.7872  0.6016
 6275TIP3    H140240   6.322   1.898  16.351 -0.8407 -0.2861  1.2098
 6275TIP3    H240241   6.228   1.791  16.402 -2.8661  1.1849  0.6224
 6276TIP3   OH240242   0.377   6.696  11.909  0.1702  0.3403  0.4772
 6276TIP3    H140243   0.335   6.610  11.902  0.4692  0.0672  1.8969
 6276TIP3    H240244   0.309   6.758  11.885  0.0673 -0.3180 -0.9423
 6277TIP3   OH240245   2.464   6.778   0.670  0.3302 -0.2566 -0.0909
 6277TIP3    H140246   2.417   6.699   0.699 -1.5826  0.3852 -1.3528
 6277TIP3    H240247   2.554   6.763   0.698 -0.0580 -2.7562 -0.0191
 6278TIP3   OH240248   2.509   5.755  11.244  0.3846 -0.3535 -0.3019
 6278TIP3    H140249   2.517   5.768  11.149 -0.9482  0.4148 -0.3206
 6278TIP3    H240250   2.585   5.701  11.267  1.1482  0.1015 -1.6774
 6279TIP3   OH240251   1.589   4.950   0.900 -0.0029  0.2851 -0.0027
 6279TIP3    H140252   1.517   4.962   0.839 -1.7353 -1.1502  1.6946
 6279TIP3    H240253   1.548   4.950   0.986  1.7664 -2.2532  0.8970
 6280TIP3   OH240254   5.009   6.669  11.142 -0.4658 -0.4085  0.1519
 6280TIP3    H140255   4.968   6.616  11.074  1.1315 -1.7693  0.1973
 6280TIP3    H240256   4.937   6.717  11.183 -1.5059  0.1313 -2.2133
 6281TIP3   OH240257   1.509   3.289  10.280  0.1188 -0.0549 -0.5780
 6281TIP3    H140258   1.418   3.310  10.261 -0.0910  0.3317  0.8210
 6281TIP3    H240259   1.511   3.193  10.287 -0.2588 -0.0380 -0.2180
 6282TIP3   OH240260   3.853   6.524   3.499  0.0564 -0.0527 -0.4337
 6282TIP3    H140261   3.807   6.580   3.563  0.1914 -0.4736  0.0339
 6282TIP3    H240262   3.935   6.502   3.542  0.6686  0.6336 -1.2416
 6283TIP3   OH240263   5.385   6.128  16.486  0.3563 -0.5213  0.7386
 6283TIP3    H140264   5.404   6.055  16.544  0.8954 -1.3410 -0.4436
 6283TIP3    H240265   5.398   6.093  16.398 -0.8531  0.5764  0.1019
 6284TIP3   OH240266   2.708   5.066  14.530 -0.0578  0.0821  0.0820
 6284TIP3    H140267   2.734   5.151  14.493  0.4421 -0.9798 -2.1084
 6284TIP3    H240268   2.791   5.022  14.547 -0.3390 -0.6172 -0.3710
 6285TIP3   OH240269   1.884   4.878   3.963 -0.5285  0.1898 -0.3855
 6285TIP3    H140270   1.873   4.783   3.969 -1.3426  0.1040 -2.6408
 6285TIP3    H240271   1.795   4.912   3.959 -0.2220  0.8855 -1.5479
 6286TIP3   OH240272   2.083   5.263   0.290 -0.0320 -0.3781 -0.3981
 6286TIP3    H140273   2.102   5.273   0.383 -0.0573  1.1764 -0.5427
 6286TIP3    H240274   1.988   5.253   0.286  0.1631 -2.5956 -0.1083
 6287TIP3   OH240275   1.245   4.731  14.938 -0.1568  0.1942  0.1136
 6287TIP3    H140276   1.264   4.638  14.947  0.5993  0.4878  1.8624
 6287TIP3    H240277   1.172   4.747  14.998 -0.3363  0.7119 -0.2372
 6288TIP3   OH240278   5.749   1.191  13.908 -0.0067 -0.0259  0.0717
 6288TIP3    H140279   5.813   1.184  13.837 -0.0754  0.0986 -0.0027
 6288TIP3    H240280   5.672   1.143  13.875  0.7928 -2.0282  1.0094
 6289TIP3   OH240281   4.299   3.590  11.106  0.6426 -0.2414  0.5139
 6289TIP3    H140282   4.320   3.674  11.066 -2.0575  0.4317  0.4261
 6289TIP3    H240283   4.254   3.613  11.187 -0.9118 -1.6058  0.0439
 6290TIP3   OH240284   6.406   0.873  13.867 -0.1033 -0.6048  0.4351
 6290TIP3    H140285   6.379   0.935  13.800 -0.4970 -0.7140  0.4923
 6290TIP3    H240286   6.404   0.788  13.824 -2.0004 -0.8980  1.0325
 6291TIP3   OH240287   5.341   1.010   0.863  0.0888  0.6353  0.2401
 6291TIP3    H140288   5.379   0.922   0.855  0.3332  0.8175 -0.5969
 6291TIP3    H240289   5.248   0.997   0.846 -0.2113  0.2329  2.0256
 6292TIP3   OH240290   0.771   2.498   1.466 -0.4504  0.2341  0.3321
 6292TIP3    H140291   0.729   2.558   1.404 -1.5461 -0.8929 -0.0360
 6292TIP3    H240292   0.863   2.523   1.464 -0.4924  0.2887 -1.6742
 6293TIP3   OH240293   4.439   3.312  11.297  0.2688  0.5721 -0.7140
 6293TIP3    H140294   4.365   3.331  11.355  2.0657  1.8116  1.2573
 6293TIP3    H240295   4.420   3.362  11.217 -0.7838  1.2499 -0.0513
 6294TIP3   OH240296   2.748   6.080   1.515  0.0058  0.3961  0.1470
 6294TIP3    H140297   2.819   6.136   1.549 -0.2697  0.5542  0.4656
 6294TIP3    H240298   2.793   6.011   1.468  0.4151 -0.0303  1.1393
 6295TIP3   OH240299   5.328   6.008   2.372 -0.0426 -0.3454  0.8121
 6295TIP3    H140300   5.320   6.078   2.307  1.7298 -2.0358 -1.2861
 6295TIP3    H240301   5.271   6.036   2.444 -0.9574  2.2457 -0.8413
 6296TIP3   OH240302   6.650   2.700   2.417 -0.3353 -0.1832 -0.5009
 6296TIP3    H140303   6.601   2.665   2.343  2.2111 -1.3225 -1.7085
 6296TIP3    H240304   6.725   2.746   2.377  1.0327 -0.7365  1.3345
 6297TIP3   OH240305   4.132   1.377  16.004 -0.2095 -0.4344  0.5965
 6297TIP3    H140306   4.125   1.285  15.979 -1.0148 -0.8574  2.2719
 6297TIP3    H240307   4.198   1.377  16.074 -0.8016  0.1434  1.1581
 6298TIP3   OH240308   0.391   0.852  15.495  0.3900  0.4474 -0.3587
 6298TIP3    H140309   0.418   0.871  15.406 -1.4129  1.3519 -0.7233
 6298TIP3    H240310   0.299   0.824  15.488  0.1089  0.8977  1.2407
 6299TIP3   OH240311   1.138   0.606  15.342 -0.7544 -0.7829  0.2787
 6299TIP3    H140312   1.097   0.599  15.429 -0.4311 -0.7728  0.4332
 6299TIP3    H240313   1.209   0.668  15.355 -0.3805 -1.1785  0.1257
 6300TIP3   OH240314   3.016   1.061  11.759  0.1026 -0.3600 -0.4164
 6300TIP3    H140315   3.028   0.966  11.765  3.2208  0.0296  0.4539
 6300TIP3    H240316   3.037   1.093  11.847  1.1024  1.3116 -1.2404
 6301TIP3   OH240317   5.053   4.514   1.175 -0.0313  0.2800 -0.4557
 6301TIP3    H140318   5.118   4.465   1.124 -0.9232 -1.5742  0.1394
 6301TIP3    H240319   5.100   4.590   1.209  1.7269 -0.8627 -0.3118
 6302TIP3   OH240320   4.122   5.959  12.487 -0.4494  0.1127  0.5950
 6302TIP3    H140321   4.036   5.983  12.451  0.0198 -0.8583 -1.2193
 6302TIP3    H240322   4.174   6.039  12.479 -0.2606 -0.1727 -1.1829
 6303TIP3   OH240323   3.777   0.891   4.509 -0.6649 -0.0732 -0.1939
 6303TIP3    H140324   3.776   0.896   4.413 -0.0805 -0.8025 -0.2393
 6303TIP3    H240325   3.820   0.808   4.528 -1.0175 -0.0558  0.7015
 6304TIP3   OH240326   5.172   3.910  15.767  0.2251  0.1124  0.0186
 6304TIP3    H140327   5.088   3.950  15.746 -0.5926  0.3464  3.4852
 6304TIP3    H240328   5.164   3.819  15.737 -1.8516 -0.2644  1.5818
 6305TIP3   OH240329   0.690   4.144   3.957  0.5732  0.5505  0.2689
 6305TIP3    H140330   0.784   4.139   3.977  0.7310 -0.8976 -0.7948
 6305TIP3    H240331   0.684   4.122   3.864 -0.6065  2.9351 -0.2632
 6306TIP3   OH240332   4.353   5.484   4.934 -0.6467  0.1259  0.0002
 6306TIP3    H140333   4.384   5.421   5.000 -0.3499  1.4884  1.1861
 6306TIP3    H240334   4.391   5.453   4.852  0.8508 -0.3323  0.8370
 6307TIP3   OH240335   0.342   6.627  14.817 -0.1714 -0.1301  0.3657
 6307TIP3    H140336   0.338   6.643  14.722  0.0737  0.9289  0.5285
 6307TIP3    H240337   0.383   6.706  14.852  0.6933 -0.9669  1.2408
 6308TIP3   OH240338   1.471   1.211  11.913 -0.0427 -0.1793  0.1040
 6308TIP3    H140339   1.406   1.159  11.865 -0.5708  1.5016 -1.0535
 6308TIP3    H240340   1.547   1.154  11.919 -1.0077 -1.5267 -0.0702
 6309TIP3   OH240341   2.106   2.536  14.808 -0.3179  0.6573  0.0631
 6309TIP3    H140342   2.192   2.576  14.814 -0.1333  0.1725  0.8305
 6309TIP3    H240343   2.062   2.563  14.889 -0.6178  0.3091  0.0189
 6310TIP3   OH240344   0.258   5.768   2.706 -0.3266 -0.2214  0.3053
 6310TIP3    H140345   0.262   5.728   2.619  1.8250 -0.2185  0.3731
 6310TIP3    H240346   0.241   5.695   2.765  0.1832 -0.5205  0.0821
 6311TIP3   OH240347   0.716   2.274   2.612 -0.2905  0.2875  0.0124
 6311TIP3    H140348   0.675   2.337   2.671 -0.2676  0.0391  0.2951
 6311TIP3    H240349   0.679   2.294   2.525  0.2082  1.1138 -0.0145
 6312TIP3   OH240350   5.404   5.680   3.294 -0.4365  0.6269  0.0260
 6312TIP3    H140351   5.347   5.680   3.217 -0.0375  0.4320 -0.2682
 6312TIP3    H240352   5.400   5.590   3.326 -1.1488  0.8743  0.6379
 6313TIP3   OH240353   2.039   0.942   5.456  0.2334 -0.5321  0.1106
 6313TIP3    H140354   2.031   1.000   5.381  0.3739 -1.1991 -0.4206
 6313TIP3    H240355   1.994   0.862   5.430  1.6762 -1.3652  0.1247
 6314TIP3   OH240356   5.578   2.691   0.023  0.0696  0.2875  0.1240
 6314TIP3    H140357   5.625   2.709  -0.059 -0.3817  0.6089 -0.0683
 6314TIP3    H240358   5.641   2.643   0.076 -0.2697 -1.6073 -1.1390
 6315TIP3   OH240359   4.670   6.704  13.337  0.3470 -0.6394 -0.1647
 6315TIP3    H140360   4.701   6.687  13.248  0.0389  0.1977 -0.4280
 6315TIP3    H240361   4.581   6.668  13.339  0.7145 -1.5619  0.1114
 6316TIP3   OH240362   3.868   5.678  13.848  0.4045  0.0130 -0.0377
 6316TIP3    H140363   3.855   5.727  13.766 -1.7325 -0.3074  0.0612
 6316TIP3    H240364   3.883   5.588  13.820 -1.3425 -0.2859 -0.0799
 6317TIP3   OH240365   3.220   5.362  13.150  0.0238 -0.0860 -0.2506
 6317TIP3    H140366   3.132   5.365  13.112  0.8876 -0.8074 -2.3770
 6317TIP3    H240367   3.277   5.393  13.080  1.5764 -0.5166  0.8105
 6318TIP3   OH240368   4.560   6.194   3.563  0.4755  0.3573 -0.1996
 6318TIP3    H140369   4.547   6.285   3.589 -2.4216  0.0106 -0.2136
 6318TIP3    H240370   4.540   6.192   3.469 -0.7311 -0.4757  0.0499
 6319TIP3   OH240371   4.553   3.176   4.499  0.0083 -0.0612  0.4132
 6319TIP3    H140372   4.590   3.264   4.497 -0.7068  0.2257 -0.6715
 6319TIP3    H240373   4.462   3.189   4.528 -0.1481 -0.4279  0.0854
 6320TIP3   OH240374   2.023   0.637  11.346  0.0096  0.5029 -0.0971
 6320TIP3    H140375   1.940   0.647  11.393  0.0949 -1.4145  0.4925
 6320TIP3    H240376   1.999   0.598  11.263  0.3264 -0.0786  0.0847
 6321TIP3   OH240377   1.241   6.049   5.454 -0.0940  0.4722 -0.1983
 6321TIP3    H140378   1.333   6.027   5.437 -0.5594 -0.7211 -1.2645
 6321TIP3    H240379   1.241   6.144   5.466  0.8273  0.9866 -3.5597
 6322TIP3   OH240380   0.307   2.147   5.763 -0.3025  0.0349 -0.2924
 6322TIP3    H140381   0.347   2.181   5.683 -1.4486  0.1041 -0.8435
 6322TIP3    H240382   0.276   2.060   5.739  2.0908 -1.2278  0.9468
 6323TIP3   OH240383   3.726   6.628   3.967  0.3085  0.7626  0.4338
 6323TIP3    H140384   3.729   6.550   3.912  0.4613 -0.1988  1.7662
 6323TIP3    H240385   3.733   6.594   4.057  1.1798  2.3643  0.9967
 6324TIP3   OH240386   4.696   2.059  14.824 -0.1033  0.3242  0.0768
 6324TIP3    H140387   4.656   2.015  14.749 -0.5633  0.1063  0.4460
 6324TIP3    H240388   4.624   2.074  14.885  0.0149  1.7965 -0.1423
 6325TIP3   OH240389   4.784   4.033  11.055 -0.2568 -0.6925 -0.3320
 6325TIP3    H140390   4.759   3.942  11.076 -1.7126 -0.0491  0.8751
 6325TIP3    H240391   4.836   4.061  11.130  0.5814 -0.6789 -0.9201
 6326TIP3   OH240392   2.630   0.121   4.166  0.4555  0.0404 -0.0337
 6326TIP3    H140393   2.632   0.063   4.089  1.7215 -0.7380  0.5653
 6326TIP3    H240394   2.716   0.108   4.207 -0.7573 -0.6695  2.3511
 6327TIP3   OH240395   5.594   2.867  13.354  0.0547  0.2956  0.0465
 6327TIP3    H140396   5.558   2.791  13.399  0.9502 -1.0924 -1.5169
 6327TIP3    H240397   5.518   2.917  13.324 -0.5833 -1.5467 -1.4743
 6328TIP3   OH240398   1.611   2.611   4.931 -0.6727 -0.6850 -0.2309
 6328TIP3    H140399   1.631   2.611   4.837 -1.3806 -0.0302 -0.3911
 6328TIP3    H240400   1.517   2.632   4.935 -0.3059  0.8805  0.6870
 6329TIP3   OH240401   3.107   5.829  13.902 -0.0160 -0.2981 -0.4107
 6329TIP3    H140402   3.121   5.842  13.808  0.5036  1.4150 -0.1211
 6329TIP3    H240403   3.194   5.813  13.937 -0.0167  0.4687 -0.0339
 6330TIP3   OH240404   4.652   4.768   4.799  0.5008 -0.0623  0.3227
 6330TIP3    H140405   4.683   4.710   4.729  2.0336  0.1540  0.8100
 6330TIP3    H240406   4.576   4.812   4.761  0.4256 -1.0365 -0.6939
 6331TIP3   OH240407   5.260   4.758   4.208  0.1114  0.0822  0.2960
 6331TIP3    H140408   5.312   4.837   4.194 -0.6765  0.4767 -0.5259
 6331TIP3    H240409   5.194   4.761   4.138 -0.1641 -1.1026  0.4961
 6332TIP3   OH240410   6.064   0.192   3.067  0.5384 -0.0262  0.5408
 6332TIP3    H140411   6.082   0.101   3.091  0.8265 -0.0301  0.3156
 6332TIP3    H240412   6.089   0.197   2.975 -0.0713  0.1189  0.3765
 6333TIP3   OH240413   0.389   6.480  16.210 -0.5949 -0.3197 -0.6338
 6333TIP3    H140414   0.414   6.572  16.220 -0.8109 -0.3704  0.3765
 6333TIP3    H240415   0.452   6.431  16.263 -2.1091 -0.5346  1.0091
 6334TIP3   OH240416   5.650   4.763   2.714  0.0947  0.1177 -0.0074
 6334TIP3    H140417   5.726   4.772   2.773  1.9248 -1.7412 -1.9990
 6334TIP3    H240418   5.688   4.748   2.628 -2.5757  0.4609 -1.2982
 6335TIP3   OH240419   2.038   3.556  14.863  0.4265  0.5046 -0.6706
 6335TIP3    H140420   1.947   3.542  14.837 -0.7584  1.6404  2.6160
 6335TIP3    H240421   2.074   3.468  14.872  0.3243  0.0704 -4.0529
 6336TIP3   OH240422   0.353   3.655   2.471  0.0450 -0.3716  0.1933
 6336TIP3    H140423   0.311   3.594   2.532 -1.0320  0.6005  0.4247
 6336TIP3    H240424   0.443   3.663   2.504  0.1633 -1.7255  0.2322
 6337TIP3   OH240425   0.842   3.265  15.357 -0.9862  0.5475  0.2132
 6337TIP3    H140426   0.816   3.173  15.368 -0.3178  0.3749  0.4422
 6337TIP3    H240427   0.893   3.266  15.276  0.3076  0.4117  1.0043
 6338TIP3   OH240428   5.111   0.811  17.030  0.5149 -0.2421  0.1718
 6338TIP3    H140429   5.173   0.741  17.052  1.3879  0.5913  0.4181
 6338TIP3    H240430   5.051   0.815  17.104  0.8573 -0.2912  0.4522
 6339TIP3   OH240431   1.387   0.139  15.556 -0.0679  0.3253 -0.4304
 6339TIP3    H140432   1.410   0.151  15.648  0.5408  1.0182 -0.6646
 6339TIP3    H240433   1.292   0.150  15.553 -0.0358  0.7309  0.0415
 6340TIP3   OH240434   1.669   4.916  14.211 -0.0354 -0.0341 -0.0377
 6340TIP3    H140435   1.627   4.928  14.297 -0.6438  0.0913 -0.3522
 6340TIP3    H240436   1.763   4.924  14.229  0.0113 -2.5757  1.0634
 6341TIP3   OH240437   2.808   0.542  17.123 -0.1844  0.1089  0.2916
 6341TIP3    H140438   2.748   0.468  17.113 -1.2514  0.8416  1.1354
 6341TIP3    H240439   2.890   0.511  17.085 -0.5731 -1.5622  0.7483
 6342TIP3   OH240440   5.446   0.992   0.536  0.3813 -0.7139 -0.0040
 6342TIP3    H140441   5.396   0.921   0.497  0.0735 -0.5777  0.1338
 6342TIP3    H240442   5.384   1.065   0.539 -0.1141 -1.1806  2.1953
 6343TIP3   OH240443   5.673   5.244   0.654 -0.2863  0.1236 -0.0721
 6343TIP3    H140444   5.582   5.246   0.684 -0.1997  0.4641  0.1755
 6343TIP3    H240445   5.684   5.327   0.607 -0.4923 -0.5100 -1.2691
 6344TIP3   OH240446   3.177   0.037  12.124  0.4955  0.0094 -0.0464
 6344TIP3    H140447   3.190   0.123  12.165 -0.2244  0.1655 -0.1499
 6344TIP3    H240448   3.211   0.048  12.035 -0.6991  0.5389 -0.4461
 6345TIP3   OH240449   1.030   3.426   0.971 -0.0749  0.2077 -0.2723
 6345TIP3    H140450   1.048   3.505   0.919  0.5553  0.1456 -0.1526
 6345TIP3    H240451   1.112   3.377   0.968 -0.9944 -1.2932 -1.8200
 6346TIP3   OH240452   4.318   0.668   1.548 -0.2874 -0.3104 -0.0737
 6346TIP3    H140453   4.257   0.599   1.524 -0.6387 -0.0230 -0.0207
 6346TIP3    H240454   4.397   0.622   1.577 -0.9123 -0.7163  1.0491
 6347TIP3   OH240455   0.297   3.851   5.493  0.5725  0.7335 -0.1298
 6347TIP3    H140456   0.356   3.925   5.501  0.8851  0.4726 -0.0170
 6347TIP3    H240457   0.296   3.811   5.580  2.5374 -1.0252 -0.8849
 6348TIP3   OH240458   3.562   1.325  15.919  0.1574  0.1679 -0.1116
 6348TIP3    H140459   3.622   1.315  15.845 -0.0994  0.3852 -0.3512
 6348TIP3    H240460   3.601   1.273  15.989 -1.0482 -2.3555 -1.2457
 6349TIP3   OH240461   4.941   6.092   4.296  0.0499 -0.0529  0.6852
 6349TIP3    H140462   5.015   6.143   4.265 -0.8771 -0.3215 -2.1987
 6349TIP3    H240463   4.962   6.001   4.272 -1.1924 -0.1211 -0.2417
 6350TIP3   OH240464   4.847   2.892   3.415 -0.8801 -0.2298  0.4411
 6350TIP3    H140465   4.786   2.825   3.448  0.8256 -2.0040  0.0798
 6350TIP3    H240466   4.930   2.845   3.403  0.0152  1.6667 -1.0397
 6351TIP3   OH240467   4.355   0.970  14.652 -0.3262  1.0575  0.1040
 6351TIP3    H140468   4.320   1.054  14.680 -0.5729  0.2425  2.3657
 6351TIP3    H240469   4.287   0.907  14.675 -0.1807  0.2220 -1.6436
 6352TIP3   OH240470   5.774   1.720  16.220 -0.4187  0.6625 -0.1029
 6352TIP3    H140471   5.760   1.781  16.293  2.5480 -0.0991  1.1819
 6352TIP3    H240472   5.817   1.772  16.153  0.7700  0.3785  0.4184
 6353TIP3   OH240473   3.268   1.384   5.453  0.4472  0.3302 -0.1168
 6353TIP3    H140474   3.343   1.362   5.509  1.4502  2.0706 -0.7177
 6353TIP3    H240475   3.270   1.319   5.384  1.4384  0.3772 -0.1399
 6354TIP3   OH240476   4.875   2.759  11.532 -0.0315  0.2405  0.9142
 6354TIP3    H140477   4.782   2.779  11.521 -0.0107  0.2691  0.7864
 6354TIP3    H240478   4.913   2.842  11.560 -0.1464  0.0735  1.5569
 6355TIP3   OH240479   0.344   0.323  11.803 -0.1558 -0.0727 -0.1992
 6355TIP3    H140480   0.435   0.294  11.807 -0.4191 -0.8308  0.6925
 6355TIP3    H240481   0.322   0.344  11.894 -1.3503 -1.4270 -0.1638
 6356TIP3   OH240482   1.095   6.150   5.974 -0.1521  0.8296 -0.5595
 6356TIP3    H140483   1.110   6.239   5.945  0.9604  0.4490 -1.1728
 6356TIP3    H240484   1.083   6.157   6.069 -0.3948  1.6574 -0.6497
 6357TIP3   OH240485   1.159   5.623  16.304 -0.2155 -0.3920  0.0516
 6357TIP3    H140486   1.137   5.681  16.231 -1.0257 -1.9722 -1.0077
 6357TIP3    H240487   1.117   5.662  16.380  2.2246  2.3084  0.0540
 6358TIP3   OH240488   4.066   2.626   1.310  0.2381  0.0832 -0.1106
 6358TIP3    H140489   3.983   2.580   1.298 -0.5542  1.2104  0.9012
 6358TIP3    H240490   4.127   2.559   1.341 -0.4519 -0.6274 -0.2797
 6359TIP3   OH240491   0.006   5.322   1.624 -0.1417 -0.5532  0.0331
 6359TIP3    H140492   0.012   5.283   1.537 -2.3465 -0.7180 -0.0816
 6359TIP3    H240493   0.084   5.376   1.632 -0.1660 -0.1393 -2.2603
 6360TIP3   OH240494   1.865   1.574  13.963 -0.2303 -0.2568  0.4623
 6360TIP3    H140495   1.839   1.511  14.030 -0.8131  1.0105  1.4381
 6360TIP3    H240496   1.933   1.627  14.005  0.0099 -0.0031 -0.2408
 6361TIP3   OH240497   1.933   3.361  11.426 -0.4066 -0.3877  0.0553
 6361TIP3    H140498   1.954   3.276  11.466  1.7627  0.0420 -0.1060
 6361TIP3    H240499   1.873   3.403  11.488  1.3028 -0.5648  1.8730
 6362TIP3   OH240500   3.374   5.779  15.625 -0.7022 -0.2730 -0.5047
 6362TIP3    H140501   3.300   5.741  15.577 -1.3584 -1.2190  1.1974
 6362TIP3    H240502   3.444   5.788  15.560 -0.6782 -4.0128 -1.0815
 6363TIP3   OH240503   1.975   1.990  13.478  0.3705 -0.3726 -0.1434
 6363TIP3    H140504   1.927   2.015  13.557  1.3061  0.4112  0.1990
 6363TIP3    H240505   2.023   1.911  13.503  0.2844 -0.4032 -0.0756
 6364TIP3   OH240506   0.823   5.450  14.614  0.5371 -0.2600 -0.2471
 6364TIP3    H140507   0.825   5.355  14.601  0.3017 -0.3762  0.5238
 6364TIP3    H240508   0.805   5.486  14.527 -1.7841 -1.0400 -0.1186
 6365TIP3   OH240509   0.777   5.913  11.768  0.4294  0.2927 -0.0155
 6365TIP3    H140510   0.728   5.995  11.766  0.6707  0.4381 -3.2059
 6365TIP3    H240511   0.746   5.865  11.692  0.7554 -2.3394  1.4645
 6366TIP3   OH240512   5.878   0.087   1.833  0.0433  0.5921 -0.6593
 6366TIP3    H140513   5.837   0.059   1.915 -0.0075 -0.2689 -0.9722
 6366TIP3    H240514   5.820   0.155   1.799 -0.6260  0.0517 -0.6221
 6367TIP3   OH240515   6.051   5.796   3.682 -0.4949  0.4922  0.3698
 6367TIP3    H140516   5.976   5.851   3.705 -0.5073  1.2914 -1.4850
 6367TIP3    H240517   6.124   5.834   3.730 -1.0077  0.5534  1.1112
 6368TIP3   OH240518   5.626   2.861   3.526  0.5620  0.4748  0.0063
 6368TIP3    H140519   5.547   2.912   3.541  0.5922  0.3111  0.7646
 6368TIP3    H240520   5.607   2.809   3.448 -0.7848 -0.9293  1.2093
 6369TIP3   OH240521   1.549   4.285   5.739  0.3892 -0.2916  0.7063
 6369TIP3    H140522   1.583   4.226   5.672  1.0574  0.4113  0.4183
 6369TIP3    H240523   1.625   4.337   5.766 -0.5190  1.5867 -0.2363
 6370TIP3   OH240524   1.305   2.353  13.311 -0.0394  0.2048 -0.0722
 6370TIP3    H140525   1.239   2.415  13.278 -0.0111  0.7593  0.8659
 6370TIP3    H240526   1.384   2.373  13.261 -0.1563  0.6228 -0.0958
 6371TIP3   OH240527   5.865   4.017   4.111 -0.5066  0.1680  0.0385
 6371TIP3    H140528   5.852   4.081   4.181  3.0248  3.3272 -1.9526
 6371TIP3    H240529   5.789   4.028   4.054  0.3735  3.2611 -0.6644
 6372TIP3   OH240530   4.193   0.046   2.105  0.0236  0.1486  0.2597
 6372TIP3    H140531   4.239   0.069   2.186 -0.0776 -0.7361  0.5710
 6372TIP3    H240532   4.107   0.087   2.114 -0.2407 -0.5376  0.9206
 6373TIP3   OH240533   5.417   3.272   4.653  0.4511  0.2477 -0.2316
 6373TIP3    H140534   5.498   3.266   4.704  0.6383 -0.6032 -0.6239
 6373TIP3    H240535   5.387   3.182   4.644 -1.5086  0.6932  1.4187
 6374TIP3   OH240536   3.891   4.061  16.993 -0.5253 -0.1201 -0.9199
 6374TIP3    H140537   3.798   4.041  16.995 -0.6714  0.6185  0.2707
 6374TIP3    H240538   3.920   4.050  17.083  0.7270 -1.1440 -1.4322
 6375TIP3   OH240539   6.025   2.133   1.017 -0.1798 -0.2225 -0.2942
 6375TIP3    H140540   5.934   2.135   1.046  0.2158  1.2559  0.9127
 6375TIP3    H240541   6.020   2.130   0.922 -1.4826 -0.2154 -0.2391
 6376TIP3   OH240542   0.544   4.266  16.468 -0.0613  0.4804  0.0581
 6376TIP3    H140543   0.544   4.360  16.488  1.3949  0.1638  1.6944
 6376TIP3    H240544   0.593   4.259  16.386 -1.5137  1.2712 -0.9148
 6377TIP3   OH240545   1.124   0.301  11.959  0.0375 -0.2509 -0.0224
 6377TIP3    H140546   1.118   0.376  11.900 -1.1117  0.2345  0.7090
 6377TIP3    H240547   1.209   0.262  11.939  0.6403  1.2363 -0.4135
 6378TIP3   OH240548   5.380   0.408   5.371  0.1238 -0.2812  0.0300
 6378TIP3    H140549   5.371   0.358   5.289 -2.6829  3.1320 -1.9059
 6378TIP3    H240550   5.411   0.494   5.343  1.7868  0.1026  2.9056
 6379TIP3   OH240551   1.392   0.486  11.974 -0.6561  0.0920  0.2463
 6379TIP3    H140552   1.464   0.457  11.918 -0.6783  0.7376 -0.1197
 6379TIP3    H240553   1.373   0.411  12.030  1.2176  0.3402  1.2884
 6380TIP3   OH240554   2.411   5.568   3.427 -0.1782  0.3155  0.0029
 6380TIP3    H140555   2.478   5.578   3.359 -1.0281  1.6917 -0.6696
 6380TIP3    H240556   2.460   5.550   3.507  0.8122 -1.8697 -1.0555
 6381TIP3   OH240557   2.883   2.154  12.306  0.4803 -0.0488  0.1105
 6381TIP3    H140558   2.892   2.101  12.227  1.6394  1.0428 -0.5029
 6381TIP3    H240559   2.799   2.127  12.343  0.0867 -0.8189 -1.2984
 6382TIP3   OH240560   1.375   1.903  13.755 -0.1661 -0.5429 -0.1968
 6382TIP3    H140561   1.416   1.924  13.671  0.2699 -2.5825 -0.5267
 6382TIP3    H240562   1.448   1.877  13.811 -0.6233 -0.6604  0.3438
 6383TIP3   OH240563   3.401   0.027   2.668  0.3620  0.2923  0.3265
 6383TIP3    H140564   3.397  -0.069   2.663  1.5170  0.4059 -4.0430
 6383TIP3    H240565   3.494   0.047   2.672  0.3088  1.3092 -2.5428
 6384TIP3   OH240566   5.896   5.789  14.402 -0.3014  0.3971 -0.2163
 6384TIP3    H140567   5.827   5.855  14.405 -0.0559  0.5963  1.4694
 6384TIP3    H240568   5.852   5.708  14.430 -0.3930  0.0140 -1.4211
 6385TIP3   OH240569   4.595   2.264  12.895 -0.6064  0.5170  0.5849
 6385TIP3    H140570   4.662   2.332  12.897 -0.7010  0.6044  0.7956
 6385TIP3    H240571   4.638   2.187  12.933  0.3403 -0.3177 -2.0195
 6386TIP3   OH240572   6.753   6.019  16.697 -0.1000 -0.0644  0.1365
 6386TIP3    H140573   6.713   6.011  16.611 -0.0248 -0.0987  0.1047
 6386TIP3    H240574   6.794   6.106  16.697  0.6443 -0.4102 -0.1810
 6387TIP3   OH240575   0.262   2.339   4.924 -0.1167  0.0969  0.4063
 6387TIP3    H140576   0.181   2.291   4.904 -1.2228  1.7940  0.6451
 6387TIP3    H240577   0.326   2.271   4.947 -0.9775 -1.3967 -1.4587
 6388TIP3   OH240578   1.358   2.333  12.142 -0.4849 -0.1593  0.5543
 6388TIP3    H140579   1.375   2.409  12.087  1.4492 -0.7653  0.2951
 6388TIP3    H240580   1.309   2.273  12.084  1.2026 -0.6328 -0.4233
 6389TIP3   OH240581   1.318   2.151  14.390 -0.0686 -0.3934 -0.8014
 6389TIP3    H140582   1.343   2.196  14.471 -0.2087 -0.1483 -0.8948
 6389TIP3    H240583   1.331   2.217  14.322 -0.1946 -0.5215 -0.9475
 6390TIP3   OH240584   1.882   1.240  11.853  0.5779  0.3864  0.1349
 6390TIP3    H140585   1.968   1.262  11.890  0.1349  1.4382  0.5493
 6390TIP3    H240586   1.844   1.180  11.917 -0.5724  2.9343  1.9073
 6391TIP3   OH240587   1.839   1.163  11.595  0.3627  0.0057  0.3523
 6391TIP3    H140588   1.910   1.105  11.567  1.7556  2.2188 -0.9173
 6391TIP3    H240589   1.859   1.183  11.686  0.9536  0.0078  0.2273
 6392TIP3   OH240590   4.335   5.273   0.195  0.0051 -0.2298  0.2981
 6392TIP3    H140591   4.251   5.306   0.162  0.3832 -0.2625 -0.7160
 6392TIP3    H240592   4.381   5.351   0.226  0.0884 -0.0539 -0.2595
 6393TIP3   OH240593   2.072   5.248  13.185 -0.1317  0.2844  0.8285
 6393TIP3    H140594   1.999   5.276  13.130 -2.0723 -2.8023  1.6952
 6393TIP3    H240595   2.064   5.301  13.264  1.1535  2.9421 -0.7492
 6394TIP3   OH240596   1.331   1.165   3.388 -0.2691  0.4678  0.7081
 6394TIP3    H140597   1.343   1.198   3.299 -1.4264  0.2739  0.4749
 6394TIP3    H240598   1.388   1.088   3.392  0.3261  0.8813  0.3682
 6395TIP3   OH240599   4.654   2.907   0.648 -0.1756 -0.1725 -0.6829
 6395TIP3    H140600   4.719   2.875   0.710 -1.0888 -1.3417 -0.3162
 6395TIP3    H240601   4.588   2.951   0.702  0.0983  0.6662 -1.0170
 6396TIP3   OH240602   0.244   1.421  16.470 -0.2603 -0.2619 -0.0151
 6396TIP3    H140603   0.310   1.479  16.510  1.4171 -2.4996  0.5844
 6396TIP3    H240604   0.160   1.459  16.494  0.7777  0.5019  2.5336
 6397TIP3   OH240605   3.069   0.504   5.130  0.1585 -0.1041  0.0880
 6397TIP3    H140606   3.020   0.503   5.212 -0.6937 -1.5816 -0.4232
 6397TIP3    H240607   3.074   0.412   5.104  0.7154  0.3157 -1.3452
 6398TIP3   OH240608   0.651   1.097   1.945  0.2996 -0.2425  0.3572
 6398TIP3    H140609   0.666   1.004   1.927 -1.1880 -0.7934  1.8047
 6398TIP3    H240610   0.735   1.127   1.981  0.9573 -0.8787 -0.5893
 6399TIP3   OH240611   6.487   2.173   4.093 -0.6776  0.1342  0.0353
 6399TIP3    H140612   6.454   2.122   4.019  1.4370 -0.5517 -0.4737
 6399TIP3    H240613   6.474   2.264   4.067 -2.7070 -0.1164  0.1229
 6400TIP3   OH240614   1.991   0.937   3.764  0.2359 -0.1720  0.0197
 6400TIP3    H140615   1.957   0.894   3.842  0.3660 -1.8361 -0.8223
 6400TIP3    H240616   2.065   0.990   3.796  0.6542 -1.2841  0.9388
 6401TIP3   OH240617   0.409   5.869   4.688 -0.7953 -0.2135 -0.7288
 6401TIP3    H140618   0.495   5.910   4.683 -1.3875  1.1403 -0.0393
 6401TIP3    H240619   0.408   5.806   4.615  0.8622 -0.4330 -0.5710
 6402TIP3   OH240620   2.319   5.863   3.029  0.2590  0.0762  0.5425
 6402TIP3    H140621   2.359   5.854   3.116 -1.4150  1.8998  1.5510
 6402TIP3    H240622   2.387   5.903   2.975  1.0931 -0.4420  1.2114
 6403TIP3   OH240623   5.082   4.798   5.000  0.0890 -0.1679 -0.3236
 6403TIP3    H140624   5.027   4.857   4.950 -1.0506  0.7839  1.9723
 6403TIP3    H240625   5.172   4.827   4.982 -0.3622  0.7986 -0.9992
 6404TIP3   OH240626   6.386   5.761   3.273  0.2333  0.6316 -0.7497
 6404TIP3    H140627   6.356   5.727   3.358  0.2073 -0.2060 -1.0876
 6404TIP3    H240628   6.478   5.735   3.268 -0.1022 -0.4264 -1.5298
 6405TIP3   OH240629   5.568   2.722  14.279  0.1616 -0.1877 -0.4000
 6405TIP3    H140630   5.548   2.629  14.288  1.7821 -0.6920 -1.7244
 6405TIP3    H240631   5.491   2.759  14.236 -0.1860 -1.0453 -0.5287
 6406TIP3   OH240632   2.992   4.077  11.253 -0.7539 -0.1142 -0.0875
 6406TIP3    H140633   2.913   4.039  11.214  0.1920 -0.3424 -1.8523
 6406TIP3    H240634   2.979   4.172  11.246 -0.1799 -0.1409 -1.9170
 6407TIP3   OH240635   6.614   4.176  16.229  0.0904 -0.2527 -0.5078
 6407TIP3    H140636   6.663   4.258  16.225  0.5251 -0.5100 -0.4974
 6407TIP3    H240637   6.530   4.200  16.268  0.2300  0.1779 -0.4677
 6408TIP3   OH240638   6.028   3.608  13.097  0.3305  0.1598 -0.4164
 6408TIP3    H140639   5.967   3.666  13.142 -0.2523 -1.9266  1.5924
 6408TIP3    H240640   6.112   3.652  13.102  0.1437  0.3245  2.1663
 6409TIP3   OH240641   1.081   0.223   0.842 -0.2949 -0.1985 -0.4210
 6409TIP3    H140642   1.004   0.212   0.899  1.3508 -0.8378  1.7749
 6409TIP3    H240643   1.065   0.305   0.795 -2.4727 -0.5012 -0.2852
 6410TIP3   OH240644   2.509   5.379   4.454  0.4865 -0.0180  0.1368
 6410TIP3    H140645   2.424   5.339   4.436  0.7440 -1.0464  1.1872
 6410TIP3    H240646   2.522   5.366   4.548  0.9636  1.7864  0.3512
 6411TIP3   OH240647   3.241   1.988   4.175  0.8689  0.4119 -0.4885
 6411TIP3    H140648   3.313   2.036   4.215  1.4500 -0.1887 -0.8035
 6411TIP3    H240649   3.269   1.896   4.178  0.1027  0.1718 -0.5797
 6412TIP3   OH240650   5.055   4.312   6.403 -0.7212 -0.4360  0.1695
 6412TIP3    H140651   5.103   4.322   6.486  0.5167 -0.0854 -0.5760
 6412TIP3    H240652   5.123   4.293   6.338 -1.5546  0.4342 -0.9840
 6413TIP3   OH240653   4.016   6.498  13.928  0.1266  0.2144  0.2137
 6413TIP3    H140654   3.929   6.507  13.888 -0.0620 -1.9224  0.0669
 6413TIP3    H240655   4.077   6.518  13.858 -0.2369 -0.2771 -0.2459
 6414TIP3   OH240656   1.033   2.293  12.458 -0.1636  0.0085  0.3938
 6414TIP3    H140657   1.002   2.329  12.374 -0.3295 -0.0032  0.4492
 6414TIP3    H240658   0.994   2.206  12.462  1.2988 -0.7090 -0.3538
 6415TIP3   OH240659   1.155   6.547  16.803 -0.3370 -0.6230 -0.2985
 6415TIP3    H140660   1.162   6.554  16.898 -0.4489  1.5536 -0.4354
 6415TIP3    H240661   1.063   6.526  16.788 -0.6621  0.5300  0.0187
 6416TIP3   OH240662   3.552   6.219  11.934  0.7345 -0.2992 -0.2811
 6416TIP3    H140663   3.555   6.314  11.944  1.4774 -0.1785 -1.5227
 6416TIP3    H240664   3.641   6.195  11.907  0.9235 -1.5105  1.3434
 6417TIP3   OH240665   1.336   0.773  16.524 -0.6661 -0.4380  0.0795
 6417TIP3    H140666   1.420   0.789  16.481 -0.4247 -0.8135  0.4030
 6417TIP3    H240667   1.287   0.719  16.462  0.1444 -2.0014  0.7725
 6418TIP3   OH240668   4.413   4.039  13.078 -0.3571  0.3996 -0.0731
 6418TIP3    H140669   4.330   4.020  13.034 -1.3406  0.2573  1.8067
 6418TIP3    H240670   4.478   3.986  13.031 -1.7000 -1.2321 -0.1421
 6419TIP3   OH240671   5.970   3.935  15.544  0.5693  0.0869  0.0406
 6419TIP3    H140672   5.989   3.880  15.620 -0.0474  0.1240  0.2255
 6419TIP3    H240673   5.980   4.025  15.576 -1.2153  0.1407  0.5057
 6420TIP3   OH240674   2.691   3.020   0.588  0.1346  0.5000  0.2129
 6420TIP3    H140675   2.732   3.075   0.520  2.4184  0.2307  1.3250
 6420TIP3    H240676   2.602   3.006   0.556  0.6755  1.6844 -1.9703
 6421TIP3   OH240677   4.147   3.277  11.925  0.0799  0.1923  0.1718
 6421TIP3    H140678   4.134   3.235  12.010  1.8670 -0.4275  0.1532
 6421TIP3    H240679   4.065   3.325  11.909 -1.0051 -1.2481  1.3421
 6422TIP3   OH240680   0.900   3.955   2.656  0.1051 -0.4076  0.3310
 6422TIP3    H140681   0.882   4.032   2.711  1.5542  0.3038 -0.1797
 6422TIP3    H240682   0.851   3.972   2.575 -0.6997 -0.6885  0.7496
 6423TIP3   OH240683   1.708   4.841  10.851 -0.3371  0.0870  0.3498
 6423TIP3    H140684   1.744   4.911  10.797 -0.4957  0.2848  0.5012
 6423TIP3    H240685   1.752   4.762  10.820  0.9157  0.4592  1.1746
 6424TIP3   OH240686   6.144   5.599   2.614 -0.0127 -0.3189 -0.4857
 6424TIP3    H140687   6.176   5.633   2.698 -0.7478  0.0023 -0.3368
 6424TIP3    H240688   6.182   5.658   2.549 -0.6697  0.3521 -0.2764
 6425TIP3   OH240689   3.674   4.114  13.043  0.3135 -0.6178 -0.2912
 6425TIP3    H140690   3.613   4.183  13.069 -1.8950 -2.9154  0.6700
 6425TIP3    H240691   3.630   4.068  12.972  1.1983 -1.8985 -0.0242
 6426TIP3   OH240692   0.566   1.140  11.173  0.3477 -0.4089  0.1791
 6426TIP3    H140693   0.585   1.102  11.087 -0.9459 -1.2833  0.2596
 6426TIP3    H240694   0.599   1.074  11.235  2.2247  0.6930  0.3776
 6427TIP3   OH240695   2.156   4.082   5.536  0.4214 -0.8521 -0.4624
 6427TIP3    H140696   2.218   4.146   5.500  0.7744 -1.7077 -1.4153
 6427TIP3    H240697   2.118   4.126   5.612  1.6307 -0.0181 -0.3132
 6428TIP3   OH240698   4.942   2.767   0.284 -0.0227 -0.1282  0.3785
 6428TIP3    H140699   5.021   2.748   0.334  0.1376 -0.5157 -0.0134
 6428TIP3    H240700   4.897   2.835   0.334 -0.2253 -1.0131  1.4319
 6429TIP3   OH240701   5.130   3.328  12.688 -0.1874 -0.0779  0.4079
 6429TIP3    H140702   5.192   3.268  12.648  0.9938  0.3337  1.5913
 6429TIP3    H240703   5.104   3.387  12.617  0.6003 -0.3944 -0.1493
 6430TIP3   OH240704   2.008   2.093  14.411 -0.2422 -0.0160  0.3861
 6430TIP3    H140705   1.985   2.058  14.325  0.6655  0.2211  0.0389
 6430TIP3    H240706   2.049   2.177  14.392 -0.0005  0.0175  1.0478
 6431TIP3   OH240707   5.830   4.761   2.951 -0.2378  0.0995  0.7748
 6431TIP3    H140708   5.779   4.681   2.962 -0.5717  0.5114  2.2460
 6431TIP3    H240709   5.920   4.735   2.971 -0.4878  0.2986  2.2097
 6432TIP3   OH240710   1.005   2.479   2.701  0.0888 -0.5806 -0.0965
 6432TIP3    H140711   1.078   2.524   2.744 -1.2452 -0.4545  2.1028
 6432TIP3    H240712   0.947   2.453   2.773 -0.1491 -4.1011 -1.4849
 6433TIP3   OH240713   4.013   5.575  15.295  0.3760  0.3914  0.3707
 6433TIP3    H140714   3.963   5.626  15.359 -0.5984 -0.2839  0.1619
 6433TIP3    H240715   4.064   5.640  15.246 -1.3576  1.2305 -0.3472
 6434TIP3   OH240716   2.596   1.682  14.832  0.6474  0.6830 -0.7907
 6434TIP3    H140717   2.531   1.613  14.840  0.2247  1.1744  0.1840
 6434TIP3    H240718   2.553   1.760  14.868  0.6690  1.7616 -2.9935
 6435TIP3   OH240719   6.362   0.743  12.931 -0.3239  0.1595  0.5828
 6435TIP3    H140720   6.306   0.789  12.993 -0.2902 -1.0797  1.5474
 6435TIP3    H240721   6.306   0.725  12.856 -1.4473 -1.6556  1.8098
 6436TIP3   OH240722   0.291   6.300   1.961 -0.6272  0.2253 -0.1043
 6436TIP3    H140723   0.200   6.325   1.947 -0.0023  1.8465 -1.5056
 6436TIP3    H240724   0.329   6.299   1.873  1.2745  1.8680  0.6580
 6437TIP3   OH240725   1.101   4.203   3.566 -0.1434 -0.1295  0.2281
 6437TIP3    H140726   1.036   4.143   3.601 -0.5153  0.5396  0.6973
 6437TIP3    H240727   1.133   4.160   3.487 -0.3220 -0.9930  0.6178
 6438TIP3   OH240728   4.799   1.444  12.821  0.8153 -0.0618  0.0155
 6438TIP3    H140729   4.778   1.511  12.756 -2.1183  1.0161  1.9790
 6438TIP3    H240730   4.878   1.476  12.864  1.2390  0.5411 -1.1921
 6439TIP3   OH240731   5.522   5.842  15.791  0.6583 -0.8481 -0.5888
 6439TIP3    H140732   5.428   5.825  15.796  0.4369  0.7533  1.5065
 6439TIP3    H240733   5.559   5.762  15.754 -1.3210 -2.2106  0.2726
 6440TIP3   OH240734   2.972   0.112  16.778  0.3071 -0.0033 -0.0141
 6440TIP3    H140735   3.044   0.175  16.785  0.3896  0.1074 -1.7831
 6440TIP3    H240736   3.014   0.027  16.793  0.5864  0.1689  0.1954
 6441TIP3   OH240737   3.368   1.134  11.638  0.7460 -1.3327 -0.2106
 6441TIP3    H140738   3.324   1.076  11.576  0.7656 -0.6204 -0.8853
 6441TIP3    H240739   3.456   1.145  11.603  0.3891  0.0381 -0.7096
 6442TIP3   OH240740   5.071   2.425  13.269  0.1177  0.7385 -0.5889
 6442TIP3    H140741   5.153   2.454  13.230  0.5652  0.9341  0.4845
 6442TIP3    H240742   5.049   2.344  13.222  0.6215  0.9914 -1.2622
 6443TIP3   OH240743   4.046   1.830  15.423 -0.1809 -0.8009 -0.4888
 6443TIP3    H140744   4.054   1.905  15.363  1.3678  1.0631  1.9674
 6443TIP3    H240745   4.051   1.868  15.510  2.4386 -3.9375  0.8425
 6444TIP3   OH240746   5.928   5.320   4.397  0.2808 -0.3226  0.2542
 6444TIP3    H140747   5.952   5.348   4.485  0.0991  1.5974 -0.2660
 6444TIP3    H240748   5.877   5.394   4.362 -1.2462 -1.8307 -0.7833
 6445TIP3   OH240749   5.687   4.130  13.038 -0.4788 -0.6406  0.2254
 6445TIP3    H140750   5.687   4.034  13.031  1.5568 -0.5358 -1.5569
 6445TIP3    H240751   5.739   4.148  13.116 -1.8929 -0.9839  1.2875
 6446TIP3   OH240752   6.064   0.625  14.102  0.1455  0.9964  0.0107
 6446TIP3    H140753   6.025   0.635  14.189 -1.6383 -0.0004 -0.6534
 6446TIP3    H240754   6.065   0.714  14.066 -0.2193  1.2349  0.5755
 6447TIP3   OH240755   2.967   3.861   2.842 -0.1446 -0.5789 -0.5483
 6447TIP3    H140756   2.914   3.787   2.812  0.0238 -1.4593  1.2737
 6447TIP3    H240757   3.027   3.823   2.906  1.7737  0.6561 -1.5623
 6448TIP3   OH240758   1.865   5.721   2.419  0.0858  0.0828 -0.1211
 6448TIP3    H140759   1.794   5.749   2.361 -0.1973  0.0071  0.1881
 6448TIP3    H240760   1.827   5.649   2.470  0.2463  0.3323  0.3531
 6449TIP3   OH240761   6.629   2.961  16.993  0.1044 -0.2103  0.0025
 6449TIP3    H140762   6.703   2.985  16.938  0.1999  0.3793  0.3703
 6449TIP3    H240763   6.664   2.961  17.082 -0.6092  1.2839  0.3057
 6450TIP3   OH240764   2.050   0.114  14.720 -0.3115  0.3524 -0.3083
 6450TIP3    H140765   1.980   0.053  14.743 -0.7106  0.9610  0.1077
 6450TIP3    H240766   2.053   0.113  14.625 -1.0540  0.4994 -0.3381
 6451TIP3   OH240767   2.682   4.243  14.719  0.1932  0.4644 -0.2482
 6451TIP3    H140768   2.610   4.267  14.778  1.1464  2.1343  0.2686
 6451TIP3    H240769   2.717   4.162  14.756 -0.5161  0.4069  0.3103
 6452TIP3   OH240770   6.692   5.538   0.744  0.1863  0.4312  0.3076
 6452TIP3    H140771   6.696   5.474   0.673  0.0150 -0.2868  0.9353
 6452TIP3    H240772   6.617   5.593   0.722 -1.1811 -1.1093  1.0027
 6453TIP3   OH240773   0.092   5.501  10.620 -0.3018 -0.1475 -0.5577
 6453TIP3    H140774   0.171   5.470  10.576  0.2649  1.0598 -0.4271
 6453TIP3    H240775   0.032   5.524  10.549 -0.3070 -0.4820 -0.6634
 6454TIP3   OH240776   3.959   6.558  12.507 -0.1998 -0.1870  0.0397
 6454TIP3    H140777   3.885   6.616  12.487  1.3820  2.3422  1.3101
 6454TIP3    H240778   3.956   6.547  12.602 -0.0413 -1.6027 -0.1145
 6455TIP3   OH240779   4.378   1.894   1.645  0.2605  0.1644 -0.4505
 6455TIP3    H140780   4.392   1.865   1.735  0.7631 -2.5828 -1.3688
 6455TIP3    H240781   4.464   1.925   1.616  0.5153 -0.6570 -0.5726
 6456TIP3   OH240782   2.946   6.716  12.188  0.1152 -0.5990  0.1013
 6456TIP3    H140783   3.036   6.739  12.165  0.3073 -1.1930  0.2544
 6456TIP3    H240784   2.913   6.793  12.233 -0.4410  0.7908 -2.6333
 6457TIP3   OH240785   3.547   2.362   4.445  0.1121 -0.0763 -0.1014
 6457TIP3    H140786   3.512   2.447   4.471  0.4443 -0.1649  0.6637
 6457TIP3    H240787   3.637   2.362   4.476 -0.0584 -0.9241  0.4169
 6458TIP3   OH240788   2.744   3.458  14.455 -0.1841 -0.0163 -0.3518
 6458TIP3    H140789   2.707   3.547  14.450 -0.5412 -0.0949  0.7517
 6458TIP3    H240790   2.679   3.403  14.411  0.0668  0.2698 -1.0979
 6459TIP3   OH240791   2.020   3.133  16.007 -0.1086  0.9665 -0.0770
 6459TIP3    H140792   1.972   3.083  16.073 -0.9327  0.5317 -0.9992
 6459TIP3    H240793   1.961   3.204  15.983 -0.2454  0.5087 -1.1155
 6460TIP3   OH240794   5.677   6.320  16.385  0.3140 -0.4617  0.1765
 6460TIP3    H140795   5.620   6.279  16.451  0.3350 -0.5322  0.1506
 6460TIP3    H240796   5.759   6.272  16.391 -0.2502 -1.6144 -1.1089
 6461TIP3   OH240797   6.543   3.737   0.179 -0.0520  0.7596 -0.6844
 6461TIP3    H140798   6.568   3.734   0.271 -2.0988 -0.6931 -0.1626
 6461TIP3    H240799   6.580   3.820   0.147  1.6267  0.7373  1.1374
 6462TIP3   OH240800   4.579   4.979   4.596  0.3091 -0.0926 -0.0034
 6462TIP3    H140801   4.512   5.023   4.544 -0.1564 -2.0044 -1.0653
 6462TIP3    H240802   4.634   4.934   4.531 -0.1572 -2.3410  1.1256
 6463TIP3   OH240803   5.087   1.558  16.041  0.0503 -0.9184 -0.6639
 6463TIP3    H140804   5.131   1.642  16.053 -0.0591 -1.0116  0.4230
 6463TIP3    H240805   5.139   1.513  15.975  0.0013  0.0782 -1.3955
 6464TIP3   OH240806   0.557   0.659  11.371  0.2689  0.0715  0.0059
 6464TIP3    H140807   0.489   0.630  11.310 -0.3582  0.6820  0.4060
 6464TIP3    H240808   0.568   0.585  11.431 -0.8825  0.4035  0.6464
 6465TIP3   OH240809   0.379   2.104  17.163  0.1773 -0.0159  0.2581
 6465TIP3    H140810   0.469   2.095  17.133  0.0906 -0.5760  0.1689
 6465TIP3    H240811   0.340   2.169  17.104  0.2677 -0.4312 -0.2592
 6466TIP3   OH240812   4.586   3.908   0.108 -0.5666  0.2911  0.1696
 6466TIP3    H140813   4.552   3.823   0.082 -0.9654 -0.1324  2.0177
 6466TIP3    H240814   4.509   3.966   0.106 -0.4858  0.3896 -0.1358
 6467TIP3   OH240815   2.403   2.920  12.004  0.1244 -0.7770 -0.4186
 6467TIP3    H140816   2.371   2.936  11.915  0.7593  1.3588 -0.3019
 6467TIP3    H240817   2.401   2.825  12.014 -0.9363 -0.9809 -2.3464
 6468TIP3   OH240818   2.689   2.694  13.445  0.4480 -0.4906  0.3206
 6468TIP3    H140819   2.676   2.619  13.388 -0.0181 -0.7045  0.7063
 6468TIP3    H240820   2.601   2.719  13.472  0.7087 -0.9058  1.5973
 6469TIP3   OH240821   2.835   6.606   0.257 -0.3170  0.1187 -0.3596
 6469TIP3    H140822   2.749   6.647   0.250  0.3924  1.6564 -0.4420
 6469TIP3    H240823   2.820   6.515   0.234 -2.5452 -0.4641  3.1081
 6470TIP3   OH240824   0.797   0.683   3.738  0.3082 -0.2940  0.1448
 6470TIP3    H140825   0.877   0.733   3.719 -0.5361  0.6684 -0.9693
 6470TIP3    H240826   0.746   0.741   3.794  1.6795 -2.1191  3.4593
 6471TIP3   OH240827   0.637   0.415   2.924 -0.7328 -0.0240  0.3775
 6471TIP3    H140828   0.700   0.479   2.893 -0.8042 -0.3881 -0.5619
 6471TIP3    H240829   0.689   0.337   2.942 -0.4301  0.7406  2.9664
 6472TIP3   OH240830   3.351   3.846  13.559 -0.2980  0.0457  0.0057
 6472TIP3    H140831   3.344   3.762  13.604 -0.1008  0.1980  0.3240
 6472TIP3    H240832   3.262   3.879  13.556 -0.1532  0.6240  1.4215
 6473TIP3   OH240833   0.129   6.160  12.819 -0.4525 -0.2079 -0.2266
 6473TIP3    H140834   0.189   6.095  12.784  0.0305 -0.7985  1.6093
 6473TIP3    H240835   0.151   6.241  12.774  2.6966 -0.1118  1.3780
 6474TIP3   OH240836   3.582   1.481  15.247  0.0549 -0.6345 -0.2390
 6474TIP3    H140837   3.649   1.412  15.249  0.5830 -0.0757  2.0637
 6474TIP3    H240838   3.515   1.451  15.309  1.7518  2.3342  3.1703
 6475TIP3   OH240839   6.331   0.358   3.145 -0.6063  0.4231 -0.5229
 6475TIP3    H140840   6.236   0.347   3.141 -0.6816  0.9210 -0.2174
 6475TIP3    H240841   6.362   0.286   3.198 -0.9425  0.9177  0.3622
 6476TIP3   OH240842   2.240   0.933  11.619  0.3526 -0.0126 -0.2822
 6476TIP3    H140843   2.274   0.954  11.707  0.7805 -0.2192 -0.3986
 6476TIP3    H240844   2.309   0.961  11.559  1.6277 -3.1066 -0.3714
 6477TIP3   OH240845   4.285   2.781   1.644 -0.2895 -0.2655 -0.3701
 6477TIP3    H140846   4.282   2.840   1.718  0.2633  0.7309 -1.1323
 6477TIP3    H240847   4.229   2.707   1.670 -0.0415  0.0334  1.0471
 6478TIP3   OH240848   5.656   3.419   2.091  0.3086  0.0155  0.2395
 6478TIP3    H140849   5.565   3.401   2.113  0.2555 -1.2890 -0.9854
 6478TIP3    H240850   5.703   3.410   2.174 -0.4668 -0.7561  0.6052
 6479TIP3   OH240851   2.196   5.219  16.701 -0.5355  0.6887  0.1581
 6479TIP3    H140852   2.241   5.280  16.760  0.2565  0.5574 -0.2942
 6479TIP3    H240853   2.133   5.273  16.654  0.1255  1.1501 -0.1998
 6480TIP3   OH240854   0.464   5.618  11.637 -0.4094  0.3923  0.0733
 6480TIP3    H140855   0.529   5.562  11.594  0.0616  0.5309  0.6018
 6480TIP3    H240856   0.387   5.612  11.581  0.8438  2.2068 -1.9301
 6481TIP3   OH240857   3.401   4.926   5.535  0.1558  0.1654  0.7770
 6481TIP3    H140858   3.362   4.841   5.515  0.9686 -0.0170 -0.1203
 6481TIP3    H240859   3.424   4.963   5.449  1.1241  0.6466  1.2318
 6482TIP3   OH240860   4.651   4.377   1.186 -0.3890  0.3829 -0.0323
 6482TIP3    H140861   4.726   4.317   1.193 -0.4599 -0.0614 -2.7458
 6482TIP3    H240862   4.617   4.383   1.275  2.1627 -0.3317  1.0327
 6483TIP3   OH240863   4.464   2.437   3.484 -0.2267  0.2826  0.1116
 6483TIP3    H140864   4.539   2.378   3.477  0.1222  0.7185  0.1588
 6483TIP3    H240865   4.448   2.445   3.578 -1.4023 -1.1453  0.0625
 6484TIP3   OH240866   5.464   0.387  15.302  0.3609  0.3036  0.0900
 6484TIP3    H140867   5.543   0.369  15.354  1.0594 -1.2292 -1.4638
 6484TIP3    H240868   5.496   0.401  15.213 -0.9152  2.0796 -0.1096
 6485TIP3   OH240869   2.467   4.575   2.030  0.3830  0.2334 -0.4420
 6485TIP3    H140870   2.560   4.563   2.008  0.3018  1.0580 -1.2614
 6485TIP3    H240871   2.466   4.655   2.083  0.2702 -0.4079  0.5461
 6486TIP3   OH240872   1.387   1.512  14.179 -0.0344  0.2122  0.1425
 6486TIP3    H140873   1.443   1.588  14.194 -2.9130  2.4302 -0.0614
 6486TIP3    H240874   1.423   1.470  14.101  2.5713  0.3720  1.2143
 6487TIP3   OH240875   0.483   6.147  16.163 -0.0578 -0.0771  0.8801
 6487TIP3    H140876   0.515   6.173  16.249  0.0046 -0.6752  1.0333
 6487TIP3    H240877   0.562   6.138  16.109  0.1530 -2.7758  1.5786
 6488TIP3   OH240878   0.664   4.345  16.231 -0.0325 -0.4574 -0.7665
 6488TIP3    H140879   0.725   4.397  16.285  1.3260 -0.8929 -1.8438
 6488TIP3    H240880   0.595   4.407  16.207  0.0364  0.0859  0.3733
 6489TIP3   OH240881   3.517   5.560   2.674  0.4797  0.1554  0.3405
 6489TIP3    H140882   3.570   5.639   2.663  0.9637 -0.0501  1.1759
 6489TIP3    H240883   3.545   5.523   2.758  0.4905 -1.0854 -0.1958
 6490TIP3   OH240884   5.256   4.743   5.886 -0.9244 -0.7207  0.3413
 6490TIP3    H140885   5.221   4.674   5.942 -0.7314 -0.6292  0.5735
 6490TIP3    H240886   5.180   4.797   5.864 -0.9160 -0.4840  0.8968
 6491TIP3   OH240887   3.958   5.559  12.223  0.1808  0.1589  0.2039
 6491TIP3    H140888   3.939   5.476  12.266 -0.7407 -0.1337 -0.7540
 6491TIP3    H240889   3.887   5.570  12.159  1.0385  1.0103 -0.6254
 6492TIP3   OH240890   6.437   1.293  15.125  0.2894  0.0749  0.0690
 6492TIP3    H140891   6.381   1.276  15.201  0.6800  0.0536  0.3545
 6492TIP3    H240892   6.377   1.317  15.055  0.0074  1.1282  0.6720
 6493TIP3   OH240893   1.042   0.477   4.496 -1.0395  0.1509 -0.6719
 6493TIP3    H140894   1.100   0.549   4.521 -0.6933 -0.2014 -0.4401
 6493TIP3    H240895   1.098   0.418   4.445 -0.6358 -1.2272  1.3127
 6494TIP3   OH240896   2.585   4.847  13.549  0.2025  0.1408  0.1495
 6494TIP3    H140897   2.537   4.840  13.466  0.2856  0.0288  0.1116
 6494TIP3    H240898   2.677   4.849  13.523  0.2294  0.0776  0.2413
 6495TIP3   OH240899   5.596   4.434  11.128  0.2767 -0.1013  0.3276
 6495TIP3    H140900   5.637   4.499  11.186 -2.0187  3.1689 -1.5514
 6495TIP3    H240901   5.512   4.415  11.169 -1.2105  1.9695 -1.5669
 6496TIP3   OH240902   6.397   4.881   4.722  0.3764  0.6376  0.1036
 6496TIP3    H140903   6.322   4.934   4.751 -0.5614 -0.1470 -0.8497
 6496TIP3    H240904   6.439   4.935   4.654 -0.4424  0.2623 -0.7047
 6497TIP3   OH240905   4.142   2.019   4.034  0.0675 -0.0684  0.1366
 6497TIP3    H140906   4.186   1.948   4.082 -1.2813 -1.7148 -1.0031
 6497TIP3    H240907   4.057   2.028   4.077 -0.3410 -0.1426 -0.6521
 6498TIP3   OH240908   4.886   2.218   4.487  0.5682 -0.0753 -0.1416
 6498TIP3    H140909   4.919   2.275   4.556  0.1365  0.7727 -0.6218
 6498TIP3    H240910   4.794   2.202   4.509  0.6956 -0.6172  0.0105
 6499TIP3   OH240911   4.343   1.637   1.033 -0.0896 -0.1243 -0.2487
 6499TIP3    H140912   4.389   1.643   0.949  0.7423 -2.1321  0.0454
 6499TIP3    H240913   4.292   1.556   1.028 -2.6690  1.4291 -0.0749
 6500TIP3   OH240914   3.284   3.389   5.443 -0.1810 -0.2940 -0.1209
 6500TIP3    H140915   3.322   3.309   5.405 -3.8571 -1.4437 -1.6002
 6500TIP3    H240916   3.214   3.357   5.500 -1.8009  1.8792 -0.8444
 6501TIP3   OH240917   1.394   2.231   2.088  0.1759  0.4930  0.3775
 6501TIP3    H140918   1.454   2.298   2.122 -0.4119 -0.6146  3.7494
 6501TIP3    H240919   1.307   2.267   2.104 -0.1119  0.3830 -0.9161
 6502TIP3   OH240920   1.308   2.925  16.918  0.0512 -0.8542 -0.2071
 6502TIP3    H140921   1.302   2.873  16.838  2.7327 -0.8186 -0.4715
 6502TIP3    H240922   1.355   2.868  16.980 -0.5504 -0.2569  0.8054
 6503TIP3   OH240923   1.245   0.624  12.682 -0.0442  0.0943 -0.4342
 6503TIP3    H140924   1.246   0.660  12.771 -2.0302 -1.9485  0.4650
 6503TIP3    H240925   1.190   0.685  12.632 -2.3758 -0.9556  0.7747
 6504TIP3   OH240926   5.918   3.656   1.466  0.4476  0.8290  0.0561
 6504TIP3    H140927   5.852   3.670   1.534  0.4408  0.6299  0.0901
 6504TIP3    H240928   5.868   3.625   1.390  0.6571 -0.5818  0.4859
 6505TIP3   OH240929   3.033   5.967  15.372  0.0621 -0.2087 -0.3911
 6505TIP3    H140930   3.098   5.983  15.441 -0.4466 -1.5313  0.4156
 6505TIP3    H240931   2.949   5.985  15.413 -0.1330  0.7310 -1.1998
 6506TIP3   OH240932   0.080   1.957  13.744  0.6244 -0.0068  0.3532
 6506TIP3    H140933   0.082   2.008  13.663 -0.2275 -0.6551 -0.0819
 6506TIP3    H240934  -0.002   1.908  13.739  1.4117 -1.3830  0.7973
 6507TIP3   OH240935   6.265   1.344  11.821  0.3735 -0.0284 -0.5915
 6507TIP3    H140936   6.318   1.266  11.804  0.4378  0.1953 -1.4483
 6507TIP3    H240937   6.322   1.401  11.872 -0.3790 -1.3869  1.8262
 6508TIP3   OH240938   5.006   6.513   2.551 -0.0442 -0.2316 -0.5551
 6508TIP3    H140939   4.930   6.454   2.547 -1.2411  1.3750 -2.4706
 6508TIP3    H240940   5.081   6.457   2.531 -0.8402 -1.6274  0.2620
 6509TIP3   OH240941   4.122   4.236   3.291  0.5057 -0.6861 -0.6776
 6509TIP3    H140942   4.154   4.222   3.201 -0.3015  0.2639 -1.1213
 6509TIP3    H240943   4.046   4.178   3.297  0.2402 -0.3504 -0.7888
 6510TIP3   OH240944   1.118   6.352   0.985 -0.1771 -0.1236 -0.3718
 6510TIP3    H140945   1.171   6.301   0.923  0.3449 -0.0954  0.0493
 6510TIP3    H240946   1.172   6.358   1.064 -0.9358 -0.3454  0.1653
 6511TIP3   OH240947   2.135   1.397  16.628 -0.0094 -0.3072 -0.1846
 6511TIP3    H140948   2.208   1.446  16.590 -1.2808  1.2396 -0.7026
 6511TIP3    H240949   2.176   1.324  16.673  1.7781 -0.1302 -1.4700
 6512TIP3   OH240950   0.325   3.774  13.146 -0.4178 -0.0252  0.2268
 6512TIP3    H140951   0.418   3.793  13.133 -0.1069 -0.0198  2.3137
 6512TIP3    H240952   0.318   3.751  13.238 -2.7232  1.3400  0.4381
 6513TIP3   OH240953   5.012   0.270  17.237 -0.2003  0.3066  0.8529
 6513TIP3    H140954   5.078   0.251  17.170 -1.3046  0.2979 -0.2526
 6513TIP3    H240955   5.062   0.276  17.319  1.2993  1.2281 -0.0967
 6514TIP3   OH240956   6.095   0.526  13.265  0.1485 -0.1562  0.1006
 6514TIP3    H140957   6.068   0.589  13.199  0.6799  0.2325  0.2524
 6514TIP3    H240958   6.166   0.476  13.223  0.5721  0.1743  0.4146
 6515TIP3   OH240959   0.115   4.064   1.701  0.3418 -0.0767 -0.3987
 6515TIP3    H140960   0.189   4.019   1.662 -0.2481 -0.5170 -1.0345
 6515TIP3    H240961   0.091   4.131   1.636 -0.4191 -0.5791 -0.6493
 6516TIP3   OH240962   6.501   2.755  13.861  0.5265 -0.4222 -0.1027
 6516TIP3    H140963   6.486   2.685  13.925 -1.0451  0.0254  0.0305
 6516TIP3    H240964   6.498   2.710  13.776 -1.2462 -0.4131 -0.0594
 6517TIP3   OH240965   5.117   0.499  15.861 -1.0531 -0.6045 -0.4521
 6517TIP3    H140966   5.187   0.517  15.798  0.1360  0.7375  1.2362
 6517TIP3    H240967   5.065   0.579  15.864 -1.1627 -0.6955  0.2045
 6518TIP3   OH240968   1.707   3.739  14.920 -0.1142 -0.3002  0.2694
 6518TIP3    H140969   1.755   3.688  14.985 -0.0768  0.3631  0.7759
 6518TIP3    H240970   1.632   3.774  14.968 -0.5756 -0.5387 -0.2737
 6519TIP3   OH240971   2.731   2.794  14.142 -0.4686  0.8607  0.3352
 6519TIP3    H140972   2.769   2.881  14.135 -0.8007  0.9019 -1.2681
 6519TIP3    H240973   2.715   2.768  14.051  0.9136 -1.4543  0.7336
 6520TIP3   OH240974   2.541   1.210  16.282 -0.6539 -0.2757  0.6255
 6520TIP3    H140975   2.492   1.131  16.303 -0.3279 -0.5150  0.4881
 6520TIP3    H240976   2.632   1.188  16.302 -0.4326 -0.2745 -0.3799
 6521TIP3   OH240977   0.637   0.202  10.284 -0.0679  0.7881  0.0429
 6521TIP3    H140978   0.557   0.233  10.244 -0.6743 -0.4072  0.2984
 6521TIP3    H240979   0.619   0.111  10.307  1.2286  0.6149  0.4435
 6522TIP3   OH240980   6.677   1.861  12.473  0.3612  0.2750 -0.0705
 6522TIP3    H140981   6.611   1.815  12.422  0.9949  0.8049 -1.3887
 6522TIP3    H240982   6.664   1.953  12.453  2.4954  0.2778 -1.5759
 6523TIP3   OH240983   0.144   1.277   3.941  0.5149 -0.6326 -0.4344
 6523TIP3    H140984   0.231   1.253   3.910  1.3627  1.2953  0.3525
 6523TIP3    H240985   0.132   1.225   4.020  1.8698  0.6272  0.6442
 6524TIP3   OH240986   4.022   1.051   6.077  0.1142  0.2654 -0.4936
 6524TIP3    H140987   3.952   0.998   6.114  1.9441 -1.2902  0.8515
 6524TIP3    H240988   4.100   0.995   6.082  1.3765  1.7865 -2.3296
 6525TIP3   OH240989   0.562   5.973   1.988  0.7465  0.2618 -0.6046
 6525TIP3    H140990   0.596   5.921   2.061 -0.7097  0.1183 -0.0058
 6525TIP3    H240991   0.631   6.036   1.968  1.2400  0.1572  0.7568
 6526TIP3   OH240992   4.739   5.388   4.139 -0.1363  0.4667  0.1669
 6526TIP3    H140993   4.773   5.302   4.114  1.9558  1.4231 -0.4067
 6526TIP3    H240994   4.655   5.370   4.181  0.4449 -1.8847  0.3722
 6527TIP3   OH240995   5.248   4.352   0.622  0.2834  0.4399  0.2816
 6527TIP3    H140996   5.255   4.257   0.635  0.6214  0.4301  0.0468
 6527TIP3    H240997   5.182   4.362   0.553 -1.8401  0.5112  2.2731
 6528TIP3   OH240998   2.900   3.118   1.093  0.2788  0.2048 -0.5772
 6528TIP3    H140999   2.859   3.120   1.006  0.4920 -0.1250 -0.6842
 6528TIP3    H241000   2.830   3.147   1.152 -0.1397 -0.4375 -0.7496
 6529TIP3   OH241001   4.326   6.010  14.711 -0.1478  0.5935 -0.1311
 6529TIP3    H141002   4.414   5.979  14.733 -0.7219 -0.2959  0.9231
 6529TIP3    H241003   4.319   5.996  14.616  1.9146  3.4182 -0.7676
 6530TIP3   OH241004   5.904   3.025  14.405  0.1295 -0.2432  0.2408
 6530TIP3    H141005   5.997   3.016  14.387  0.2327  0.5181  0.3786
 6530TIP3    H241006   5.862   2.964  14.345  0.7382 -0.8226  0.4072
 6531TIP3   OH241007   5.210   2.328  16.666  0.0308 -0.0259 -0.0301
 6531TIP3    H141008   5.218   2.287  16.580 -0.1200  0.8335 -0.4647
 6531TIP3    H241009   5.130   2.381  16.659 -0.3771 -0.5068  0.8763
 6532TIP3   OH241010   5.552   2.296   1.588  0.3554  0.7537 -0.1063
 6532TIP3    H141011   5.595   2.327   1.668  0.7849  0.0211 -0.0432
 6532TIP3    H241012   5.516   2.211   1.613  0.8613  0.3296 -0.8044
 6533TIP3   OH241013   0.444   5.325  15.351  0.3462 -0.1020 -0.0784
 6533TIP3    H141014   0.528   5.305  15.307  0.4515  2.2128 -0.9857
 6533TIP3    H241015   0.465   5.322  15.444  1.2665 -0.2965 -0.2813
 6534TIP3   OH241016   1.842   5.925   3.193 -0.1801  0.7003  0.3881
 6534TIP3    H141017   1.918   5.974   3.226 -0.0291  0.3646  0.5360
 6534TIP3    H241018   1.799   5.893   3.272  1.4305 -2.0374  0.2351
 6535TIP3   OH241019   3.562   5.810   3.116 -0.0353  0.3386  0.1440
 6535TIP3    H141020   3.597   5.845   3.033  0.6525 -2.9613 -1.0415
 6535TIP3    H241021   3.636   5.765   3.156 -1.4019 -1.6923  0.4768
 6536TIP3   OH241022   5.696   5.241   6.177 -0.5318  1.2574 -0.7058
 6536TIP3    H141023   5.603   5.264   6.182 -0.4412  1.4636  0.2860
 6536TIP3    H241024   5.739   5.305   6.234 -0.3264 -1.5694  2.5345
 6537TIP3   OH241025   6.545   4.163   4.441  0.4319 -0.3148 -0.3890
 6537TIP3    H141026   6.588   4.078   4.455  0.5902 -0.0346  0.8658
 6537TIP3    H241027   6.493   4.150   4.362 -0.6978 -2.0570  0.5954
 6538TIP3   OH241028   1.045   2.793  14.486 -0.2863  0.2053 -0.6277
 6538TIP3    H141029   1.044   2.855  14.558 -0.6472 -0.2621 -0.2242
 6538TIP3    H241030   1.004   2.839  14.413 -2.6762 -0.3327  0.3246
 6539TIP3   OH241031   6.626   1.665  13.487 -0.3005 -0.3206 -0.3073
 6539TIP3    H141032   6.715   1.631  13.479  0.2340  0.8832  0.5108
 6539TIP3    H241033   6.629   1.752  13.447 -0.7665  0.2878  0.9301
 6540TIP3   OH241034   5.031   3.923   1.501 -0.0150 -0.0494  0.6037
 6540TIP3    H141035   5.107   3.969   1.537  0.2747 -0.2397  0.2422
 6540TIP3    H241036   5.068   3.868   1.432 -0.5441  0.2111  0.1080
 6541TIP3   OH241037   4.844   3.714  11.377 -0.0985 -1.0842 -0.1335
 6541TIP3    H141038   4.926   3.682  11.340 -0.5073 -2.7812  0.4105
 6541TIP3    H241039   4.781   3.706  11.306  0.2143  0.3729 -0.6020
 6542TIP3   OH241040   3.282   1.912  11.529 -0.3777  0.3063  0.0229
 6542TIP3    H141041   3.353   1.902  11.593 -1.2196 -0.2393  0.8773
 6542TIP3    H241042   3.273   1.826  11.489  0.7927  0.8935 -1.5254
 6543TIP3   OH241043   0.017   0.490   4.052  0.0410 -0.4700  0.3961
 6543TIP3    H141044   0.094   0.535   4.088  0.5018 -0.1597 -0.9652
 6543TIP3    H241045  -0.058   0.542   4.081  0.2820 -1.1715  2.3363
 6544TIP3   OH241046   5.094   5.442  16.260  0.4732 -0.1464 -0.5875
 6544TIP3    H141047   5.120   5.370  16.319 -2.7722 -1.0377 -0.1677
 6544TIP3    H241048   5.045   5.502  16.316  1.4422  1.4464 -1.3935
 6545TIP3   OH241049   6.157   6.673   2.088 -0.1905  0.6076 -0.0265
 6545TIP3    H141050   6.072   6.637   2.113  0.9518 -2.7387 -0.6901
 6545TIP3    H241051   6.220   6.626   2.143  1.3798  1.5545 -0.9827
 6546TIP3   OH241052   6.759   3.950   5.567  0.0743  0.0426  0.8006
 6546TIP3    H141053   6.786   3.859   5.579 -2.3456 -0.8143  0.2322
 6546TIP3    H241054   6.786   3.972   5.478 -0.4222 -0.5533  0.4966
 6547TIP3   OH241055   4.590   6.071  16.331  0.2562  0.3379  0.6388
 6547TIP3    H141056   4.669   6.043  16.285 -1.2575 -1.8472 -0.7222
 6547TIP3    H241057   4.518   6.028  16.284 -1.7731  2.3622  1.7693
 6548TIP3   OH241058   0.403   4.690  10.902 -0.2663  0.2350 -0.1997
 6548TIP3    H141059   0.493   4.658  10.897 -0.3211  0.4154 -3.2847
 6548TIP3    H241060   0.350   4.612  10.917  0.2418 -0.1250 -0.2766
 6549TIP3   OH241061   1.854   5.667   1.506 -0.6069  0.1325  0.4406
 6549TIP3    H141062   1.832   5.730   1.575  1.1183  0.5830  0.5923
 6549TIP3    H241063   1.770   5.628   1.482 -1.7144  2.4572  0.3623
 6550TIP3   OH241064   3.241   5.550   0.453 -0.2703  0.1969 -0.2496
 6550TIP3    H141065   3.194   5.485   0.506  1.8423 -0.7806  0.4488
 6550TIP3    H241066   3.217   5.527   0.362 -1.3586 -0.1032  0.0968
 6551TIP3   OH241067   6.418   4.114   2.771  0.0832 -0.2178 -0.5120
 6551TIP3    H141068   6.381   4.085   2.854 -1.2781  1.4093 -0.5121
 6551TIP3    H241069   6.507   4.143   2.793 -0.8453  1.8254  0.7382
 6552TIP3   OH241070   0.950   1.699  12.975  0.0646  0.1317  0.3906
 6552TIP3    H141071   0.917   1.787  12.993  0.7475  0.3655  0.5374
 6552TIP3    H241072   1.015   1.712  12.906  0.1338 -0.2626  0.3797
 6553TIP3   OH241073   2.178   0.220   4.536 -0.4532  0.6776  0.3138
 6553TIP3    H141074   2.160   0.293   4.594  0.3788  0.8828  0.3185
 6553TIP3    H241075   2.189   0.260   4.449  1.2575  0.7191  0.5258
 6554TIP3   OH241076   1.527   2.008   1.954  0.0475  0.2550  0.4560
 6554TIP3    H141077   1.501   1.998   1.862  2.7915  1.6192 -0.5143
 6554TIP3    H241078   1.500   2.097   1.977  0.9978  0.5639  0.3965
 6555TIP3   OH241079   6.765   4.422  10.546 -0.7153  0.1215 -0.1223
 6555TIP3    H141080   6.741   4.445  10.635  0.8209  3.6407 -0.5267
 6555TIP3    H241081   6.724   4.489  10.492  1.1476  0.0056 -1.7400
 6556TIP3   OH241082   4.807   1.599  15.908  0.7158 -0.1505 -0.0277
 6556TIP3    H141083   4.759   1.545  15.844  0.1949  0.4989 -0.1991
 6556TIP3    H241084   4.890   1.620  15.865  0.1183  0.7927 -0.7603
 6557TIP3   OH241085   3.051   2.885  13.785 -0.1128  0.2204 -0.2289
 6557TIP3    H141086   2.993   2.853  13.854  0.3016 -0.0561 -0.0082
 6557TIP3    H241087   3.026   2.835  13.707  1.4209 -1.6039  0.4136
 6558TIP3   OH241088   0.553   0.035  11.218  0.0460  0.7597  0.2089
 6558TIP3    H141089   0.468   0.028  11.174  0.5697 -0.0613 -0.6837
 6558TIP3    H241090   0.592  -0.052  11.209  0.5711  0.8621  1.4646
 6559TIP3   OH241091   1.444   4.726   0.475 -0.0860  0.5626  0.1933
 6559TIP3    H141092   1.449   4.657   0.542  0.5304  0.3959 -0.0276
 6559TIP3    H241093   1.503   4.698   0.406 -1.2297  0.4014 -0.7423
 6560TIP3   OH241094   5.486   6.757  15.609  0.1537 -0.2668  0.1908
 6560TIP3    H141095   5.510   6.842  15.645 -1.9406  0.1212  0.7500
 6560TIP3    H241096   5.436   6.777  15.530 -1.4468 -0.9150  1.0181
 6561TIP3   OH241097   3.352   0.226  11.479  0.1125 -0.0930  0.1339
 6561TIP3    H141098   3.302   0.308  11.480 -0.0558 -0.1991  0.5926
 6561TIP3    H241099   3.383   0.216  11.569 -0.8885 -1.1537  0.3738
 6562TIP3   OH241100   5.486   6.295  12.110 -0.5878 -0.1814  0.2412
 6562TIP3    H141101   5.459   6.327  12.024 -0.8938 -0.4835  0.2216
 6562TIP3    H241102   5.409   6.307  12.165 -0.4576 -0.1750  0.4211
 6563TIP3   OH241103   6.569   5.504   6.093 -0.6054  0.5066  0.0916
 6563TIP3    H141104   6.570   5.415   6.058  0.7861  0.1457  1.0000
 6563TIP3    H241105   6.647   5.509   6.148 -1.2865  1.9239  0.9666
 6564TIP3   OH241106   6.275   1.774  17.187 -0.5639  0.0071 -0.1276
 6564TIP3    H141107   6.180   1.771  17.189 -0.6512  2.3663  4.7647
 6564TIP3    H241108   6.301   1.686  17.157 -4.1985 -0.9636 -0.6361
 6565TIP3   OH241109   6.585   3.691  11.741  0.2978  0.2123 -0.6027
 6565TIP3    H141110   6.567   3.781  11.766  0.6986  0.3737 -0.8817
 6565TIP3    H241111   6.502   3.658  11.706 -0.1523  0.1136  0.5366
 6566TIP3   OH241112   0.608   5.901   0.450  0.5350 -0.0848  0.6523
 6566TIP3    H141113   0.668   5.883   0.377 -1.2670 -0.4977 -0.7715
 6566TIP3    H241114   0.568   5.985   0.428 -1.5295 -1.1787  0.1041
 6567TIP3   OH241115   2.273   5.402   1.445  0.3270  0.1646  0.2585
 6567TIP3    H141116   2.229   5.471   1.495  1.0740  0.2819  0.7474
 6567TIP3    H241117   2.300   5.338   1.511  0.3299 -0.2237 -0.1136
 6568TIP3   OH241118   4.439   1.812   1.951 -0.4920  0.0843 -0.4427
 6568TIP3    H141119   4.435   1.718   1.972 -1.2669 -0.4274 -2.7834
 6568TIP3    H241120   4.528   1.826   1.919  0.2732  0.5992  1.8020
 6569TIP3   OH241121   5.808   0.980   4.627  0.3013 -0.6409 -0.0224
 6569TIP3    H141122   5.876   1.016   4.569 -0.2982 -1.9774 -1.5844
 6569TIP3    H241123   5.837   0.890   4.644  0.0584 -0.5094  1.1461
 6570TIP3   OH241124   6.184   4.812  11.599 -0.1102 -0.0048  0.6048
 6570TIP3    H141125   6.195   4.784  11.508  0.0409 -0.0619  0.6405
 6570TIP3    H241126   6.271   4.839  11.627 -0.6088  2.3718 -0.0299
 6571TIP3   OH241127   2.570   0.148  13.908 -0.2324 -0.5353  0.0457
 6571TIP3    H141128   2.528   0.144  13.994 -3.4430 -1.6091 -1.4662
 6571TIP3    H241129   2.604   0.237  13.902 -2.3236  0.4035  1.4039
 6572TIP3   OH241130   2.063   0.283  14.963 -0.0214 -0.2330  0.1643
 6572TIP3    H141131   2.027   0.210  15.012 -0.9508 -0.3845 -0.7066
 6572TIP3    H241132   2.077   0.248  14.875  0.3575  0.3967 -0.0305
 6573TIP3   OH241133   3.367   3.745   6.738  0.1090  0.8983 -0.2834
 6573TIP3    H141134   3.291   3.787   6.779  0.7937  1.5962  0.2780
 6573TIP3    H241135   3.349   3.651   6.745  0.2877  0.9883  1.7505
 6574TIP3   OH241136   6.706   3.530   1.051  0.3655 -0.7590 -0.0541
 6574TIP3    H141137   6.652   3.566   0.981  1.6483 -0.2026 -0.7717
 6574TIP3    H241138   6.663   3.448   1.075 -0.4025 -0.6717 -1.1011
 6575TIP3   OH241139   0.957   2.125  10.987 -0.2979  0.2451 -0.0190
 6575TIP3    H141140   1.044   2.161  11.004  0.2636 -0.8109 -0.6237
 6575TIP3    H241141   0.900   2.202  10.979  0.8451  0.9928 -1.0837
 6576TIP3   OH241142   2.789   0.902   2.419  0.8231 -0.3791  0.0291
 6576TIP3    H141143   2.849   0.932   2.352 -0.2293  2.4319  0.2766
 6576TIP3    H241144   2.835   0.918   2.502  1.0602 -1.3835  0.1020
 6577TIP3   OH241145   3.087   2.382   1.828 -0.3752  0.5129  0.2049
 6577TIP3    H141146   3.098   2.469   1.865  1.5196  0.2328  0.3597
 6577TIP3    H241147   2.992   2.370   1.823 -0.6625  2.4021  0.5745
 6578TIP3   OH241148   4.371   2.156  17.169  0.3592 -0.3516 -0.0866
 6578TIP3    H141149   4.399   2.065  17.176  2.8761  0.3843  0.0198
 6578TIP3    H241150   4.276   2.153  17.176  0.3477 -3.0436 -0.8865
 6579TIP3   OH241151   1.590   0.606  17.123 -0.3086  0.4968 -0.4682
 6579TIP3    H141152   1.624   0.598  17.034 -0.8327  1.6440 -0.7812
 6579TIP3    H241153   1.508   0.656  17.113  0.6783  2.4665  0.8717
 6580TIP3   OH241154   5.243   1.206   3.782 -0.6347 -0.3662 -0.1029
 6580TIP3    H141155   5.256   1.278   3.843  2.7701 -1.8626  1.0787
 6580TIP3    H241156   5.190   1.142   3.830 -1.5824  0.2616 -0.2906
 6581TIP3   OH241157   2.350   6.769   5.253 -0.0028  0.4620  0.0308
 6581TIP3    H141158   2.400   6.775   5.334 -1.2919 -2.1069  1.0793
 6581TIP3    H241159   2.280   6.834   5.264 -0.7956 -0.5976  1.4707
 6582TIP3   OH241160   5.165   6.347  15.790  0.4093 -0.2036 -0.5956
 6582TIP3    H141161   5.224   6.274  15.811  1.6419  0.7260 -0.8131
 6582TIP3    H241162   5.220   6.425  15.794 -0.5731  0.5711 -1.8460
 6583TIP3   OH241163   5.162   2.825   3.253 -0.3074  0.2880  0.3077
 6583TIP3    H141164   5.084   2.782   3.288  0.4134 -1.0456  0.3078
 6583TIP3    H241165   5.207   2.756   3.203  0.8156  1.0715  0.2166
 6584TIP3   OH241166   2.323   3.979  14.800 -0.0930 -0.3200  0.3559
 6584TIP3    H141167   2.309   3.896  14.755  0.2629 -0.3776  0.3441
 6584TIP3    H241168   2.236   4.008  14.825 -0.1806 -0.9017  0.7289
 6585TIP3   OH241169   2.367   3.760  16.403 -0.2827 -0.1987 -0.1499
 6585TIP3    H141170   2.383   3.839  16.455  1.1460  1.2060 -2.5702
 6585TIP3    H241171   2.281   3.774  16.365 -0.5871 -0.4081  0.4672
 6586TIP3   OH241172   4.482   1.292   3.358  0.2894 -0.4263  0.0235
 6586TIP3    H141173   4.536   1.334   3.291 -0.5854 -0.4401 -0.6914
 6586TIP3    H241174   4.538   1.289   3.435  1.4629 -0.8311 -0.8391
 6587TIP3   OH241175   0.452   3.965   4.501  0.0246  0.2672  0.6405
 6587TIP3    H141176   0.492   3.961   4.414 -0.5902 -3.0153  0.4613
 6587TIP3    H241177   0.367   4.006   4.486 -0.5269 -1.2602 -0.4973
 6588TIP3   OH241178   0.162   0.019   0.460 -0.2062 -0.4534 -0.2010
 6588TIP3    H141179   0.080   0.053   0.495 -0.9073 -0.5891 -1.6793
 6588TIP3    H241180   0.161   0.044   0.368  2.6966  1.9819  0.3382
 6589TIP3   OH241181   2.639   1.514  15.975  0.3930 -0.0436 -0.6964
 6589TIP3    H141182   2.574   1.491  15.910 -0.4799  1.8000 -0.5195
 6589TIP3    H241183   2.690   1.434  15.989 -1.2871 -1.2578 -1.4504
 6590TIP3   OH241184   2.763   4.388  12.027 -0.3156 -0.1339 -0.0747
 6590TIP3    H141185   2.749   4.432  12.111 -0.3175 -2.1171  1.0028
 6590TIP3    H241186   2.795   4.457  11.969 -0.1711  1.2464  1.5921
 6591TIP3   OH241187   4.178   4.063   5.590  0.3114 -0.2695  0.2130
 6591TIP3    H141188   4.142   4.126   5.527  0.5744  0.2025  0.5319
 6591TIP3    H241189   4.259   4.032   5.548  0.5116  0.0802  0.3402
 6592TIP3   OH241190   1.275   5.872   0.347  0.1189 -0.1653  0.4328
 6592TIP3    H141191   1.235   5.950   0.385  1.1924  1.0305 -0.8412
 6592TIP3    H241192   1.341   5.846   0.411  0.3110  0.4583  0.4915
 6593TIP3   OH241193   0.507   6.407  12.135  0.1095 -0.5049 -0.0753
 6593TIP3    H141194   0.496   6.318  12.101  1.2714 -0.3577 -0.8676
 6593TIP3    H241195   0.556   6.396  12.216  0.7248 -0.5506 -0.4496
 6594TIP3   OH241196   6.762   1.305  16.052  0.1148  0.0243  0.1697
 6594TIP3    H141197   6.849   1.341  16.037  0.6133  0.2589  3.3217
 6594TIP3    H241198   6.707   1.382  16.070 -0.0310 -0.3618  1.3912
 6595TIP3   OH241199   0.568   2.818  15.506 -0.0532 -0.2745 -0.2060
 6595TIP3    H141200   0.642   2.761  15.525 -1.2432 -1.7044  0.2170
 6595TIP3    H241201   0.493   2.773  15.545 -1.4342  0.2515 -2.2195
 6596TIP3   OH241202   0.197   1.927   2.838 -0.5174 -0.1974  0.2903
 6596TIP3    H141203   0.135   1.945   2.909 -1.0729 -3.0688  0.5976
 6596TIP3    H241204   0.283   1.945   2.876 -0.9738  0.8208  0.8489
 6597TIP3   OH241205   3.884   1.005   2.034 -0.6991 -0.1481  0.3888
 6597TIP3    H141206   3.904   1.099   2.027 -0.1465 -0.0805  2.3957
 6597TIP3    H241207   3.963   0.962   2.001  0.6261  0.1256  3.0701
 6598TIP3   OH241208   6.743   2.299  13.829 -0.8117  0.4337  0.0777
 6598TIP3    H141209   6.817   2.343  13.787 -0.1822 -0.5999  0.0932
 6598TIP3    H241210   6.693   2.262  13.756 -1.7644  1.7794  0.0074
 6599TIP3   OH241211   2.617   5.427  13.636 -0.6004  0.3818  0.4320
 6599TIP3    H141212   2.583   5.517  13.637  0.6488  0.8510  2.0100
 6599TIP3    H241213   2.694   5.432  13.579 -0.1805  0.4447  1.0057
 6600TIP3   OH241214   2.945   4.113   1.767  0.2843 -0.0493  0.1063
 6600TIP3    H141215   2.989   4.197   1.758  0.6272 -0.3293 -0.9633
 6600TIP3    H241216   3.005   4.051   1.725  0.3255 -0.9263  1.4126
 6601TIP3   OH241217   3.942   1.717  12.449  0.2240  0.5853 -0.0626
 6601TIP3    H141218   4.023   1.762  12.473  0.9918 -1.1036  0.6454
 6601TIP3    H241219   3.885   1.726  12.525  0.8609 -0.7051  0.5808
 6602TIP3   OH241220   4.140   4.637  13.543 -0.9686  0.3875  0.3326
 6602TIP3    H141221   4.166   4.690  13.468  0.1532 -1.7218 -0.8236
 6602TIP3    H241222   4.129   4.549  13.507 -3.3314 -0.0778  2.0972
 6603TIP3   OH241223   5.070   0.051   3.690  0.2596  0.6529  0.2950
 6603TIP3    H141224   5.146   0.099   3.658  1.3197 -0.2927  1.3781
 6603TIP3    H241225   5.058  -0.019   3.626  0.6637  0.4358  0.4586
 6604TIP3   OH241226   3.819   0.332   3.466  0.0393 -0.5615  0.0779
 6604TIP3    H141227   3.894   0.342   3.525 -0.2892  1.7128  0.1681
 6604TIP3    H241228   3.765   0.409   3.484 -0.3615 -0.1437 -2.7523
 6605TIP3   OH241229   2.892   5.516   2.592  0.1265 -0.1215  0.3832
 6605TIP3    H141230   2.889   5.509   2.496  0.9521 -0.4762  0.3770
 6605TIP3    H241231   2.908   5.426   2.622 -0.8711 -0.1350  0.8953
 6606TIP3   OH241232   1.641   6.235   3.117  0.1042 -0.3853 -0.1985
 6606TIP3    H141233   1.611   6.194   3.198  0.1271 -0.0692 -0.0337
 6606TIP3    H241234   1.619   6.171   3.049 -0.0111 -0.6016  0.0424
 6607TIP3   OH241235   4.855   0.364  15.731 -0.0688 -0.0827 -0.3234
 6607TIP3    H141236   4.920   0.309  15.775 -0.2825  0.7105  1.0218
 6607TIP3    H241237   4.893   0.381  15.645  0.1287 -2.0826 -0.6714
 6608TIP3   OH241238   2.471   6.262   1.190 -0.1390  0.3954  0.0097
 6608TIP3    H141239   2.557   6.233   1.220 -0.1472  0.3871  0.0246
 6608TIP3    H241240   2.427   6.293   1.270 -0.4012 -0.2258  0.1061
 6609TIP3   OH241241   6.411   0.554   2.510  0.4292  0.0408 -0.0999
 6609TIP3    H141242   6.500   0.551   2.476  0.5031 -0.9400  0.1740
 6609TIP3    H241243   6.418   0.600   2.593  0.5650  0.6276 -0.4365
 6610TIP3   OH241244   2.698   4.174  11.443  0.0829  0.5034 -0.3194
 6610TIP3    H141245   2.632   4.243  11.431 -0.2226  0.2350 -0.1872
 6610TIP3    H241246   2.701   4.129  11.358  0.2394  0.6413 -0.3879
 6611TIP3   OH241247   0.121   0.142  17.127 -0.3205  0.0531 -0.1607
 6611TIP3    H141248   0.156   0.118  17.042 -0.1008  0.6410 -0.2393
 6611TIP3    H241249   0.064   0.217  17.110 -0.8929 -0.3264  0.0946
 6612TIP3   OH241250   4.470   2.782   1.446  0.1290  0.7958  0.0531
 6612TIP3    H141251   4.412   2.798   1.520  0.2440 -1.5989  0.7036
 6612TIP3    H241252   4.412   2.784   1.370 -0.7227 -0.8644  0.6306
 6613TIP3   OH241253   5.984   0.318  10.611 -0.3308 -0.3565 -0.0142
 6613TIP3    H141254   6.025   0.246  10.564 -0.8578 -1.3086  0.9509
 6613TIP3    H241255   5.973   0.387  10.546 -2.3063 -2.1421 -1.6445
 6614TIP3   OH241256   6.534   2.121   4.539  0.1592 -0.0259 -0.3543
 6614TIP3    H141257   6.566   2.195   4.590  1.2285 -0.3153 -0.6029
 6614TIP3    H241258   6.559   2.044   4.590 -2.6650 -0.2073  0.9071
 6615TIP3   OH241259   1.646   0.712   3.133 -0.3893 -0.4507 -0.1728
 6615TIP3    H141260   1.654   0.637   3.074  0.3541 -0.6855  0.2251
 6615TIP3    H241261   1.573   0.690   3.191 -2.0948  0.4047 -1.9002
 6616TIP3   OH241262   2.753   1.834  15.371  0.7940 -1.5276  0.2948
 6616TIP3    H141263   2.765   1.926  15.395  0.4201 -1.5399  0.5233
 6616TIP3    H241264   2.767   1.833  15.276 -1.4187 -0.8541 -0.0587
 6617TIP3   OH241265   0.355   2.384  17.092  0.7408  0.5183  0.3057
 6617TIP3    H141266   0.365   2.406  17.184 -2.4501  1.4925  0.4727
 6617TIP3    H241267   0.265   2.407  17.071  0.8369 -1.4566 -2.5979
 6618TIP3   OH241268   6.470   3.359  11.639 -0.3780  0.0330  0.0006
 6618TIP3    H141269   6.393   3.304  11.623  0.7594 -1.3250 -0.9427
 6618TIP3    H241270   6.475   3.365  11.735 -0.7418 -1.2072  0.1076
 6619TIP3   OH241271   6.198   3.973  13.896 -0.3545  0.1204  0.2359
 6619TIP3    H141272   6.282   4.012  13.871 -0.6608 -0.8982 -2.5581
 6619TIP3    H241273   6.202   3.884  13.860 -1.4152 -0.9825  2.7250
 6620TIP3   OH241274   2.669   0.176  16.506 -0.2845  0.1168 -0.7704
 6620TIP3    H141275   2.585   0.218  16.518 -0.4756 -0.3614 -0.4080
 6620TIP3    H241276   2.691   0.140  16.592  1.6421  2.6627 -0.1327
 6621TIP3   OH241277   3.909   2.987   2.727 -0.6126 -0.4478  0.1436
 6621TIP3    H141278   3.834   2.959   2.674 -0.1499  2.2758 -2.1110
 6621TIP3    H241279   3.984   2.980   2.668  0.2799  0.5075  1.1330
 6622TIP3   OH241280   2.408   3.817   6.356 -0.5783 -0.8443 -0.6864
 6622TIP3    H141281   2.407   3.760   6.433 -0.9956 -2.6099 -1.9601
 6622TIP3    H241282   2.316   3.838   6.340 -0.3887  0.6463  0.0840
 6623TIP3   OH241283   0.114   0.783  16.848 -0.3302  0.1282  0.0192
 6623TIP3    H141284   0.190   0.728  16.868  0.0871  0.1524 -1.4361
 6623TIP3    H241285   0.151   0.860  16.804 -0.9753  1.2490  1.3900
 6624TIP3   OH241286   4.005   3.378   1.173 -0.0386 -0.4383  0.1826
 6624TIP3    H141287   4.036   3.293   1.205  0.4804 -0.8180 -1.3028
 6624TIP3    H241288   4.051   3.441   1.228  0.6923 -1.0823  0.3264
 6625TIP3   OH241289   6.447   4.200  17.014 -0.6575  0.5103  0.2322
 6625TIP3    H141290   6.507   4.171  16.946 -1.4136  1.3796 -0.8166
 6625TIP3    H241291   6.361   4.165  16.989 -0.7681  0.0100  1.2573
 6626TIP3   OH241292   4.205   0.858  13.463 -0.0710  0.1335 -0.5147
 6626TIP3    H141293   4.262   0.887  13.534 -0.9678  0.3963  0.1118
 6626TIP3    H241294   4.244   0.895  13.384  1.0340 -0.3104 -0.1827
 6627TIP3   OH241295   6.310   5.055  13.453  0.0264  0.3660  0.2426
 6627TIP3    H141296   6.262   5.126  13.495  1.0274  2.5178 -2.1260
 6627TIP3    H241297   6.396   5.092  13.434  1.1964 -2.0757  0.5940
 6628TIP3   OH241298   5.417   2.115   2.422 -0.2775  0.1112 -0.9158
 6628TIP3    H141299   5.474   2.070   2.360 -0.6385 -0.2183 -1.0075
 6628TIP3    H241300   5.351   2.158   2.368 -1.4908 -1.4212 -0.6882
 6629TIP3   OH241301   1.034   0.014   3.902  0.3455 -0.3290  0.4291
 6629TIP3    H141302   1.069   0.081   3.843 -0.3058  0.0695  0.4969
 6629TIP3    H241303   1.082  -0.065   3.878 -0.0433 -0.2214 -0.7625
 6630TIP3   OH241304   5.980   6.061  14.605 -0.1031  0.1533  0.3630
 6630TIP3    H141305   6.070   6.085  14.630 -0.0351 -2.3622  2.6909
 6630TIP3    H241306   5.941   6.144  14.576  2.1333  1.8223  1.9061
 6631TIP3   OH241307   4.735   6.634   1.549 -0.0952 -0.3287  0.5251
 6631TIP3    H141308   4.804   6.589   1.502 -0.8829 -0.7937 -0.2131
 6631TIP3    H241309   4.748   6.727   1.528  2.6785  0.0317  3.5955
 6632TIP3   OH241310   4.865   4.657   3.956 -0.1748 -0.2261  0.1503
 6632TIP3    H141311   4.819   4.574   3.965 -1.2337  0.1725 -1.3626
 6632TIP3    H241312   4.931   4.641   3.888 -0.2709  0.1134 -0.0255
 6633TIP3   OH241313   5.806   3.121   0.829 -0.0484 -0.1484 -0.1613
 6633TIP3    H141314   5.859   3.062   0.882 -0.3642  0.6885  1.0937
 6633TIP3    H241315   5.753   3.062   0.775  1.3266 -0.9938 -0.6149
 6634TIP3   OH241316   3.996   6.176   1.796  0.1724 -0.2727  0.1752
 6634TIP3    H141317   4.022   6.084   1.799 -1.3893 -0.7043  1.1800
 6634TIP3    H241318   4.049   6.219   1.863  0.3251 -0.6084  0.2694
 6635TIP3   OH241319   4.616   0.864  10.912 -0.1320  0.7577 -0.6085
 6635TIP3    H141320   4.556   0.850  10.985  1.4680 -0.0619  0.5692
 6635TIP3    H241321   4.583   0.943  10.869 -1.7826  0.5710  0.2686
 6636TIP3   OH241322   1.182   1.229   0.325 -0.4818  0.1005 -0.4864
 6636TIP3    H141323   1.229   1.274   0.255 -1.3522  0.7945 -0.6469
 6636TIP3    H241324   1.238   1.156   0.349  0.1827  0.3033 -1.3843
 6637TIP3   OH241325   0.537   0.884  13.621  0.0132  0.7131 -0.0639
 6637TIP3    H141326   0.592   0.930  13.557  0.8944  1.7597  1.4231
 6637TIP3    H241327   0.495   0.815  13.570  2.3777  0.1418 -1.3175
 6638TIP3   OH241328   5.708   1.970   2.020 -0.1431 -0.2402 -0.3945
 6638TIP3    H141329   5.662   1.890   1.994  1.0857 -1.5861  1.4603
 6638TIP3    H241330   5.792   1.965   1.976 -0.0235 -0.0128 -0.1952
 6639TIP3   OH241331   4.092   2.186   5.892 -0.4703  0.2016  0.0575
 6639TIP3    H141332   4.094   2.268   5.943  1.8345  1.2812 -1.6919
 6639TIP3    H241333   4.169   2.138   5.921 -1.3416 -0.9818  0.4422
 6640TIP3   OH241334   1.432   1.095   5.154 -0.6081  0.3452 -0.7522
 6640TIP3    H141335   1.494   1.166   5.136 -0.9202  0.3263 -1.9432
 6640TIP3    H241336   1.372   1.096   5.080 -0.3170 -1.4938 -1.0259
 6641TIP3   OH241337   0.450   0.579  14.310  0.1760 -0.1669  0.0939
 6641TIP3    H141338   0.430   0.605  14.220 -0.5065  0.5074  0.4483
 6641TIP3    H241339   0.451   0.661  14.360  2.0374 -0.3579  0.4243
 6642TIP3   OH241340   4.962   3.673  15.932 -0.1913 -0.0367 -0.4522
 6642TIP3    H141341   4.962   3.618  15.854 -0.9772 -0.2354 -0.3172
 6642TIP3    H241342   4.933   3.614  16.002  1.3698 -0.1049  0.1769
 6643TIP3   OH241343   3.883   1.894  13.638  0.4203  0.0505 -0.6393
 6643TIP3    H141344   3.848   1.980  13.615 -1.1470 -0.2408  0.5523
 6643TIP3    H241345   3.954   1.880  13.576  0.6904  2.1873 -0.8570
 6644TIP3   OH241346   4.469   4.313  13.948 -0.3670  0.3270  0.1591
 6644TIP3    H141347   4.383   4.353  13.960 -0.3556  0.0965  1.0220
 6644TIP3    H241348   4.451   4.222  13.928 -0.3103  0.1906  0.7297
 6645TIP3   OH241349   4.100   4.030  11.720 -0.4938 -0.0994 -0.8456
 6645TIP3    H141350   4.138   4.117  11.728  0.5268 -0.4591 -1.5985
 6645TIP3    H241351   4.127   4.000  11.633  0.7784 -1.8811  0.1226
 6646TIP3   OH241352   5.030   5.846   1.368  0.5861 -0.6535  0.2803
 6646TIP3    H141353   5.052   5.877   1.456 -1.8286  0.5436  0.4933
 6646TIP3    H241354   4.989   5.761   1.382  0.1656 -0.4448  0.2998
 6647TIP3   OH241355   3.239   5.044   3.891  0.0618 -0.8160  0.3081
 6647TIP3    H141356   3.161   5.051   3.946  0.0818 -1.3960  0.4087
 6647TIP3    H241357   3.213   4.988   3.819 -0.5788  1.5460 -1.3573
 6648TIP3   OH241358   0.745   0.915   4.774  0.4961  0.1104  0.0687
 6648TIP3    H141359   0.692   0.993   4.755  0.6624  0.1904 -0.0666
 6648TIP3    H241360   0.680   0.845   4.788  0.3696 -0.0673 -1.2684
 6649TIP3   OH241361   3.755   0.801   2.181 -0.7925 -0.7781  0.1704
 6649TIP3    H141362   3.804   0.875   2.146 -0.7449 -1.1752 -0.6347
 6649TIP3    H241363   3.686   0.840   2.234 -1.2657 -0.1180 -0.9108
 6650TIP3   OH241364   0.746   3.580   1.673  0.4292  0.3663 -0.2012
 6650TIP3    H141365   0.714   3.633   1.746  0.0234 -1.3137  0.8623
 6650TIP3    H241366   0.837   3.609   1.661  0.0972  1.5826  0.0684
 6651TIP3   OH241367   2.494   4.694  15.040 -1.0587  0.2022 -0.4011
 6651TIP3    H141368   2.553   4.696  15.116  0.2784 -0.6112 -1.3862
 6651TIP3    H241369   2.541   4.744  14.973 -0.8165 -1.6331 -1.6490
 6652TIP3   OH241370   6.088   6.738  11.279 -0.4180 -0.2597  0.6139
 6652TIP3    H141371   6.087   6.780  11.364  5.1070  1.7508 -0.1356
 6652TIP3    H241372   6.156   6.671  11.286 -0.9597 -1.1063 -1.7568
 6653TIP3   OH241373   0.498   6.184   0.502  0.4372 -0.0685  0.1032
 6653TIP3    H141374   0.500   6.158   0.410  0.1926 -0.9287  0.3332
 6653TIP3    H241375   0.550   6.263   0.506  2.1802 -1.1705 -0.4254
 6654TIP3   OH241376   2.385   6.759   1.845  0.3622 -0.3536  0.4288
 6654TIP3    H141377   2.455   6.716   1.894  0.4381 -2.4332 -1.3813
 6654TIP3    H241378   2.430   6.798   1.769 -0.2092 -0.3092  0.1089
 6655TIP3   OH241379   2.439   4.099   6.404  0.4423  0.2455 -0.3986
 6655TIP3    H141380   2.524   4.115   6.445  1.1461 -0.1363 -1.7099
 6655TIP3    H241381   2.428   4.004   6.407 -0.4520  0.3690  0.7700
 6656TIP3   OH241382   4.901   4.299   1.327  0.2194  0.6915 -0.2199
 6656TIP3    H141383   4.899   4.363   1.399 -0.3447 -0.4757  0.8047
 6656TIP3    H241384   4.951   4.344   1.258  0.2856  2.0435  0.6765
 6657TIP3   OH241385   6.172   0.032  15.827  0.1323 -0.2169  0.0933
 6657TIP3    H141386   6.124   0.096  15.775  0.4982  0.9400  1.1583
 6657TIP3    H241387   6.218   0.084  15.893  2.1293 -1.3607 -0.3385
 6658TIP3   OH241388   3.742   5.212  12.117  0.0912  0.0243 -0.2069
 6658TIP3    H141389   3.657   5.255  12.126 -1.1889 -2.0763 -1.7945
 6658TIP3    H241390   3.759   5.174  12.203 -2.0418 -2.0550 -0.6410
 6659TIP3   OH241391   2.000   4.642  11.025  0.6091  0.2475 -0.2653
 6659TIP3    H141392   2.030   4.663  10.936  0.0143  0.5949 -0.3931
 6659TIP3    H241393   1.942   4.566  11.014 -1.4098  1.7698 -0.5272
 6660TIP3   OH241394   2.428   0.959  14.421  0.5460 -0.2068 -0.0914
 6660TIP3    H141395   2.390   0.881  14.381  0.4880 -1.5107  2.4307
 6660TIP3    H241396   2.501   0.983  14.363  0.9426 -2.4701 -0.5680
 6661TIP3   OH241397   6.332   4.471  14.512  0.4340  0.5899  0.1146
 6661TIP3    H141398   6.274   4.399  14.489  2.2924 -0.9428  0.0675
 6661TIP3    H241399   6.346   4.463  14.606  0.8608  0.7142  0.0678
 6662TIP3   OH241400   5.044   4.419   4.259 -0.4957 -0.0726 -0.1687
 6662TIP3    H141401   5.084   4.354   4.317 -0.0749 -0.5555 -0.9974
 6662TIP3    H241402   5.107   4.431   4.189 -1.0436  0.4466 -0.5743
 6663TIP3   OH241403   2.986   4.429  12.723  0.1554  0.1998 -0.3213
 6663TIP3    H141404   3.030   4.396  12.645 -2.0593 -0.5542 -1.2786
 6663TIP3    H241405   2.979   4.352  12.780 -0.4607  0.1820 -0.4222
 6664TIP3   OH241406   0.845   5.300  16.431 -0.7144 -0.1988 -0.0879
 6664TIP3    H141407   0.916   5.297  16.495 -1.9714 -1.7165  1.2586
 6664TIP3    H241408   0.888   5.275  16.348  0.5940  0.2498  0.4364
 6665TIP3   OH241409   3.874   3.393  11.070  0.4896  0.3977 -0.2339
 6665TIP3    H141410   3.963   3.425  11.053  0.7234  0.8872  1.8764
 6665TIP3    H241411   3.860   3.409  11.163 -1.8579  0.3856 -0.5804
 6666TIP3   OH241412   5.449   5.824  16.422  0.0248 -0.1363 -0.2577
 6666TIP3    H141413   5.527   5.878  16.433 -1.2261  2.0845 -1.9113
 6666TIP3    H241414   5.467   5.771  16.344  0.0240  0.1168 -0.4294
 6667TIP3   OH241415   3.246   0.132  12.794  0.0554 -0.2849 -0.2930
 6667TIP3    H141416   3.314   0.073  12.761  2.0780  0.2977  2.6261
 6667TIP3    H241417   3.194   0.078  12.854 -1.2878 -0.3869 -1.5223
 6668TIP3   OH241418   3.338   3.666   3.825 -0.6263 -0.4386 -0.1235
 6668TIP3    H141419   3.370   3.578   3.842  1.5141  0.3797  0.1687
 6668TIP3    H241420   3.325   3.669   3.730 -1.2048 -1.2052 -0.0793
 6669TIP3   OH241421   1.423   5.824   4.617  0.6295 -0.1844 -0.1932
 6669TIP3    H141422   1.496   5.870   4.657 -1.3064  0.5514  2.6282
 6669TIP3    H241423   1.397   5.759   4.682  0.0538 -1.8286 -2.0110
 6670TIP3   OH241424   4.644   0.869  11.927 -0.2394 -0.1620  0.3342
 6670TIP3    H141425   4.639   0.955  11.886  1.1784 -0.5331 -0.6724
 6670TIP3    H241426   4.576   0.870  11.995 -0.7458  1.4600 -0.1784
 6671TIP3   OH241427   6.476   1.660  14.714 -0.0475 -0.4268  0.5202
 6671TIP3    H141428   6.476   1.756  14.714  1.8446 -0.4179  0.7069
 6671TIP3    H241429   6.477   1.637  14.621  0.5143 -0.2593  0.4821
 6672TIP3   OH241430   4.714   6.223  14.061 -0.2732 -0.2809  0.4941
 6672TIP3    H141431   4.702   6.150  13.999  0.3004  0.1328 -0.1060
 6672TIP3    H241432   4.780   6.191  14.122  0.8693  0.1636 -0.4725
 6673TIP3   OH241433   4.781   4.676  14.337  0.2007  0.2903 -0.0368
 6673TIP3    H141434   4.692   4.658  14.367  0.3726 -0.2623  0.1462
 6673TIP3    H241435   4.783   4.771  14.326 -1.1507  0.0888 -2.4155
 6674TIP3   OH241436   0.162   0.286  14.797  0.4961  0.6728 -0.0859
 6674TIP3    H141437   0.178   0.219  14.863 -1.4833  1.1479  0.9057
 6674TIP3    H241438   0.223   0.356  14.819  0.1743  0.6324  0.9628
 6675TIP3   OH241439   2.832   2.769  11.522 -0.2511  0.0460  0.3863
 6675TIP3    H141440   2.745   2.754  11.485 -0.2443 -1.1563  0.8191
 6675TIP3    H241441   2.827   2.732  11.610  0.9407 -0.7480  0.1273
 6676TIP3   OH241442   4.645   0.569   4.797 -0.5150  0.0242 -0.0939
 6676TIP3    H141443   4.704   0.560   4.722 -0.6229  0.0181 -0.1771
 6676TIP3    H241444   4.569   0.616   4.763  0.3004  1.8188  0.4584
 6677TIP3   OH241445   4.852   4.480  14.160  0.0149  0.0404 -0.0681
 6677TIP3    H141446   4.820   4.539  14.229 -0.4795 -1.0293  0.6269
 6677TIP3    H241447   4.791   4.406  14.161 -0.3895  0.3063 -2.0958
 6678TIP3   OH241448   6.596   2.062  14.315 -0.2867 -0.1957 -0.2678
 6678TIP3    H141449   6.622   2.056  14.407 -0.0733  0.6928 -0.2613
 6678TIP3    H241450   6.528   2.130  14.314  0.8481  0.9641 -0.9904
 6679TIP3   OH241451   3.802   1.636  11.737  0.1450  0.6141  0.1341
 6679TIP3    H141452   3.733   1.579  11.703  1.4457 -0.8291 -0.1110
 6679TIP3    H241453   3.827   1.597  11.821 -0.6484  2.2224  1.1435
 6680TIP3   OH241454   1.662   4.127  16.921  0.1743  0.3061 -0.0249
 6680TIP3    H141455   1.706   4.066  16.981  0.1651  0.5075  0.1855
 6680TIP3    H241456   1.732   4.163  16.867  0.1042 -0.3623 -0.5770
 6681TIP3   OH241457   6.443   3.876   4.125  0.4811 -0.1214  0.3575
 6681TIP3    H141458   6.454   3.784   4.104 -1.4708 -0.7835  2.1161
 6681TIP3    H241459   6.350   3.885   4.146  0.3645  2.5063 -1.0619
 6682TIP3   OH241460   3.272   2.727   3.444  0.4280  0.1066  0.4054
 6682TIP3    H141461   3.178   2.714   3.455  0.6259 -0.8233  0.9926
 6682TIP3    H241462   3.292   2.687   3.359  0.6839 -1.7343  1.3064
 6683TIP3   OH241463   4.657   6.008  11.908 -0.0800 -0.7454  0.2747
 6683TIP3    H141464   4.690   5.919  11.914  0.5857 -0.5296 -0.1709
 6683TIP3    H241465   4.715   6.060  11.964  1.5534 -0.0361 -2.0117
 6684TIP3   OH241466   0.965   4.462   0.148 -0.0932 -0.2025 -0.4216
 6684TIP3    H141467   0.901   4.424   0.208  0.5613  0.9942  1.0680
 6684TIP3    H241468   0.939   4.430   0.062 -1.7254 -1.0353  0.3558
 6685TIP3   OH241469   0.634   5.752  15.843  0.0089  0.2421 -0.0246
 6685TIP3    H141470   0.585   5.832  15.862  0.8864  0.2040  2.6444
 6685TIP3    H241471   0.649   5.712  15.928  2.7144 -0.9113 -0.9637
 6686TIP3   OH241472   0.744   4.777  12.016 -0.3450 -0.1402 -0.3830
 6686TIP3    H141473   0.664   4.828  12.029 -0.5061 -0.6377  0.6004
 6686TIP3    H241474   0.777   4.762  12.104 -0.2618 -1.6869 -0.6621
 6687TIP3   OH241475   2.148   3.082  16.560  0.3115  0.0508  0.3491
 6687TIP3    H141476   2.059   3.115  16.555  0.2240 -0.1859  0.3500
 6687TIP3    H241477   2.146   2.998  16.514  0.0853 -0.8980  2.0500
 6688TIP3   OH241478   4.266   5.823   5.225  0.1564  0.2433  0.0090
 6688TIP3    H141479   4.289   5.891   5.162  0.3663 -1.6343 -2.0023
 6688TIP3    H241480   4.298   5.741   5.185  1.9412 -0.8103  3.3687
 6689TIP3   OH241481   6.701   4.875   4.059  0.5523  0.0181 -0.4943
 6689TIP3    H141482   6.741   4.957   4.089  0.2689  1.0632 -2.7918
 6689TIP3    H241483   6.773   4.828   4.016  0.2121  0.1176 -1.1798
 6690TIP3   OH241484   1.803   1.861   4.421 -0.1100  0.3284 -0.4485
 6690TIP3    H141485   1.708   1.866   4.430 -0.1527  0.5974 -0.9623
 6690TIP3    H241486   1.837   1.923   4.485 -0.3520  1.4793 -1.4141
 6691TIP3   OH241487   1.720   3.809  14.289 -0.2383 -0.0348 -0.2626
 6691TIP3    H141488   1.776   3.749  14.337 -1.4507 -0.1068  1.0957
 6691TIP3    H241489   1.779   3.858  14.233  1.1724 -0.0616  1.1885
 6692TIP3   OH241490   6.067   0.100   3.562  0.0024  0.0128  0.1479
 6692TIP3    H141491   6.114   0.018   3.574  0.7721  0.5905  1.1449
 6692TIP3    H241492   5.976   0.074   3.548 -0.0024 -0.9431  1.8611
 6693TIP3   OH241493   3.060   4.385  13.534  0.4056 -0.7760 -0.3832
 6693TIP3    H141494   3.098   4.410  13.449  2.7202 -0.3787  0.7323
 6693TIP3    H241495   2.967   4.406  13.525  0.4546 -1.4541 -3.0833
 6694TIP3   OH241496   6.394   1.418  12.200 -0.1068 -0.3614  0.1105
 6694TIP3    H141497   6.468   1.390  12.147 -0.9454 -1.1369 -0.6846
 6694TIP3    H241498   6.330   1.450  12.137 -0.9317 -0.8539  0.6862
 6695TIP3   OH241499   0.040   4.377   2.003  0.4971 -0.0598 -0.1841
 6695TIP3    H141500   0.107   4.373   2.071  1.0275 -2.5745 -0.8239
 6695TIP3    H241501   0.088   4.399   1.923  0.2909  0.0320 -0.2828
 6696TIP3   OH241502   4.781   2.173   3.361  0.1625 -0.0432  0.6520
 6696TIP3    H141503   4.769   2.178   3.456 -1.2491 -0.3187  0.4899
 6696TIP3    H241504   4.699   2.137   3.328  1.8836 -3.3015 -0.3485
 6697TIP3   OH241505   2.688   0.354  16.935 -0.3624  0.1135  0.7037
 6697TIP3    H141506   2.647   0.321  16.855  1.9223  0.7475 -0.7722
 6697TIP3    H241507   2.710   0.276  16.985 -0.2544 -0.3541 -0.0766
 6698TIP3   OH241508   1.636   0.957  11.785  0.0348  0.0629  0.7471
 6698TIP3    H141509   1.599   0.940  11.871 -0.3382 -2.2552  0.1636
 6698TIP3    H241510   1.731   0.961  11.799 -0.0898  0.7582  1.4117
 6699TIP3   OH241511   6.208   3.491  15.574  0.2485 -0.3171 -0.3160
 6699TIP3    H141512   6.281   3.516  15.516  0.9404 -0.2450  0.5777
 6699TIP3    H241513   6.137   3.468  15.514  0.3866  1.4241 -1.2086
 6700TIP3   OH241514   6.723   5.073  15.911  0.4909 -0.4461 -0.5415
 6700TIP3    H141515   6.664   5.145  15.890 -0.8135 -1.6852 -1.1611
 6700TIP3    H241516   6.786   5.111  15.972  0.1420  1.3574 -1.2680
 6701TIP3   OH241517   5.951   2.428  14.179 -0.4572  0.1284  0.0156
 6701TIP3    H141518   5.905   2.449  14.097 -1.4003  0.1972  0.5588
 6701TIP3    H241519   5.951   2.510  14.228  0.5417  0.2129 -0.1128
 6702TIP3   OH241520   2.252   4.802   0.716 -0.1237  0.1874 -0.0433
 6702TIP3    H141521   2.286   4.724   0.672  0.3349 -0.1455  0.8850
 6702TIP3    H241522   2.160   4.806   0.691  0.0530 -0.1778 -0.7717
 6703TIP3   OH241523   5.529   2.631   0.629 -0.8421 -0.0374 -0.0270
 6703TIP3    H141524   5.580   2.640   0.549 -0.7908  2.3176  0.2159
 6703TIP3    H241525   5.468   2.560   0.611  1.4423 -1.8355 -0.8849
 6704TIP3   OH241526   5.964   5.329  14.412  0.2440  0.1304 -0.2061
 6704TIP3    H141527   5.896   5.272  14.447  0.6743  1.3361  2.7067
 6704TIP3    H241528   6.044   5.277  14.420  0.2257  0.1160 -0.1190
 6705TIP3   OH241529   0.965   5.916   0.029  0.2417 -0.2083  0.0599
 6705TIP3    H141530   0.939   5.835   0.073 -1.2405  0.4147  0.3532
 6705TIP3    H241531   1.061   5.916   0.034  0.1557 -0.4232  2.8575
 6706TIP3   OH241532   0.160   6.487  16.972  0.5766  0.2994  0.1660
 6706TIP3    H141533   0.104   6.465  16.898 -0.4998 -0.2202  1.1138
 6706TIP3    H241534   0.211   6.563  16.943  1.0694 -0.6752 -1.5349
 6707TIP3   OH241535   2.033   0.581  12.300 -0.1760 -0.5354 -0.1784
 6707TIP3    H141536   2.049   0.492  12.269 -0.2940 -0.4178 -0.5853
 6707TIP3    H241537   2.004   0.629  12.222  1.1504  0.1791 -0.2453
 6708TIP3   OH241538   4.610   0.570   5.569  0.3583 -0.2953 -0.1945
 6708TIP3    H141539   4.684   0.630   5.579  0.9602 -1.1767  0.8182
 6708TIP3    H241540   4.630   0.520   5.490  1.5138 -1.4249  0.7888
 6709TIP3   OH241541   1.424   3.450  14.689 -0.2630 -0.1187  0.4635
 6709TIP3    H141542   1.474   3.523  14.653 -1.0602  0.5591  0.7435
 6709TIP3    H241543   1.345   3.489  14.725 -0.7278 -1.1234  0.5616
 6710TIP3   OH241544   5.477   6.254  17.113 -0.0317  0.1252 -0.4198
 6710TIP3    H141545   5.496   6.292  17.199  4.3365 -0.0812 -1.2008
 6710TIP3    H241546   5.419   6.180  17.132  0.6628  0.2390  2.3156
 6711TIP3   OH241547   0.287   3.259   2.827 -0.4219  0.7885 -0.0341
 6711TIP3    H141548   0.214   3.207   2.860  1.3615 -0.9729  1.2846
 6711TIP3    H241549   0.246   3.334   2.785 -2.9373  0.5198  1.8130
 6712TIP3   OH241550   6.376   5.642  14.909  0.0060 -0.5037 -0.3628
 6712TIP3    H141551   6.311   5.679  14.969  1.3851 -0.3887  1.0973
 6712TIP3    H241552   6.353   5.678  14.823 -0.7489  0.9940  0.4505
 6713TIP3   OH241553   0.605   0.407  11.519 -0.6136 -0.3068  0.0984
 6713TIP3    H141554   0.546   0.337  11.491 -0.9016  0.4836 -1.2840
 6713TIP3    H241555   0.692   0.377  11.493 -0.6391 -0.5224  0.2567
 6714TIP3   OH241556   3.848   1.512  14.490  0.0897 -0.2383  0.2894
 6714TIP3    H141557   3.851   1.492  14.584 -0.0088 -0.2906  0.2822
 6714TIP3    H241558   3.796   1.592  14.484 -1.4086 -1.2099  0.1199
 6715TIP3   OH241559   1.624   5.620   4.340 -0.8102 -0.2545 -0.8641
 6715TIP3    H141560   1.583   5.626   4.254 -0.4157  0.8085 -0.9968
 6715TIP3    H241561   1.714   5.592   4.322 -0.3888  1.0696 -0.9183
 6716TIP3   OH241562   5.216   6.249   1.079 -0.0063 -0.1214  0.8780
 6716TIP3    H141563   5.211   6.202   1.162 -0.5364 -1.2132  0.2401
 6716TIP3    H241564   5.143   6.215   1.028  1.8214 -1.4001 -0.9918
 6717TIP3   OH241565   3.662   3.495  15.085 -0.0132  0.1424  0.5287
 6717TIP3    H141566   3.582   3.521  15.038 -0.2308  0.5849  1.1436
 6717TIP3    H241567   3.721   3.569  15.073  0.1790 -0.0356  0.3748
 6718TIP3   OH241568   2.657   2.676  12.026 -0.1441 -0.5901  0.0215
 6718TIP3    H141569   2.654   2.709  11.936  1.7734  0.1051  0.1868
 6718TIP3    H241570   2.660   2.755  12.080  0.0035 -1.0144  0.6283
 6719TIP3   OH241571   4.740   1.567  13.223  0.1737  0.0707 -0.2557
 6719TIP3    H141572   4.666   1.520  13.185 -1.1447  1.2563  0.7692
 6719TIP3    H241573   4.804   1.499  13.244 -0.2026 -0.8627 -2.0700
 6720TIP3   OH241574   4.684   2.258   0.207 -0.0901 -0.2486 -0.2845
 6720TIP3    H141575   4.661   2.192   0.142 -2.6015  2.3240 -2.1120
 6720TIP3    H241576   4.742   2.319   0.161  0.0002  0.3254  0.5634
 6721TIP3   OH241577   1.977   3.264  14.843  0.2541  0.4056  0.2964
 6721TIP3    H141578   2.060   3.220  14.828  0.7664  1.2277  0.6487
 6721TIP3    H241579   1.942   3.281  14.755  0.6745  0.4494  0.1380
 6722TIP3   OH241580   3.665   2.199   1.348  0.3119  0.2494  0.0769
 6722TIP3    H141581   3.574   2.182   1.326 -0.4174  2.3095  1.3135
 6722TIP3    H241582   3.712   2.194   1.265 -0.6676 -2.2611 -0.3680
 6723TIP3   OH241583   1.345   3.990   0.115 -0.1177 -0.0742  0.0303
 6723TIP3    H141584   1.312   4.076   0.091  0.5703 -0.0978 -1.0344
 6723TIP3    H241585   1.436   3.990   0.085  0.4084 -0.5497  1.5757
 6724TIP3   OH241586   1.263   3.776   0.279  0.5699  0.4703  0.0157
 6724TIP3    H141587   1.219   3.833   0.341  0.1796 -1.1510  1.2591
 6724TIP3    H241588   1.299   3.835   0.213 -1.6432  1.9786  0.1209
 6725TIP3   OH241589   0.662   2.692  14.459 -0.7140 -0.2574  0.2433
 6725TIP3    H141590   0.736   2.727  14.409  0.8015 -0.9732  1.9493
 6725TIP3    H241591   0.603   2.767  14.469  0.8968  0.9477  0.9157
 6726TIP3   OH241592   2.256   2.170   2.160  0.8143  0.5819  0.2327
 6726TIP3    H141593   2.178   2.129   2.122  0.7518 -1.4516  2.4764
 6726TIP3    H241594   2.275   2.119   2.239  2.9232  2.6207  1.1172
 6727TIP3   OH241595   2.337   0.404  14.705 -0.1642  0.4556  0.0841
 6727TIP3    H141596   2.380   0.330  14.746 -1.0702  0.7092  1.5389
 6727TIP3    H241597   2.324   0.377  14.614  0.6928 -0.6326  0.2755
 6728TIP3   OH241598   1.229   1.165  13.946 -0.2272  0.3209  0.5812
 6728TIP3    H141599   1.215   1.172  14.041  2.5800  0.2889  1.0252
 6728TIP3    H241600   1.256   1.075  13.932 -1.2741  0.1433 -0.3600
 6729TIP3   OH241601   4.491   3.385  16.022 -0.0412  0.1209 -0.7381
 6729TIP3    H141602   4.478   3.463  15.969 -0.6854  0.8768  0.5010
 6729TIP3    H241603   4.453   3.407  16.107  3.4759 -0.0523  0.9457
 6730TIP3   OH241604   2.442   2.766   1.995 -0.0486 -0.2877  0.1882
 6730TIP3    H141605   2.347   2.772   1.989 -0.3696 -3.1247  1.3130
 6730TIP3    H241606   2.475   2.846   1.955 -2.9502  1.5737  1.4039
 6731TIP3   OH241607   4.695   0.449  16.355  0.5383 -0.1262  0.0541
 6731TIP3    H141608   4.640   0.379  16.390  1.7691 -1.6987 -1.0499
 6731TIP3    H241609   4.782   0.432  16.392  1.2825 -0.3349 -1.7310
 6732TIP3   OH241610   1.622   5.166  15.548 -0.3601  0.0251  0.1415
 6732TIP3    H141611   1.589   5.117  15.472 -1.2446 -0.0837  0.5796
 6732TIP3    H241612   1.548   5.222  15.574 -0.6913 -1.1915  1.9646
 6733TIP3   OH241613   5.202   1.089  16.618 -0.5725  0.0640 -0.1964
 6733TIP3    H141614   5.216   1.181  16.593  0.6460  0.1672  0.8416
 6733TIP3    H241615   5.183   1.092  16.711 -0.4430 -0.7518 -0.1415
 6734TIP3   OH241616   5.669   6.363  11.428 -0.1069  0.6193 -0.2541
 6734TIP3    H141617   5.704   6.437  11.378  0.5579  0.5557  0.1143
 6734TIP3    H241618   5.575   6.380  11.434 -0.0898  0.9705 -0.9456
 6735TIP3   OH241619   3.410   1.496  14.990 -0.4769 -0.0457  0.2117
 6735TIP3    H141620   3.480   1.545  14.947  0.4457 -1.3757  0.1852
 6735TIP3    H241621   3.439   1.487  15.081 -0.9379 -0.0097  0.3663
 6736TIP3   OH241622   4.432   5.343  11.416 -0.2896  0.5236  0.0224
 6736TIP3    H141623   4.373   5.269  11.401  1.1157 -0.9286  1.4937
 6736TIP3    H241624   4.517   5.303  11.433  0.9330  2.5534 -1.0508
 6737TIP3   OH241625   1.464   3.102   2.913 -0.8317 -0.0226  0.4935
 6737TIP3    H141626   1.546   3.144   2.886  0.3518 -1.7430  1.3243
 6737TIP3    H241627   1.395   3.163   2.885  0.6637  0.9436 -1.1685
 6738TIP3   OH241628   2.575   4.059  10.588  0.6720 -0.6367 -0.0543
 6738TIP3    H141629   2.612   3.971  10.599  0.4591 -0.6646  0.4813
 6738TIP3    H241630   2.483   4.044  10.568  0.9047 -0.5631 -1.2011
 6739TIP3   OH241631   6.213   3.358  14.494  0.5094 -0.0910  0.6606
 6739TIP3    H141632   6.130   3.351  14.448  0.2871 -1.3319  1.2387
 6739TIP3    H241633   6.192   3.403  14.576  0.6010  0.5470  0.3379
 6740TIP3   OH241634   1.660   3.433  16.764 -0.1239  0.2632  0.2109
 6740TIP3    H141635   1.742   3.426  16.811 -0.2073 -0.7606  0.2280
 6740TIP3    H241636   1.593   3.445  16.831 -0.2269 -1.0554  0.3600
 6741TIP3   OH241637   4.195   2.758  15.926  0.0503  0.4121  0.9400
 6741TIP3    H141638   4.185   2.853  15.920 -1.4408  0.2925  1.5788
 6741TIP3    H241639   4.284   2.746  15.960  1.2065  1.5109 -1.5790
 6742TIP3   OH241640   0.310   1.754  13.781  0.0118 -0.0210 -0.0306
 6742TIP3    H141641   0.315   1.808  13.703 -1.9368  0.0448 -0.1350
 6742TIP3    H241642   0.300   1.816  13.853 -1.0126 -0.1812 -0.0267
 6743TIP3   OH241643   0.229   6.566  14.310 -0.3315  0.1397  0.3000
 6743TIP3    H141644   0.257   6.595  14.397  2.3697  1.5408 -0.9538
 6743TIP3    H241645   0.246   6.641  14.253 -0.8983 -1.1724 -1.6487
 6744TIP3   OH241646   6.055   6.665  16.934 -0.2998  0.1613 -0.4508
 6744TIP3    H141647   6.044   6.750  16.975  0.1679 -0.2132  0.4497
 6744TIP3    H241648   5.967   6.639  16.907 -1.0813 -0.9043  2.9091
 6745TIP3   OH241649   6.312   6.144  16.003  0.3237  0.2907  0.3958
 6745TIP3    H141650   6.341   6.111  16.088  0.2798 -0.6113  0.0652
 6745TIP3    H241651   6.352   6.231  15.996  1.1376 -0.0378  0.9116
 6746TIP3   OH241652   0.948   1.461   1.390  0.1122  0.5221 -0.4129
 6746TIP3    H141653   1.020   1.458   1.453  0.3563  0.8115 -0.6735
 6746TIP3    H241654   0.928   1.555   1.383  0.7343  0.5798 -1.4972
 6747TIP3   OH241655   6.287   3.502  13.178  0.2644 -0.0677 -0.6672
 6747TIP3    H141656   6.357   3.477  13.117 -0.0116  0.2856 -1.1356
 6747TIP3    H241657   6.242   3.420  13.198  0.3616 -0.1861 -0.9368
 6748TIP3   OH241658   3.268   5.236  14.746  0.7269 -0.2159  0.4562
 6748TIP3    H141659   3.361   5.240  14.770  0.7412  0.7912  0.2511
 6748TIP3    H241660   3.255   5.309  14.686 -0.5286  0.5445  1.6223
 6749TIP3   OH241661   4.662   6.150  12.232  0.2284  0.4903 -1.1455
 6749TIP3    H141662   4.741   6.173  12.184  1.3750  0.9074  0.8705
 6749TIP3    H241663   4.678   6.061  12.265  1.4660  1.9179  2.3526
 6750TIP3   OH241664   5.896   6.187   0.630 -0.3431  0.5024 -0.0790
 6750TIP3    H141665   5.964   6.246   0.663 -1.4456  1.5589  0.3496
 6750TIP3    H241666   5.852   6.237   0.561  0.1366 -0.6592 -1.2490
 6751TIP3   OH241667   4.803   4.384  12.279 -0.0499  0.4251 -0.0454
 6751TIP3    H141668   4.866   4.386  12.207  0.9992 -1.1235  0.7957
 6751TIP3    H241669   4.794   4.475  12.305  1.5303  0.7293 -0.4743
 6752TIP3   OH241670   0.712   1.207   2.431  0.3763 -0.1015 -0.5523
 6752TIP3    H141671   0.632   1.163   2.405  0.4925 -1.2418  0.9327
 6752TIP3    H241672   0.718   1.284   2.374 -1.6261 -0.1431 -0.8308
 6753TIP3   OH241673   4.555   5.412  13.513  0.4546 -0.1403 -0.5558
 6753TIP3    H141674   4.470   5.452  13.493  0.5519  0.3913  0.1033
 6753TIP3    H241675   4.618   5.484  13.509  0.5338 -0.0898  1.2649
 6754TIP3   OH241676   4.639   2.820  13.939 -0.0548  0.0774  0.1675
 6754TIP3    H141677   4.657   2.726  13.936  0.8853  0.2270  0.8917
 6754TIP3    H241678   4.716   2.858  13.982 -0.7017  1.1086  0.4322
 6755TIP3   OH241679   6.290   4.660   2.761  0.0776  0.4501  0.3287
 6755TIP3    H141680   6.308   4.566   2.765  1.3905  0.6770  0.0671
 6755TIP3    H241681   6.243   4.672   2.679  0.6510  0.1335 -0.0505
 6756TIP3   OH241682   5.823   4.983   3.506  0.4102 -0.1039 -0.3909
 6756TIP3    H141683   5.848   5.067   3.467 -1.6121  0.1998 -1.1400
 6756TIP3    H241684   5.740   5.002   3.551  1.0944 -1.1903  1.3588
 6757TIP3   OH241685   3.035   5.517  14.398  0.5900  0.1200  0.4152
 6757TIP3    H141686   3.007   5.490  14.485  0.3304 -0.4999  0.1380
 6757TIP3    H241687   3.082   5.600  14.413  1.6091 -0.6073  1.2971
 6758TIP3   OH241688   1.411   3.811  12.133  0.1582 -0.4083 -0.3509
 6758TIP3    H141689   1.486   3.781  12.185  0.6532 -1.4690 -1.6448
 6758TIP3    H241690   1.338   3.757  12.162  0.3105 -0.6240 -0.3671
 6759TIP3   OH241691   3.301   5.176   5.482  0.0836 -0.5447 -0.2744
 6759TIP3    H141692   3.385   5.223   5.483 -0.3896  0.3111  0.0452
 6759TIP3    H241693   3.318   5.095   5.530  1.4359 -1.6451 -2.5263
 6760TIP3   OH241694   3.651   3.965  10.818  0.1961 -0.4948 -0.1899
 6760TIP3    H141695   3.739   4.001  10.801 -1.1860  2.8678 -0.6373
 6760TIP3    H241696   3.592   4.019  10.766 -2.1908 -2.7506  0.0519
 6761TIP3   OH241697   1.841   4.715   3.269 -0.7687 -0.3042 -0.6146
 6761TIP3    H141698   1.896   4.637   3.272 -0.5401 -0.0956  1.6044
 6761TIP3    H241699   1.901   4.788   3.278 -1.1671  0.0427 -0.7522
 6762TIP3   OH241700   1.183   1.833  13.957  0.2671 -0.2204 -0.1207
 6762TIP3    H141701   1.225   1.860  13.875  0.0782  0.9532  0.1644
 6762TIP3    H241702   1.199   1.739  13.962  0.0822 -0.3461 -1.6304
 6763TIP3   OH241703   6.528   4.806   2.788 -0.1010  0.0967 -0.2951
 6763TIP3    H141704   6.449   4.753   2.794  1.0152 -1.4547  1.1102
 6763TIP3    H241705   6.515   4.877   2.852 -0.7962  0.4609 -0.8363
 6764TIP3   OH241706   3.556   0.273  11.083 -0.0342  0.3194  0.0166
 6764TIP3    H141707   3.641   0.253  11.045 -0.2739  0.6701 -0.7140
 6764TIP3    H241708   3.525   0.350  11.035 -0.1616  1.0198  1.2040
 6765TIP3   OH241709   4.116   3.260   2.160  0.0209  0.1144 -0.4302
 6765TIP3    H141710   4.115   3.350   2.195 -0.0858  0.2994 -0.8990
 6765TIP3    H241711   4.093   3.205   2.234  0.4485  0.4482 -0.0478
 6766TIP3   OH241712   2.870   0.843   0.310 -0.2488 -0.2723 -0.2550
 6766TIP3    H141713   2.809   0.781   0.271 -0.7803  0.7222 -1.0429
 6766TIP3    H241714   2.823   0.878   0.386 -0.7338  0.6032 -0.9475
 6767TIP3   OH241715   3.819   3.433  13.156  0.1619  0.5768 -0.6324
 6767TIP3    H141716   3.751   3.456  13.092 -0.8884  0.1112  0.3143
 6767TIP3    H241717   3.821   3.507  13.217  0.6140  0.6586 -0.7442
 6768TIP3   OH241718   0.136   0.509  12.761  0.1158 -0.7269  0.1270
 6768TIP3    H141719   0.175   0.572  12.821  0.9216 -1.4446  0.3803
 6768TIP3    H241720   0.096   0.443  12.818 -1.0853 -0.2347 -0.1355
 6769TIP3   OH241721   5.376   5.575  14.202  0.0267 -0.6197  0.0647
 6769TIP3    H141722   5.372   5.574  14.106 -0.3252  0.0008  0.0712
 6769TIP3    H241723   5.384   5.483  14.227 -0.6584 -0.8410 -0.5258
 6770TIP3   OH241724   4.841   2.608  14.027  0.3372 -0.0067  0.1335
 6770TIP3    H141725   4.814   2.568  14.110  0.5883 -1.2127 -0.3608
 6770TIP3    H241726   4.909   2.671  14.052  1.0121 -0.9698  0.7620
 6771TIP3   OH241727   4.763   4.134  13.818  0.0605 -0.1723  0.3293
 6771TIP3    H141728   4.708   4.130  13.740 -1.3098  0.1310  1.2386
 6771TIP3    H241729   4.847   4.098  13.791 -0.9590 -1.7504 -0.7975
 6772TIP3   OH241730   3.054   0.454  12.344 -0.0658 -0.2350  0.2559
 6772TIP3    H141731   3.038   0.388  12.412 -1.4312 -0.1429  0.0366
 6772TIP3    H241732   3.149   0.467  12.346  0.2706 -2.4277  0.0993
 6773TIP3   OH241733   5.805   2.191  15.427 -0.5340 -0.5636  0.6075
 6773TIP3    H141734   5.805   2.141  15.509  1.0464 -0.8106  0.4801
 6773TIP3    H241735   5.839   2.277  15.452 -1.2262 -0.2334  0.4275
 6774TIP3   OH241736   4.643   4.232  16.503  0.0720 -0.2909 -0.0490
 6774TIP3    H141737   4.586   4.242  16.426  0.6312  1.5684 -0.2469
 6774TIP3    H241738   4.582   4.229  16.577 -0.4354 -1.4599 -0.4866
 6775TIP3   OH241739   6.290   2.662   5.671 -0.0238 -0.2812  0.7242
 6775TIP3    H141740   6.194   2.658   5.671  0.0035 -1.1667 -0.7721
 6775TIP3    H241741   6.311   2.718   5.746 -1.7090 -0.0433  1.0482
 6776TIP3   OH241742   1.152   4.882  16.826 -0.1998  0.0761  0.4834
 6776TIP3    H141743   1.207   4.958  16.807  1.9746 -1.8286 -1.1887
 6776TIP3    H241744   1.214   4.814  16.851 -1.9841 -1.5541  0.5811
 6777TIP3   OH241745   6.158   5.330  12.900 -0.0994 -0.2568 -0.4674
 6777TIP3    H141746   6.153   5.320  12.995 -0.7273  1.6174 -0.2846
 6777TIP3    H241747   6.234   5.385  12.885 -0.3899 -0.0006 -1.0088
 6778TIP3   OH241748   6.667   6.616   5.067 -0.0966 -0.3102 -0.2203
 6778TIP3    H141749   6.624   6.689   5.111 -1.3831 -0.5603 -1.0473
 6778TIP3    H241750   6.607   6.542   5.077 -0.9289 -0.1259 -3.2224
 6779TIP3   OH241751   0.391   0.968   4.014  0.1372  0.0566 -0.0728
 6779TIP3    H141752   0.436   1.026   4.075  0.8348 -1.6115  1.0396
 6779TIP3    H241753   0.460   0.911   3.980 -0.9206 -1.8326  0.8473
 6780TIP3   OH241754   0.577   5.901  12.212  0.2631  0.4567 -1.0786
 6780TIP3    H141755   0.635   5.877  12.139 -1.2172 -0.0010 -2.1242
 6780TIP3    H241756   0.507   5.837  12.208 -0.4125  1.1292  0.0644
 6781TIP3   OH241757   5.862   6.033   3.721 -0.1123 -0.0579 -0.5447
 6781TIP3    H141758   5.883   6.074   3.805  2.3762  0.9876 -1.6428
 6781TIP3    H241759   5.767   6.046   3.712 -0.1628  1.1683  1.3779
 6782TIP3   OH241760   1.594   2.597   5.702  0.6166  1.1374  0.1483
 6782TIP3    H141761   1.642   2.520   5.731 -1.2229  0.0215  0.3099
 6782TIP3    H241762   1.524   2.608   5.766  0.8127  2.9260  0.1007
 6783TIP3   OH241763   3.584   5.802   1.773  0.1921 -0.3628  0.3501
 6783TIP3    H141764   3.643   5.876   1.784 -0.6282  0.3842 -0.2175
 6783TIP3    H241765   3.549   5.786   1.860  1.0972 -0.7032  0.6587
 6784TIP3   OH241766   6.580   3.012  13.252 -0.3456  0.5357  0.1771
 6784TIP3    H141767   6.504   3.000  13.196 -0.0463 -0.8450  0.0520
 6784TIP3    H241768   6.654   3.021  13.192 -0.5079  2.8388  0.2694
 6785TIP3   OH241769   1.478   4.612   3.450  0.5273  0.5206  0.2520
 6785TIP3    H141770   1.450   4.692   3.406  2.2187 -0.1162 -2.1591
 6785TIP3    H241771   1.401   4.556   3.450  0.2257  0.9141 -1.1239
 6786TIP3   OH241772   2.051   3.831   3.149  0.5569  0.4523  0.4748
 6786TIP3    H141773   2.076   3.804   3.060  0.4078 -0.9763  0.8589
 6786TIP3    H241774   2.113   3.900   3.171  1.0703  0.2974 -0.4606
 6787TIP3   OH241775   4.586   3.245  12.860 -0.4492  0.3827 -0.4942
 6787TIP3    H141776   4.566   3.331  12.824 -1.7086 -0.0801 -0.9420
 6787TIP3    H241777   4.559   3.183  12.792 -0.6223 -0.4069  0.2735
 6788TIP3   OH241778   0.919   1.876  14.513  0.2358 -0.6617 -0.2908
 6788TIP3    H141779   0.959   1.913  14.435 -0.5694 -0.8005 -0.7779
 6788TIP3    H241780   0.877   1.951  14.556 -0.7703 -0.8712 -0.8922
 6789TIP3   OH241781   3.576   6.116   3.134  0.1058 -0.0032 -0.5075
 6789TIP3    H141782   3.656   6.106   3.185  0.0877 -1.5261 -0.7423
 6789TIP3    H241783   3.527   6.035   3.150 -1.2461  0.7796 -0.6045
 6790TIP3   OH241784   4.277   4.096   2.135  0.4011  0.0508  0.4855
 6790TIP3    H141785   4.301   4.188   2.132 -0.2228  0.1663 -1.0892
 6790TIP3    H241786   4.297   4.062   2.048 -0.7545 -0.9533  0.5929
 6791TIP3   OH241787   3.721   0.520  17.029  0.4238  0.2032  0.5437
 6791TIP3    H141788   3.687   0.583  16.966  1.9786 -0.1393 -0.6915
 6791TIP3    H241789   3.741   0.572  17.107  0.8383  1.1007 -0.1473
 6792TIP3   OH241790   0.117   3.775   1.112 -0.7077 -0.5240  0.1131
 6792TIP3    H141791   0.178   3.724   1.164 -0.5137 -0.2764  0.1289
 6792TIP3    H241792   0.072   3.711   1.057 -2.5981 -1.0909  2.2441
 6793TIP3   OH241793   6.409   2.497   0.478 -0.2306  0.0199 -0.1698
 6793TIP3    H141794   6.431   2.521   0.388 -1.1758  1.3810 -0.0550
 6793TIP3    H241795   6.343   2.561   0.504  0.4790  0.0069  1.7076
 6794TIP3   OH241796   2.860   5.728   2.367  0.5571  0.1846  0.9371
 6794TIP3    H141797   2.841   5.777   2.447 -0.1616 -0.4250  1.1409
 6794TIP3    H241798   2.944   5.686   2.383  0.8596  0.8024  1.0147
 6795TIP3   OH241799   3.774   0.566  10.649  0.8819 -0.3339  0.0543
 6795TIP3    H141800   3.777   0.502  10.720  1.2240  0.0123  0.3579
 6795TIP3    H241801   3.835   0.635  10.676 -1.2724  1.3249  0.9465
 6796TIP3   OH241802   4.618   5.723  13.550  0.1956  0.8739  0.2871
 6796TIP3    H141803   4.553   5.793  13.544 -1.4162 -0.5766  0.4495
 6796TIP3    H241804   4.610   5.690  13.640 -1.3088 -1.6288 -0.7402
 6797TIP3   OH241805   1.838   0.763  15.702 -0.2058  0.0192  0.4442
 6797TIP3    H141806   1.783   0.737  15.776 -1.1368 -3.4473 -1.3395
 6797TIP3    H241807   1.821   0.856  15.691 -1.0418  0.3136  3.7531
 6798TIP3   OH241808   2.293   0.743  13.670  0.6036  0.1128  0.5250
 6798TIP3    H141809   2.304   0.834  13.699  0.2227  0.4726 -0.4652
 6798TIP3    H241810   2.382   0.707  13.671  0.9613  0.9639 -0.6307
 6799TIP3   OH241811   4.896   3.332  10.689 -0.5195  0.1880 -0.0623
 6799TIP3    H141812   4.935   3.278  10.621  0.2922 -1.1828  1.4753
 6799TIP3    H241813   4.811   3.291  10.706 -1.0270  0.9429 -0.7221
 6800TIP3   OH241814   1.450   1.311   0.193 -0.0938 -0.5482  0.4318
 6800TIP3    H141815   1.479   1.391   0.149  0.4004 -0.5932  0.6780
 6800TIP3    H241816   1.480   1.240   0.135  0.5793 -0.6085  0.8463
 6801TIP3   OH241817   5.671   0.794   3.485 -0.0168 -0.1288  0.2233
 6801TIP3    H141818   5.638   0.799   3.395  1.6192 -0.2765 -0.4024
 6801TIP3    H241819   5.655   0.704   3.512  1.1981 -0.5988 -0.6030
 6802TIP3   OH241820   1.568   4.094   0.364  0.2299 -0.4800  0.4612
 6802TIP3    H141821   1.477   4.121   0.349 -0.0209 -0.1256  2.3710
 6802TIP3    H241822   1.612   4.108   0.281 -1.4767 -0.6974 -0.5089
 6803TIP3   OH241823   3.918   1.363  14.266 -0.0744  0.5527  0.2847
 6803TIP3    H141824   4.009   1.387  14.249 -0.0095  0.1423  0.0414
 6803TIP3    H241825   3.888   1.426  14.331  0.8872 -0.3225  1.6023
 6804TIP3   OH241826   0.357   1.885   2.290 -0.2083  0.4417  0.1741
 6804TIP3    H141827   0.311   1.882   2.374  0.7490  0.2283  0.6969
 6804TIP3    H241828   0.309   1.824   2.234  0.3936 -1.0059  1.2088
 6805TIP3   OH241829   6.668   5.561  13.417  0.0496 -0.4517 -0.4741
 6805TIP3    H141830   6.628   5.641  13.382  1.3317  0.0553 -0.8266
 6805TIP3    H241831   6.762   5.574  13.403  0.2728 -1.9757 -0.4282
 6806TIP3   OH241832   2.949   0.731  13.766  0.0311  0.0122 -0.1794
 6806TIP3    H141833   2.921   0.747  13.856  1.7833  0.1491  0.3457
 6806TIP3    H241834   2.971   0.817  13.732  0.9504 -0.2388 -0.2105
 6807TIP3   OH241835   2.532   3.233  14.662  0.6825  0.1459  0.4638
 6807TIP3    H141836   2.586   3.239  14.583 -0.2063 -1.1349 -0.2471
 6807TIP3    H241837   2.553   3.147  14.698  0.8714  0.6130  1.4833
 6808TIP3   OH241838   2.782   3.629  14.066  0.1775 -0.3978 -0.3150
 6808TIP3    H141839   2.761   3.668  13.981 -1.8203 -0.3360  0.1867
 6808TIP3    H241840   2.858   3.574  14.048  1.4903  1.7194 -1.5595
 6809TIP3   OH241841   6.514   6.553   6.246  0.2444 -0.0243 -0.5586
 6809TIP3    H141842   6.437   6.556   6.189 -0.5566  0.7362  0.5348
 6809TIP3    H241843   6.501   6.475   6.299  0.7277 -0.4444 -1.0571
 6810TIP3   OH241844   3.537   2.242  12.175 -0.0013 -0.3226  0.5839
 6810TIP3    H141845   3.558   2.178  12.242 -2.8009 -0.9598  0.9226
 6810TIP3    H241846   3.613   2.243  12.117  0.0314 -4.1228  0.4511
 6811TIP3   OH241847   0.674   3.763  10.926 -0.2066 -0.3632 -0.2964
 6811TIP3    H141848   0.615   3.729  10.994 -0.7091  0.9116 -0.0928
 6811TIP3    H241849   0.699   3.685  10.876  0.8640 -1.4572  1.8588
 6812TIP3   OH241850   6.241   4.726   0.606 -0.0034  0.0507 -0.4298
 6812TIP3    H141851   6.196   4.793   0.553 -0.4095  0.1139 -0.0151
 6812TIP3    H241852   6.171   4.666   0.632 -0.1362  0.9806  1.4893
 6813TIP3   OH241853   2.528   0.681   1.264  0.2102  0.0981 -0.2747
 6813TIP3    H141854   2.583   0.709   1.190  0.3364  0.8846  0.1203
 6813TIP3    H241855   2.443   0.663   1.225  0.1274  1.0275 -0.5296
 6814TIP3   OH241856   6.490   3.527   2.407  0.1513 -0.0574  0.3695
 6814TIP3    H141857   6.524   3.548   2.320 -2.0048  1.6366 -0.1239
 6814TIP3    H241858   6.557   3.559   2.467  0.6452  0.8110 -0.6297
 6815TIP3   OH241859   3.821   5.884  14.445  0.2638  0.7413  0.0273
 6815TIP3    H141860   3.902   5.925  14.416 -0.0038 -0.1209 -2.0060
 6815TIP3    H241861   3.833   5.791  14.426 -0.3563  0.2991  1.7195
 6816TIP3   OH241862   5.891   3.012   1.856 -0.1420  0.3361 -0.1730
 6816TIP3    H141863   5.863   3.100   1.881 -0.7475 -0.1009  0.6983
 6816TIP3    H241864   5.987   3.015   1.860 -0.1465  1.1195 -0.7152
 6817TIP3   OH241865   5.819   0.771  11.476 -0.6187  0.0654 -0.4517
 6817TIP3    H141866   5.904   0.803  11.444 -1.4646  2.6694 -0.1692
 6817TIP3    H241867   5.755   0.817  11.423 -1.9129 -0.3265  0.7554
 6818TIP3   OH241868   4.810   1.463   2.237 -0.2094  0.0095 -0.0034
 6818TIP3    H141869   4.805   1.464   2.333  0.0322 -0.4945  0.0195
 6818TIP3    H241870   4.719   1.470   2.208 -0.4276 -1.3505  0.2916
 6819TIP3   OH241871   4.211   3.368  11.469 -0.4133  0.0422  0.3032
 6819TIP3    H141872   4.163   3.448  11.490 -1.8970 -0.9644  0.9013
 6819TIP3    H241873   4.200   3.312  11.546  1.0745 -0.5256  0.1205
 6820TIP3   OH241874   2.741   5.641  13.055  0.2251 -0.2639  0.2868
 6820TIP3    H141875   2.809   5.587  13.096  0.0843 -0.1704  0.6488
 6820TIP3    H241876   2.790   5.709  13.008  0.4825 -2.0053 -2.0658
 6821TIP3   OH241877   2.420   0.637  16.454 -0.3391  0.0949  0.2327
 6821TIP3    H141878   2.400   0.715  16.506  1.5868 -0.3334  1.6524
 6821TIP3    H241879   2.461   0.672  16.375  2.4565  0.4576  1.7943
 6822TIP3   OH241880   5.767   5.891   0.140  0.5074 -0.3380  0.0407
 6822TIP3    H141881   5.807   5.911   0.225  2.4010  0.3397 -0.9821
 6822TIP3    H241882   5.764   5.975   0.094 -1.7123 -0.4609 -0.0946
 6823TIP3   OH241883   6.498   5.294   2.559  0.4582  0.0081 -0.1100
 6823TIP3    H141884   6.407   5.300   2.529  0.6977 -1.2883 -1.1379
 6823TIP3    H241885   6.497   5.333   2.646 -1.2902 -0.9229  0.3024
 6824TIP3   OH241886   4.894   5.809   5.323  0.1765 -0.3046  0.0678
 6824TIP3    H141887   4.847   5.850   5.395 -0.8991 -1.9670  0.3378
 6824TIP3    H241888   4.849   5.840   5.244  0.6039  0.5719  0.1679
 6825TIP3   OH241889   3.386   4.143   2.935 -0.0779  0.2937  0.1273
 6825TIP3    H141890   3.434   4.220   2.904  0.1496  0.1166  0.0458
 6825TIP3    H241891   3.439   4.109   3.006  0.3103 -0.3631 -0.4791
 6826TIP3   OH241892   1.118   2.955   3.132  0.1133  0.0540  0.4619
 6826TIP3    H141893   1.099   2.913   3.215  0.1958  1.3581  1.1570
 6826TIP3    H241894   1.212   2.942   3.119 -0.0643 -0.9256  0.1251
 6827TIP3   OH241895   0.245   5.599   2.501 -0.2986  0.8280 -0.2996
 6827TIP3    H141896   0.235   5.526   2.562  0.7076  1.2566  0.4038
 6827TIP3    H241897   0.308   5.568   2.436 -0.8565  0.6141 -0.7442
 6828TIP3   OH241898   2.524   1.638  12.307  0.1234 -0.5725  0.1798
 6828TIP3    H141899   2.575   1.675  12.235  0.7270 -2.8924 -0.5975
 6828TIP3    H241900   2.583   1.644  12.383 -0.0176  0.5996  0.2161
 6829TIP3   OH241901   1.294   2.907  16.210 -0.1705 -0.2661  0.4839
 6829TIP3    H141902   1.251   2.904  16.125 -0.8563  2.8339  0.6534
 6829TIP3    H241903   1.387   2.920  16.189 -0.3769  0.8052  0.1688
 6830TIP3   OH241904   3.787   2.024  13.989  0.3124 -0.1613  0.2669
 6830TIP3    H141905   3.788   2.056  13.899  0.7239 -2.3277 -0.5216
 6830TIP3    H241906   3.792   2.103  14.042 -2.2317  1.2984 -1.5722
 6831TIP3   OH241907   2.683   5.316   5.989  0.3097  0.3380 -0.8199
 6831TIP3    H141908   2.716   5.248   6.047  0.2375 -0.8063 -2.1119
 6831TIP3    H241909   2.637   5.377   6.048  0.2680 -0.7813  0.3244
 6832TIP3   OH241910   4.673   5.993   1.737 -0.2453 -0.1708  0.6707
 6832TIP3    H141911   4.658   5.951   1.821  0.1654 -0.3155  0.6775
 6832TIP3    H241912   4.735   6.064   1.756  1.2705 -1.3242  0.2159
 6833TIP3   OH241913   4.854   3.105   0.026 -0.3257  0.4304 -0.3517
 6833TIP3    H141914   4.898   3.028  -0.008  2.1130  0.8969  1.5583
 6833TIP3    H241915   4.767   3.075   0.052  0.2546 -1.4357 -0.5431
 6834TIP3   OH241916   1.690   0.139   5.464 -0.0606  0.3588 -0.1560
 6834TIP3    H141917   1.706   0.231   5.484  2.9705 -0.5208  1.7854
 6834TIP3    H241918   1.777   0.100   5.461 -1.3591 -2.6641  0.1237
 6835TIP3   OH241919   0.663   1.718   1.062 -0.3486 -0.4646 -0.0095
 6835TIP3    H141920   0.730   1.787   1.060 -1.6794  0.8104 -2.2429
 6835TIP3    H241921   0.602   1.745   1.130  0.3312 -0.6236  0.6738
 6836TIP3   OH241922   2.467   4.791   6.110  0.2916 -0.0965 -0.1177
 6836TIP3    H141923   2.511   4.844   6.177  0.6558  0.3154 -0.6852
 6836TIP3    H241924   2.398   4.745   6.158  0.7793 -0.0740  0.6089
 6837TIP3   OH241925   1.640   4.998  16.563 -0.6289 -0.0085 -0.1218
 6837TIP3    H141926   1.609   4.913  16.594  0.4385 -0.8884 -1.3958
 6837TIP3    H241927   1.645   4.988  16.468 -0.5324  1.5009 -0.2892
 6838TIP3   OH241928   5.480   5.915  17.010 -0.2122 -0.2432 -0.6990
 6838TIP3    H141929   5.539   5.849  16.976  1.2637  1.5882 -1.7898
 6838TIP3    H241930   5.463   5.973  16.936 -1.9654  0.2666  0.0648
 6839TIP3   OH241931   0.301   2.882  13.543  0.1585  0.0979 -0.0006
 6839TIP3    H141932   0.289   2.787  13.550  1.3018 -0.1288 -1.1086
 6839TIP3    H241933   0.321   2.898  13.451 -1.3230  1.5815 -0.1035
 6840TIP3   OH241934   1.504   1.887   2.181 -0.0399  0.0320 -0.1506
 6840TIP3    H141935   1.511   1.934   2.098  0.0648  0.4259  0.0817
 6840TIP3    H241936   1.560   1.810   2.169  1.3261  0.9579  0.1534
 6841TIP3   OH241937   6.382   3.841   3.325 -0.0778 -0.0233 -0.1832
 6841TIP3    H141938   6.440   3.916   3.330  0.7710 -0.5661 -1.7319
 6841TIP3    H241939   6.414   3.789   3.251 -2.7059 -0.1743 -1.2908
 6842TIP3   OH241940   5.473   4.484  16.731  0.2332 -0.1003  0.2187
 6842TIP3    H141941   5.486   4.575  16.760 -1.5151  0.2800 -0.1522
 6842TIP3    H241942   5.418   4.445  16.798  0.1637 -0.6070 -0.1331
 6843TIP3   OH241943   4.957   3.064   3.229  0.0238 -0.0213  0.0364
 6843TIP3    H141944   4.937   2.988   3.282  0.5506  0.2259  0.5994
 6843TIP3    H241945   5.004   3.029   3.153  0.2699 -0.2620  0.2982
 6844TIP3   OH241946   1.466   3.983  14.737 -0.1662 -0.0685 -0.4306
 6844TIP3    H141947   1.560   3.999  14.732 -0.5965  2.9034 -0.1962
 6844TIP3    H241948   1.456   3.913  14.801  1.8452  0.0736  0.0733
 6845TIP3   OH241949   1.203   5.901  15.035  0.5536  0.1346  0.0694
 6845TIP3    H141950   1.257   5.873  15.109  1.1191  2.3350  0.5262
 6845TIP3    H241951   1.115   5.872  15.057  0.9383 -0.3097  1.0398
 6846TIP3   OH241952   5.833   6.557  16.479 -0.4011 -0.7252 -0.3343
 6846TIP3    H141953   5.875   6.505  16.412  0.4692 -0.4686  0.0060
 6846TIP3    H241954   5.775   6.617  16.431 -0.8803 -1.5313 -0.7572
 6847TIP3   OH241955   0.222   4.978  16.554  0.4150 -0.3179 -0.2758
 6847TIP3    H141956   0.223   4.896  16.506 -1.2471  0.5461 -1.8822
 6847TIP3    H241957   0.314   5.002  16.563  0.9391 -2.5522  0.6138
 6848TIP3   OH241958   6.296   5.099  17.164  0.1749 -0.2847  0.2776
 6848TIP3    H141959   6.383   5.138  17.176 -0.4740  1.0597  0.6153
 6848TIP3    H241960   6.286   5.092  17.069  0.8384 -0.8662  0.2494
 6849TIP3   OH241961   2.930   5.354  14.155  0.1359  0.0735 -0.1282
 6849TIP3    H141962   2.865   5.311  14.100  1.6227 -1.9471 -0.3795
 6849TIP3    H241963   2.949   5.436  14.110 -1.6763  0.3374 -0.4303
 6850TIP3   OH241964   4.651   4.492  15.797  0.0571 -0.4663  0.1670
 6850TIP3    H141965   4.658   4.427  15.727 -2.5955 -0.7375  0.1327
 6850TIP3    H241966   4.602   4.565  15.758 -0.4276 -0.1267  1.3933
 6851TIP3   OH241967   3.622   2.697  15.304  0.2579  0.1811 -0.1235
 6851TIP3    H141968   3.693   2.634  15.315 -1.1293 -1.1700  1.1911
 6851TIP3    H241969   3.626   2.751  15.383 -0.6726 -0.3775  0.2972
 6852TIP3   OH241970   2.177   1.567   1.025 -0.1104 -0.2092 -0.3112
 6852TIP3    H141971   2.114   1.621   1.073  1.0302  0.8970 -0.0399
 6852TIP3    H241972   2.244   1.545   1.090 -0.4095 -1.7456 -0.4906
 6853TIP3   OH241973   3.307   0.427   0.459  0.0918 -0.1173  0.2376
 6853TIP3    H141974   3.220   0.434   0.420 -0.0561  0.9518  0.7487
 6853TIP3    H241975   3.365   0.406   0.385 -0.6136 -0.9930 -0.0762
 6854TIP3   OH241976   0.426   0.685   5.440 -0.1902 -0.5912 -0.0772
 6854TIP3    H141977   0.423   0.762   5.383  0.6447  0.5115  1.3257
 6854TIP3    H241978   0.518   0.679   5.466 -0.1341 -2.4195 -0.6229
 6855TIP3   OH241979   1.129   5.268  16.584 -0.4200 -0.1542 -0.2275
 6855TIP3    H141980   1.119   5.177  16.557  0.0071 -0.3298  0.1901
 6855TIP3    H241981   1.223   5.278  16.603 -0.4420  0.4015 -0.3804
 6856TIP3   OH241982   5.131   6.154   4.683  0.2157 -0.3418  0.4615
 6856TIP3    H141983   5.159   6.218   4.617 -0.1206  0.5461  1.1706
 6856TIP3    H241984   5.054   6.113   4.645 -0.2798  0.5313  0.5200
 6857TIP3   OH241985   3.246   5.031  15.667 -0.8519 -0.3070 -0.4928
 6857TIP3    H141986   3.158   5.023  15.702 -0.2862 -1.0640  0.7712
 6857TIP3    H241987   3.293   5.087  15.729 -0.4080  0.0095 -1.1013
 6858TIP3   OH241988   0.368   5.925  12.998  0.1726 -0.2826  0.1448
 6858TIP3    H141989   0.375   6.001  13.055 -1.2949 -0.8211  1.0637
 6858TIP3    H241990   0.364   5.850  13.058 -0.9920 -0.8846 -0.6527
 6859TIP3   OH241991   4.570   1.752  13.801 -0.3741 -0.0540  0.5141
 6859TIP3    H141992   4.488   1.747  13.851 -0.2451  1.9465  0.9664
 6859TIP3    H241993   4.576   1.843  13.774  0.0255 -0.8805 -2.4134
 6860TIP3   OH241994   0.012   0.935   3.101 -0.5923  0.2976  0.1034
 6860TIP3    H141995  -0.060   0.879   3.130 -1.1492  1.1981  0.4954
 6860TIP3    H241996   0.070   0.877   3.053 -1.2268 -0.5872  0.3934
 6861TIP3   OH241997   3.891   0.250  14.088  0.3506  0.0020  0.0586
 6861TIP3    H141998   3.879   0.198  14.008 -1.3990  1.1571 -0.4468
 6861TIP3    H241999   3.832   0.210  14.152  1.3231 -0.5658  0.6044
 6862TIP3   OH242000   1.704   0.609  16.326  0.7530  0.3683 -0.3588
 6862TIP3    H142001   1.633   0.669  16.306 -0.1811 -0.6625 -0.1879
 6862TIP3    H242002   1.692   0.587  16.419  2.8981  2.2806  0.4097
 6863TIP3   OH242003   5.992   2.000  13.224 -0.2658  0.1468 -0.0168
 6863TIP3    H142004   5.954   1.952  13.297  1.0842 -2.6316 -1.1023
 6863TIP3    H242005   6.073   1.954  13.204 -0.3800  1.1550 -2.9801
 6864TIP3   OH242006   2.728   5.339  12.113  0.0959  0.4407 -0.1170
 6864TIP3    H142007   2.811   5.292  12.121 -0.1976 -0.1054 -0.2343
 6864TIP3    H242008   2.752   5.431  12.111  0.7968  0.2463 -1.3378
 6865TIP3   OH242009   4.545   0.997   3.349  0.1586 -0.2134 -0.2513
 6865TIP3    H142010   4.482   1.059   3.385 -0.7185 -1.1823 -0.0643
 6865TIP3    H242011   4.523   0.991   3.257 -0.5532 -1.1498 -0.0300
 6866TIP3   OH242012   0.906   4.467   6.643 -0.4580 -0.0310 -0.0748
 6866TIP3    H142013   0.826   4.415   6.636 -1.7160  1.8399 -0.2116
 6866TIP3    H242014   0.949   4.456   6.558 -2.0079  1.1323 -1.0595
 6867TIP3   OH242015   6.106   1.933  12.329 -0.1878 -0.1599 -0.1272
 6867TIP3    H142016   6.201   1.918  12.334 -0.4027 -2.3422 -2.1126
 6867TIP3    H242017   6.068   1.863  12.382 -0.7874 -1.0107 -1.6509
 6868TIP3   OH242018   1.986   4.841  14.538  0.1890  0.2169  0.5703
 6868TIP3    H142019   2.055   4.901  14.509 -0.8252  0.1944 -2.0411
 6868TIP3    H242020   2.027   4.754  14.535  0.2478  0.2729 -0.3433
 6869TIP3   OH242021   3.602   5.038   3.115 -0.1398  0.3455  0.1026
 6869TIP3    H142022   3.528   4.989   3.149  0.6991 -0.0079  1.4757
 6869TIP3    H242023   3.658   4.972   3.074 -0.7311  0.6565 -1.2382
 6870TIP3   OH242024   4.960   2.303  17.165 -0.4278  0.9633 -0.3953
 6870TIP3    H142025   4.978   2.298  17.259  0.3898  3.7518 -0.3417
 6870TIP3    H242026   4.994   2.221  17.129 -2.6909 -1.1190  2.0071
 6871TIP3   OH242027   4.646   6.330  11.496  0.3788  0.3770  0.0066
 6871TIP3    H142028   4.621   6.292  11.580  0.4027 -0.0382 -0.1731
 6871TIP3    H242029   4.653   6.255  11.437 -0.4327  0.7502 -0.5667
 6872TIP3   OH242030   0.095   6.362   1.486  0.0249  0.0853  0.4385
 6872TIP3    H142031   0.023   6.299   1.481  1.2398 -1.2881 -0.3366
 6872TIP3    H242032   0.143   6.349   1.404  0.8722  1.3255  0.7351
 6873TIP3   OH242033   2.395   5.761  16.234  0.4450  0.5265  0.0741
 6873TIP3    H142034   2.396   5.776  16.329  2.1164  1.2875 -0.0311
 6873TIP3    H242035   2.377   5.668  16.224  1.7599  0.1288  1.2131
 6874TIP3   OH242036   4.285   4.967   0.738 -0.7280 -0.5554 -0.7819
 6874TIP3    H142037   4.278   4.930   0.826  0.6040  0.3775 -0.2741
 6874TIP3    H242038   4.379   4.978   0.724 -1.0211  1.0348 -1.5918
 6875TIP3   OH242039   0.852   0.452  12.837  0.4711  0.1629 -0.2096
 6875TIP3    H142040   0.877   0.375  12.786  0.8400 -0.6128  1.1107
 6875TIP3    H242041   0.910   0.522  12.807  1.5179 -0.6060  0.0079
 6876TIP3   OH242042   0.147   4.891  16.199  0.1370 -0.1874  0.0666
 6876TIP3    H142043   0.139   4.822  16.133  1.1861 -0.5724  0.3286
 6876TIP3    H242044   0.061   4.893  16.242  0.4735 -2.2560  0.9341
 6877TIP3   OH242045   5.808   3.389   2.317  0.2601  0.4066 -0.2659
 6877TIP3    H142046   5.868   3.461   2.335  1.6911 -1.0945  1.0465
 6877TIP3    H242047   5.751   3.385   2.393  0.5875 -0.2452 -0.0502
 6878TIP3   OH242048   3.299   1.185   1.111  0.2293  0.3493 -0.2981
 6878TIP3    H142049   3.245   1.256   1.146  0.4068  0.5851 -0.5053
 6878TIP3    H242050   3.388   1.208   1.135  0.3986  0.7217 -1.2508
 6879TIP3   OH242051   6.419   6.428   0.451  0.1278 -0.5225 -0.0707
 6879TIP3    H142052   6.479   6.355   0.437  0.7367 -0.1132  0.4024
 6879TIP3    H242053   6.473   6.506   0.441 -0.7508 -0.1016 -1.6885
 6880TIP3   OH242054   4.375   6.430   4.665 -0.0776 -0.5188 -0.1259
 6880TIP3    H142055   4.464   6.466   4.663 -0.9520  1.7534 -0.2669
 6880TIP3    H242056   4.357   6.413   4.757  0.7647 -1.7173 -0.1718
 6881TIP3   OH242057   5.037   0.732  11.924  0.1928 -0.5902 -0.3821
 6881TIP3    H142058   5.131   0.728  11.940 -0.0710 -1.4090  1.1234
 6881TIP3    H242059   5.023   0.684  11.843  0.9217 -1.7286  0.1522
 6882TIP3   OH242060   1.999   4.279   4.109 -0.1084  0.0578 -0.2431
 6882TIP3    H142061   2.079   4.227   4.120 -0.3351 -0.5579 -1.4468
 6882TIP3    H242062   1.928   4.218   4.127 -0.3043  0.7470  1.3605
 6883TIP3   OH242063   0.684   5.472   4.554 -0.0087  0.2583  0.1259
 6883TIP3    H142064   0.717   5.398   4.504 -0.8593  0.5678 -0.8881
 6883TIP3    H242065   0.630   5.432   4.623 -0.3289 -0.0795 -0.3160
 6884TIP3   OH242066   6.435   4.388  10.823 -0.1035  0.1129 -0.0415
 6884TIP3    H142067   6.407   4.415  10.735 -2.0513 -0.3364  0.4095
 6884TIP3    H242068   6.525   4.417  10.830 -0.4157  1.5195 -1.6372
 6885TIP3   OH242069   2.901   2.993  12.257  0.0370  0.4310 -0.4792
 6885TIP3    H142070   2.806   3.007  12.252 -0.1581 -1.4376 -3.0209
 6885TIP3    H242071   2.920   2.931  12.187  2.8067 -1.1323  1.5283
 6886TIP3   OH242072   1.845   6.494  11.710  0.2419 -0.6035  0.8456
 6886TIP3    H142073   1.819   6.471  11.799  0.0859 -2.7127  0.2838
 6886TIP3    H242074   1.763   6.517  11.666  0.0197 -1.6675  0.6729
 6887TIP3   OH242075   4.297   6.606  11.979 -0.1758  0.8848  0.1391
 6887TIP3    H142076   4.279   6.524  11.933  0.1234 -0.0238  1.6130
 6887TIP3    H242077   4.210   6.642  11.998 -0.3145  0.7689 -0.2812
 6888TIP3   OH242078   3.694   5.235   2.450  0.6607 -0.3266 -0.3522
 6888TIP3    H142079   3.743   5.315   2.466  1.2427 -0.6893 -0.3099
 6888TIP3    H242080   3.683   5.196   2.537  1.9180 -1.1886 -0.5708
 6889TIP3   OH242081   2.844   2.489   1.881 -0.2726 -0.2930 -0.2852
 6889TIP3    H142082   2.805   2.456   1.800  1.5894 -0.6680 -1.0562
 6889TIP3    H242083   2.769   2.516   1.934 -1.5912 -1.2650 -1.5950
 6890TIP3   OH242084   1.695   2.704  14.910  0.0312  0.4434 -0.1633
 6890TIP3    H142085   1.666   2.631  14.856  0.7719 -0.4094  0.5766
 6890TIP3    H242086   1.696   2.779  14.851  2.0164 -0.7166 -1.6690
 6891TIP3   OH242087   3.665   2.593   3.330  0.0452  0.1693 -0.1561
 6891TIP3    H142088   3.629   2.663   3.385  0.0192 -0.2404  0.3542
 6891TIP3    H242089   3.642   2.618   3.241  1.5763  1.7310 -0.1437
 6892TIP3   OH242090   0.400   2.916  12.409 -0.8198  0.1239 -0.0447
 6892TIP3    H142091   0.308   2.929  12.433 -0.8307 -0.8992  0.5222
 6892TIP3    H242092   0.428   2.841  12.462  0.4619  0.6797  0.0934
 6893TIP3   OH242093   1.182   0.571  14.717 -0.1466 -0.3572  0.3525
 6893TIP3    H142094   1.178   0.495  14.774  0.4206  0.4978  1.5364
 6893TIP3    H242095   1.112   0.629  14.749  1.4284  0.9890  1.4585
 6894TIP3   OH242096   3.597   1.234  11.516  0.5877 -0.0815  0.0900
 6894TIP3    H142097   3.685   1.265  11.537  0.2861  0.5091  0.5009
 6894TIP3    H242098   3.608   1.185  11.434  0.8759  2.1149 -1.2158
 6895TIP3   OH242099   5.622   5.714   4.310 -0.0585  0.4716  0.3361
 6895TIP3    H142100   5.702   5.663   4.324  0.5747  1.2697 -0.2842
 6895TIP3    H242101   5.555   5.668   4.359 -0.4894 -3.3671 -3.5280
 6896TIP3   OH242102   1.202   0.099   3.151  0.2213  0.2992  0.4085
 6896TIP3    H142103   1.226   0.040   3.079  0.2591  0.7175  0.0779
 6896TIP3    H242104   1.282   0.106   3.203  0.2697  0.1987  0.3471
 6897TIP3   OH242105   2.573   2.592  12.772 -0.2029  0.2496  0.5261
 6897TIP3    H142106   2.512   2.631  12.834  1.0766  1.6019  0.9699
 6897TIP3    H242107   2.617   2.523  12.822  0.0879  0.6502  0.8283
 6898TIP3   OH242108   0.883   3.796   5.688 -0.0992  0.1452  0.8028
 6898TIP3    H142109   0.822   3.793   5.761 -2.7184 -1.8263 -1.3411
 6898TIP3    H242110   0.854   3.870   5.635 -0.6780 -0.7994 -0.2271
 6899TIP3   OH242111   3.188   2.577   5.048 -0.1808 -0.3159  0.1680
 6899TIP3    H142112   3.143   2.628   5.114  0.1663  0.2002  0.0074
 6899TIP3    H242113   3.130   2.579   4.972 -1.0256 -1.7091  0.7620
 6900TIP3   OH242114   1.839   3.279   0.824 -0.1849  0.3085  0.1874
 6900TIP3    H142115   1.761   3.333   0.841 -0.8568 -0.7663  0.5791
 6900TIP3    H242116   1.876   3.262   0.910 -0.3760 -0.4234  0.1332
 6901TIP3   OH242117   6.621   1.032   0.564  0.3479 -0.2657 -0.5249
 6901TIP3    H142118   6.640   1.103   0.625 -1.5363  0.4550 -0.7497
 6901TIP3    H242119   6.681   0.962   0.590 -0.5411 -0.0634  2.2967
 6902TIP3   OH242120   5.797   1.946   5.805  0.1373 -0.1121 -0.4434
 6902TIP3    H142121   5.866   1.886   5.833 -2.1468 -1.2299  3.1757
 6902TIP3    H242122   5.802   2.019   5.866  1.2749  2.2651 -3.2712
 6903TIP3   OH242123   1.480   2.827   6.095 -0.6448  0.1888 -0.0104
 6903TIP3    H142124   1.410   2.821   6.159  1.8486 -3.2333  2.6256
 6903TIP3    H242125   1.551   2.873   6.140 -0.0155  0.6592 -1.4406
 6904TIP3   OH242126   5.399   2.513  16.803  0.2636 -0.6820 -0.1804
 6904TIP3    H142127   5.421   2.528  16.711  1.6909 -2.4529 -0.1796
 6904TIP3    H242128   5.322   2.455  16.800 -0.6534  0.5308 -0.2366
 6905TIP3   OH242129   2.918   3.533  13.686  0.1611 -0.4576 -0.6431
 6905TIP3    H142130   2.935   3.439  13.695  2.2903  0.0036  0.6977
 6905TIP3    H242131   2.859   3.554  13.759 -1.4018 -0.9753 -1.7338
 6906TIP3   OH242132   2.046   1.922   3.504  0.3679 -0.5433 -0.4148
 6906TIP3    H142133   1.951   1.933   3.510  0.5066  0.4599  0.0128
 6906TIP3    H242134   2.060   1.889   3.415 -0.3013  0.2771 -0.8385
 6907TIP3   OH242135   5.940   4.008   5.682 -0.2943 -0.5578 -0.1656
 6907TIP3    H142136   5.908   4.091   5.718  0.3465 -0.3788 -0.0009
 6907TIP3    H242137   6.012   3.983   5.740  2.2498  0.8744 -2.5951
 6908TIP3   OH242138   5.229   6.043  14.592  0.4072  0.1140  0.0579
 6908TIP3    H142139   5.257   6.121  14.543  0.8124 -0.2723 -0.3319
 6908TIP3    H242140   5.311   6.004  14.624  0.3579 -1.1622 -1.3056
 6909TIP3   OH242141   5.288   0.586  16.986 -0.0901 -0.4693  0.4059
 6909TIP3    H142142   5.350   0.516  16.969 -0.6040 -0.8405  0.0356
 6909TIP3    H242143   5.298   0.604  17.080  0.3434 -0.7458  0.4144
 6910TIP3   OH242144   5.518   6.522  16.255 -0.4669 -0.1162  0.1050
 6910TIP3    H142145   5.553   6.579  16.186  1.0699 -0.8612  0.2753
 6910TIP3    H242146   5.595   6.488  16.300 -1.3931 -1.8531  0.4108
 6911TIP3   OH242147   4.499   5.194   6.658 -0.2913  0.3957  0.2975
 6911TIP3    H142148   4.571   5.131   6.650  0.3631  1.3614 -1.7937
 6911TIP3    H242149   4.517   5.242   6.739 -0.5460 -1.7546  1.6778
 6912TIP3   OH242150   2.937   1.903   2.974 -0.2678  0.5548 -0.2326
 6912TIP3    H142151   2.898   1.965   3.036 -0.7438  1.6774 -1.6012
 6912TIP3    H242152   2.995   1.957   2.920 -0.9519 -0.1145 -1.6774
 6913TIP3   OH242153   1.815   5.465   3.810  0.4552  0.4177  0.1624
 6913TIP3    H142154   1.850   5.386   3.852 -0.2447  0.7283  1.3547
 6913TIP3    H242155   1.763   5.507   3.878  1.4656  2.3388 -0.2290
 6914TIP3   OH242156   0.342   2.463   1.339 -0.3314 -0.0894 -0.5698
 6914TIP3    H142157   0.337   2.506   1.424  2.2918 -0.0553 -0.3963
 6914TIP3    H242158   0.311   2.374   1.355 -0.1859  0.0212  0.3217
 6915TIP3   OH242159   4.342   1.362  11.443  0.2944  0.3911 -0.6868
 6915TIP3    H142160   4.348   1.365  11.348 -1.5777  0.7939 -0.8198
 6915TIP3    H242161   4.364   1.451  11.471 -0.8833  0.7466 -0.8707
 6916TIP3   OH242162   0.981   2.733   5.771  0.3141 -0.3023  0.3899
 6916TIP3    H142163   1.040   2.659   5.758  0.2996 -0.2990  0.3036
 6916TIP3    H242164   0.990   2.784   5.691  1.1437  0.3683  0.9056
 6917TIP3   OH242165   1.833   4.654  14.044  0.4303 -0.0320 -0.1496
 6917TIP3    H142166   1.815   4.582  14.104  1.3940 -0.9336 -0.9118
 6917TIP3    H242167   1.798   4.625  13.960 -0.4037  0.9726 -0.1581
 6918TIP3   OH242168   3.611   5.356   0.240 -0.1383 -0.4077 -0.0182
 6918TIP3    H142169   3.553   5.432   0.243 -0.3662 -0.6345  1.3250
 6918TIP3    H242170   3.602   5.324   0.150  0.2527  1.3682 -0.7073
 6919TIP3   OH242171   3.593   1.027  13.435  0.5301 -0.2753 -0.3131
 6919TIP3    H142172   3.543   0.946  13.422 -0.5954  0.1362  1.2620
 6919TIP3    H242173   3.674   0.998  13.476  0.2454 -0.6496 -0.0030
 6920TIP3   OH242174   1.157   2.532   5.675 -0.4886 -0.3379 -0.1885
 6920TIP3    H142175   1.107   2.450   5.671  1.0505 -1.2583 -1.4276
 6920TIP3    H242176   1.217   2.519   5.749  1.1911 -1.2230 -1.6583
 6921TIP3   OH242177   2.946   6.486  12.332 -0.2333 -0.1105  0.2771
 6921TIP3    H142178   2.927   6.569  12.288 -1.0142 -0.8613 -0.8221
 6921TIP3    H242179   2.860   6.449  12.351  0.0795  0.1794  2.4345
 6922TIP3   OH242180   4.499   5.415   4.700 -0.0341  0.1983  0.1778
 6922TIP3    H142181   4.534   5.436   4.614 -1.8283  1.2732 -0.3219
 6922TIP3    H242182   4.507   5.320   4.707  0.9505  0.2020 -0.7910
 6923TIP3   OH242183   5.353   0.802   5.782  0.2927 -0.0878  0.3730
 6923TIP3    H142184   5.368   0.734   5.716  1.0189  0.1335  0.3004
 6923TIP3    H242185   5.260   0.823   5.775  0.2319 -0.5260 -0.1372
 6924TIP3   OH242186   2.039   3.700  13.635 -0.0700  0.1370 -0.7049
 6924TIP3    H142187   2.105   3.739  13.691 -0.3793 -0.0677 -0.1882
 6924TIP3    H242188   2.006   3.625  13.686  2.5431 -2.5883 -2.8277
 6925TIP3   OH242189   1.307   4.744  11.266 -0.2141  0.7981  0.2821
 6925TIP3    H142190   1.354   4.672  11.309 -1.9449  0.2238  1.2861
 6925TIP3    H242191   1.331   4.821  11.316 -0.0014  0.5649  0.5434
 6926TIP3   OH242192   4.774   3.827   4.518  0.1345 -0.5268  0.1162
 6926TIP3    H142193   4.829   3.768   4.466 -0.2474 -0.7879  0.0039
 6926TIP3    H242194   4.684   3.796   4.503 -0.2085  1.0352 -1.1464
 6927TIP3   OH242195   0.313   0.189   1.905 -0.2876  0.2786 -0.4051
 6927TIP3    H142196   0.295   0.103   1.866  1.9339  0.0791 -1.0102
 6927TIP3    H242197   0.335   0.245   1.831  2.4424  0.2832  0.3668
 6928TIP3   OH242198   4.666   1.820  10.558  0.0223  0.7002  0.0721
 6928TIP3    H142199   4.621   1.903  10.539 -1.8207 -0.1312  0.6468
 6928TIP3    H242200   4.758   1.843  10.562 -0.2817  2.3472 -1.8158
 6929TIP3   OH242201   0.271   0.352  13.028 -0.3412 -0.1048 -0.0508
 6929TIP3    H142202   0.251   0.295  13.102 -0.7322 -0.1815 -0.2108
 6929TIP3    H242203   0.205   0.421  13.032  0.0389  0.2543  0.0555
 6930TIP3   OH242204   2.611   2.385   3.685  0.1811  0.4949  0.3184
 6930TIP3    H142205   2.705   2.394   3.697  0.3303  0.4641 -0.7929
 6930TIP3    H242206   2.601   2.306   3.633 -0.4968  0.1880  0.9104
 6931TIP3   OH242207   3.940   3.897  13.432 -0.2924  0.4247 -0.3783
 6931TIP3    H142208   3.959   3.985  13.464 -0.3855  0.5914 -0.7910
 6931TIP3    H242209   3.989   3.889  13.351  1.0657 -0.5045  0.5167
 6932TIP3   OH242210   0.067   4.888  10.308  0.3728 -0.5426 -0.3042
 6932TIP3    H142211   0.021   4.972  10.305 -0.7018 -1.1398 -1.0600
 6932TIP3    H242212   0.136   4.900  10.373 -0.3656  0.6303  0.2786
 6933TIP3   OH242213   5.021   5.651  16.777  0.0125 -0.2921 -0.4771
 6933TIP3    H142214   5.079   5.579  16.753 -1.7447 -1.3355 -1.7039
 6933TIP3    H242215   5.069   5.698  16.846  1.2234 -2.5849  0.3224
 6934TIP3   OH242216   0.923   3.280   1.258 -0.1717  0.4998 -0.3471
 6934TIP3    H142217   0.831   3.257   1.272 -0.3790  1.3335 -0.3224
 6934TIP3    H242218   0.941   3.254   1.168 -0.6130  0.9443 -0.5605
 6935TIP3   OH242219   1.284   0.218   5.306 -0.5389 -0.1020 -0.2971
 6935TIP3    H142220   1.237   0.136   5.320 -0.3428 -0.0319  0.7954
 6935TIP3    H242221   1.315   0.243   5.393  0.9998  0.1672 -0.9095
 6936TIP3   OH242222   3.716   3.833   6.653 -0.0790 -0.0690  0.0091
 6936TIP3    H142223   3.710   3.926   6.676  0.1290 -0.1531  0.4153
 6936TIP3    H242224   3.625   3.805   6.643 -0.1360  0.2280 -0.3199
 6937TIP3   OH242225   3.914   4.097   1.097 -0.5885 -0.6992 -0.4194
 6937TIP3    H142226   3.966   4.177   1.089 -1.0881 -0.3129  0.0844
 6937TIP3    H242227   3.955   4.048   1.168 -2.4264  0.8079  1.7289
 6938TIP3   OH242228   1.482   6.442   0.335 -0.0951  0.3499 -0.2105
 6938TIP3    H142229   1.575   6.420   0.332 -0.1427  0.3058 -2.2638
 6938TIP3    H242230   1.453   6.434   0.244 -2.0725  0.5179  0.3844
 6939TIP3   OH242231   0.982   6.108   2.769  0.5997  0.3232  0.3248
 6939TIP3    H142232   0.982   6.189   2.718  0.0404  0.1559  0.0474
 6939TIP3    H242233   0.905   6.116   2.826 -0.8498 -1.0390 -1.3897
 6940TIP3   OH242234   4.928   4.559   0.579 -0.7225  0.8642 -0.0673
 6940TIP3    H142235   4.946   4.512   0.660  0.0966  0.5693 -0.4041
 6940TIP3    H242236   4.962   4.501   0.510 -2.1125  0.7529 -0.6800
 6941TIP3   OH242237   5.579   4.706  16.824  0.2317 -0.0944 -0.2232
 6941TIP3    H142238   5.648   4.656  16.781  0.1909  0.0525 -0.4579
 6941TIP3    H242239   5.615   4.794  16.833  1.0986 -0.6458  2.0063
 6942TIP3   OH242240   4.181   4.277  17.160  0.6540 -0.1381  0.0522
 6942TIP3    H142241   4.162   4.296  17.069  1.1559 -0.2182 -0.0712
 6942TIP3    H242242   4.165   4.359  17.206 -0.5496 -0.3621  0.0403
 6943TIP3   OH242243   1.114   4.013   3.369  0.4394  0.4823  0.7474
 6943TIP3    H142244   1.043   3.972   3.417  0.2384 -0.4191 -0.3049
 6943TIP3    H242245   1.167   3.941   3.337  0.6168  1.0599 -0.3049
 6944TIP3   OH242246   1.792   2.514  13.438 -0.6027 -0.1539  0.6383
 6944TIP3    H142247   1.787   2.606  13.410 -0.5971 -0.2012  0.4849
 6944TIP3    H242248   1.704   2.495  13.471 -0.5353 -0.0201  0.8950
 6945TIP3   OH242249   4.967   4.975  14.058 -0.3771  0.4510  0.0206
 6945TIP3    H142250   5.044   4.924  14.034 -0.7850 -0.3015  0.3175
 6945TIP3    H242251   4.893   4.921  14.032 -0.8143  0.6926  0.7499
 6946TIP3   OH242252   1.116   5.098   2.253 -0.1360  0.5833 -0.2143
 6946TIP3    H142253   1.052   5.063   2.315  1.1830  0.1959  0.9648
 6946TIP3    H242254   1.199   5.059   2.281  0.5595  0.8044 -1.9277
 6947TIP3   OH242255   1.908   6.585  14.038 -0.4866  0.0387  0.3041
 6947TIP3    H142256   1.917   6.498  14.078 -1.4693 -0.4077 -0.4133
 6947TIP3    H242257   1.995   6.606  14.005  0.2708  0.2669  2.3751
 6948TIP3   OH242258   3.870   4.736  12.539  0.7024 -0.2656  0.3286
 6948TIP3    H142259   3.948   4.785  12.514 -0.4021  1.1732 -0.4223
 6948TIP3    H242260   3.863   4.667  12.473  0.4285  0.6247 -0.5891
 6949TIP3   OH242261   6.648   0.755   2.199  0.5804  0.0054  0.5110
 6949TIP3    H142262   6.623   0.768   2.290  0.5589  0.6861  0.4113
 6949TIP3    H242263   6.608   0.672   2.174  0.4963 -0.1267  1.0884
 6950TIP3   OH242264   5.054   1.503  14.894 -0.5974  0.1543 -0.0118
 6950TIP3    H142265   5.089   1.414  14.902 -1.2038 -0.0288  0.6001
 6950TIP3    H242266   4.976   1.504  14.950  0.3572  1.5664  1.3327
 6951TIP3   OH242267   3.017   0.499  14.306 -0.0457  0.4027  0.0711
 6951TIP3    H142268   2.937   0.484  14.356  1.0782 -1.7591  1.2982
 6951TIP3    H242269   3.082   0.525  14.371  0.8961 -0.3821 -0.5335
 6952TIP3   OH242270   2.958   5.677   5.139  0.8437  0.1125 -0.1342
 6952TIP3    H142271   2.958   5.768   5.109  0.1594 -0.1371 -0.9180
 6952TIP3    H242272   3.036   5.670   5.194 -1.1897  2.2321  3.1954
 6953TIP3   OH242273   5.998   3.275   3.766  0.3642  0.3409  0.0399
 6953TIP3    H142274   5.961   3.248   3.850  0.4683 -2.6413 -0.8298
 6953TIP3    H242275   5.923   3.271   3.705  0.8147  0.1302 -0.5018
 6954TIP3   OH242276   2.812   1.636   4.280 -0.2996 -0.9533 -0.0588
 6954TIP3    H142277   2.733   1.688   4.265 -0.2410 -0.3586  1.5991
 6954TIP3    H242278   2.801   1.600   4.368  2.7678  1.8560  1.5727
 6955TIP3   OH242279   2.817   5.378  13.441  0.3909 -1.0824  0.1784
 6955TIP3    H142280   2.821   5.420  13.355  1.1376  0.0564  0.7534
 6955TIP3    H242281   2.759   5.304  13.429 -1.2795  0.3403 -0.7932
 6956TIP3   OH242282   6.327   1.412  12.908  0.7316 -0.2700 -0.5249
 6956TIP3    H142283   6.253   1.443  12.961 -0.4632 -0.8909 -1.8007
 6956TIP3    H242284   6.333   1.318  12.928  0.3993 -0.4674 -1.3055
 6957TIP3   OH242285   6.378   0.622  13.773 -0.4764  0.1330  0.6339
 6957TIP3    H142286   6.446   0.599  13.711  0.4403  1.3147  1.1865
 6957TIP3    H242287   6.315   0.550  13.767  1.4012 -1.5901  0.9965
 6958TIP3   OH242288   5.680   2.054  16.627 -0.2421  0.2896  0.1148
 6958TIP3    H142289   5.678   2.061  16.723  0.2030 -0.8997  0.2110
 6958TIP3    H242290   5.651   2.140  16.597  0.4324  0.9555  1.3207
 6959TIP3   OH242291   1.865   3.701  13.177 -0.1830  0.0411  0.3715
 6959TIP3    H142292   1.943   3.667  13.221 -0.2365 -0.9573 -0.2888
 6959TIP3    H242293   1.892   3.712  13.086 -0.5783  0.4711  0.3059
 6960TIP3   OH242294   0.554   5.557  10.938  0.0808 -0.5717 -0.2169
 6960TIP3    H142295   0.604   5.628  10.898 -0.1510 -0.4694 -0.3341
 6960TIP3    H242296   0.606   5.479  10.922  0.9600 -0.2540  1.0356
 6961TIP3   OH242297   1.652   2.425  16.034 -0.5844 -0.1909 -0.3355
 6961TIP3    H142298   1.602   2.483  15.977 -2.2916 -0.0514  1.2542
 6961TIP3    H242299   1.675   2.350  15.978 -1.7253  0.2024 -1.3491
 6962TIP3   OH242300   5.660   2.901   1.746 -0.0927 -0.1886 -0.3739
 6962TIP3    H142301   5.748   2.916   1.781 -0.1228 -3.0772  1.1258
 6962TIP3    H242302   5.602   2.948   1.806  0.2185 -0.8822  0.4720
 6963TIP3   OH242303   5.772   0.166  11.437  0.2916 -0.0839 -0.0521
 6963TIP3    H142304   5.782   0.086  11.489 -1.3296  0.1655  0.6891
 6963TIP3    H242305   5.679   0.167  11.413  0.0246  2.1721  0.9574
 6964TIP3   OH242306   6.264   3.386   5.868 -0.6697  0.2014  0.2383
 6964TIP3    H142307   6.248   3.403   5.961 -1.7489 -1.5830  0.4020
 6964TIP3    H242308   6.180   3.351   5.836 -0.1311  0.2749 -1.2718
 6965TIP3   OH242309   2.884   1.542  15.713 -0.5436 -0.1798 -0.3538
 6965TIP3    H142310   2.881   1.542  15.809  1.8261 -0.7797 -0.2315
 6965TIP3    H242311   2.917   1.629  15.691 -3.2757  0.7898 -0.7663
 6966TIP3   OH242312   5.921   6.556   0.080  0.0130 -0.3584  0.5145
 6966TIP3    H142313   5.965   6.525   0.159 -0.0581 -1.1605  0.2388
 6966TIP3    H242314   5.859   6.486   0.058 -0.2018  0.0114 -0.0609
 6967TIP3   OH242315   1.808   3.300   4.640 -0.4259  0.9295 -0.0332
 6967TIP3    H142316   1.745   3.337   4.578 -0.0256  0.2206 -0.8786
 6967TIP3    H242317   1.893   3.330   4.610 -0.2863  1.1861  0.6072
 6968TIP3   OH242318   0.544   2.509  13.683  0.4617  0.1523  0.0630
 6968TIP3    H142319   0.551   2.577  13.616  0.4843 -0.3221 -0.4203
 6968TIP3    H242320   0.564   2.427  13.637  2.8731  0.0704  1.1402
 6969TIP3   OH242321   3.850   2.877  17.172  0.0104 -0.5179 -0.2476
 6969TIP3    H142322   3.852   2.970  17.148  0.9443 -0.8957 -1.6951
 6969TIP3    H242323   3.935   2.860  17.213 -0.6755 -0.4341  1.2456
 6970TIP3   OH242324   4.702   4.926   5.086  0.0811 -0.6948  0.3670
 6970TIP3    H142325   4.784   4.909   5.132 -0.1647 -0.0097  1.0716
 6970TIP3    H242326   4.728   4.949   4.996  0.5916 -1.5168  0.3083
 6971TIP3   OH242327   4.491   0.479   1.659  0.0712 -0.3196 -0.0754
 6971TIP3    H142328   4.425   0.452   1.722  0.9264 -0.0839  0.9410
 6971TIP3    H242329   4.571   0.433   1.688  0.5612  0.1142 -0.7365
 6972TIP3   OH242330   5.675   3.276   3.038  0.0756  0.2155 -0.0355
 6972TIP3    H142331   5.695   3.234   3.122  1.0816  2.1635  0.7172
 6972TIP3    H242332   5.612   3.344   3.060 -0.0193  0.4265 -0.9553
 6973TIP3   OH242333   2.254   4.375  16.899 -0.2073 -0.7943 -0.0750
 6973TIP3    H142334   2.167   4.389  16.862  0.0780  0.2095 -0.3941
 6973TIP3    H242335   2.240   4.372  16.994 -0.2070  2.6353  0.0891
 6974TIP3   OH242336   0.828   1.351  16.344  0.2287  0.1350  0.3892
 6974TIP3    H142337   0.865   1.269  16.312  0.5535  0.6023 -0.4450
 6974TIP3    H242338   0.743   1.357  16.301  0.5516  0.6361 -0.1720
 6975TIP3   OH242339   5.928   5.457   2.521 -0.1402 -0.0687 -0.0547
 6975TIP3    H142340   5.995   5.513   2.560 -2.3010  2.5539  0.1185
 6975TIP3    H242341   5.938   5.469   2.427  0.7768 -1.1330 -0.1057
 6976TIP3   OH242342   1.541   4.482  13.966  0.0909 -0.0108  0.3010
 6976TIP3    H142343   1.527   4.494  13.872 -2.2488 -0.7580  0.5395
 6976TIP3    H242344   1.556   4.571  13.999  1.1083  0.2448 -0.7892
 6977TIP3   OH242345   6.478   6.140   3.935  0.7088 -1.0046 -0.3043
 6977TIP3    H142346   6.568   6.120   3.959  1.1137  0.4069 -0.6271
 6977TIP3    H242347   6.469   6.110   3.845  1.1957 -0.0820 -0.6575
 6978TIP3   OH242348   4.687   2.527  11.637 -0.1095  0.0225 -0.0761
 6978TIP3    H142349   4.635   2.602  11.665 -1.5630 -1.0074  0.0610
 6978TIP3    H242350   4.683   2.466  11.710  1.4618 -0.0081  0.0054
 6979TIP3   OH242351   6.290   5.800  12.159 -0.2288  1.0596  0.2176
 6979TIP3    H142352   6.357   5.738  12.188  0.0889  1.6251  0.6862
 6979TIP3    H242353   6.314   5.883  12.200 -0.2820  1.6527 -0.9585
 6980TIP3   OH242354   1.507   1.188  16.537  0.0389 -0.0981 -0.1343
 6980TIP3    H142355   1.438   1.142  16.585 -0.5373 -1.7775 -2.5020
 6980TIP3    H242356   1.464   1.267  16.503  0.2140  0.6353  1.3232
 6981TIP3   OH242357   5.915   5.034   6.196 -0.2787  0.1978 -0.5487
 6981TIP3    H142358   5.833   5.079   6.217 -0.6607 -1.4672  1.7470
 6981TIP3    H242359   5.888   4.949   6.163  0.5072 -1.0018  1.7837
 6982TIP3   OH242360   2.377   0.629   2.344  0.8491 -0.9392  0.2103
 6982TIP3    H142361   2.463   0.665   2.323  0.1789  0.4375 -0.1953
 6982TIP3    H242362   2.394   0.535   2.357  2.0649 -1.0862 -2.0137
 6983TIP3   OH242363   6.086   5.564   6.332 -0.0346  0.0745 -0.5004
 6983TIP3    H142364   6.121   5.492   6.279 -2.4848 -1.2687 -0.3744
 6983TIP3    H242365   6.044   5.520   6.406  0.3813  1.7699  0.7656
 6984TIP3   OH242366   4.518   1.354   0.399 -0.7772 -0.1615 -0.0655
 6984TIP3    H142367   4.450   1.334   0.463  0.1028 -1.5685  0.4531
 6984TIP3    H242368   4.473   1.349   0.314 -2.0273  2.0574  0.4314
 6985TIP3   OH242369   5.759   5.476   6.337  0.4440 -0.0030  0.0163
 6985TIP3    H142370   5.813   5.466   6.415  2.0532 -1.5749 -1.2495
 6985TIP3    H242371   5.671   5.494   6.370  1.3110  0.4439  2.1472
 6986TIP3   OH242372   6.278   4.459  11.854 -0.1507  0.4593 -0.5032
 6986TIP3    H142373   6.351   4.478  11.913  0.0928 -1.1212 -0.2742
 6986TIP3    H242374   6.317   4.408  11.783 -1.2819 -1.8416  0.4573
 6987TIP3   OH242375   0.684   3.562   0.630  0.1314 -0.3468  0.4504
 6987TIP3    H142376   0.748   3.490   0.630 -0.5816 -0.9908 -0.0047
 6987TIP3    H242377   0.641   3.556   0.545  0.0470  0.6080  0.4221
 6988TIP3   OH242378   4.829   3.923  16.251  0.1190  0.3182 -0.2494
 6988TIP3    H142379   4.843   3.997  16.310 -0.5439 -0.1898  0.5492
 6988TIP3    H242380   4.915   3.882  16.244  0.1621  0.2834  0.4895
 6989TIP3   OH242381   4.352   5.189  15.078  0.0885 -0.0416 -0.4686
 6989TIP3    H142382   4.279   5.249  15.089  0.4327  0.5196 -1.2538
 6989TIP3    H242383   4.323   5.127  15.011  0.0832 -0.2145 -0.3083
 6990TIP3   OH242384   5.689   1.384   1.040  0.7182 -0.0837 -0.1108
 6990TIP3    H142385   5.756   1.432   1.088  0.8362  0.9077 -1.2415
 6990TIP3    H242386   5.649   1.327   1.105  0.7151  1.4043  1.2083
 6991TIP3   OH242387   4.715   5.987  13.296 -0.2766  0.0196  0.4919
 6991TIP3    H142388   4.711   5.971  13.391  0.4226 -0.1845  0.4933
 6991TIP3    H242389   4.702   6.082  13.288  0.9248  0.2405  0.9003
 6992TIP3   OH242390   1.382   3.817   1.585 -0.6578  0.5482  0.0288
 6992TIP3    H142391   1.368   3.805   1.679  0.0349 -0.9684 -0.0562
 6992TIP3    H242392   1.295   3.842   1.552 -1.0943  0.2863  0.9466
 6993TIP3   OH242393   5.318   2.517  12.561 -0.2228  0.3151  0.4833
 6993TIP3    H142394   5.285   2.436  12.600  0.2338 -0.2762 -0.3594
 6993TIP3    H242395   5.412   2.514  12.573 -0.1128  0.3022 -0.3410
 6994TIP3   OH242396   4.531   5.932  11.645  0.0590 -0.0220  0.5068
 6994TIP3    H142397   4.540   5.960  11.736 -0.3718  1.9578 -0.0332
 6994TIP3    H242398   4.614   5.955  11.604  0.4931 -1.4887  0.5222
 6995TIP3   OH242399   6.217   4.537   4.892 -0.1324 -0.1946  0.0183
 6995TIP3    H142400   6.208   4.632   4.883 -0.2853 -0.3111 -1.1142
 6995TIP3    H242401   6.269   4.511   4.816 -3.2737 -1.4871 -1.7675
 6996TIP3   OH242402   3.388   0.977   4.544 -0.0613  1.0409 -0.8612
 6996TIP3    H142403   3.320   0.914   4.567 -1.2329  2.5430 -0.1509
 6996TIP3    H242404   3.404   0.963   4.451  0.2224 -0.7907 -0.5621
 6997TIP3   OH242405   4.784   3.477  13.161 -0.2324 -0.4882  0.4603
 6997TIP3    H142406   4.695   3.488  13.128 -0.0945 -0.1155  0.2088
 6997TIP3    H242407   4.808   3.564  13.195  0.2260 -0.4494  0.0497
 6998TIP3   OH242408   0.956   4.270  11.607  0.3114  1.0253 -0.6921
 6998TIP3    H142409   0.921   4.207  11.544 -0.6565 -1.1080  1.8879
 6998TIP3    H242410   1.051   4.261  11.599  0.3303  3.1056 -4.0371
 6999TIP3   OH242411   1.750   4.999   3.682  0.2605 -0.2504  0.1612
 6999TIP3    H142412   1.714   4.987   3.770 -0.2270  0.0223 -0.0001
 6999TIP3    H242413   1.734   4.916   3.637 -0.6878  0.0627 -0.0922
 7000TIP3   OH242414   4.739   5.676   3.101  0.0593  0.2684  0.1210
 7000TIP3    H142415   4.684   5.607   3.139  0.5724 -0.3411 -0.2137
 7000TIP3    H242416   4.679   5.729   3.049  0.0224 -1.2836 -1.4734
 7001TIP3   OH242417   4.713   5.482  16.814  0.1247  0.4766  0.8768
 7001TIP3    H142418   4.718   5.567  16.858 -1.0126  0.5295  0.9064
 7001TIP3    H242419   4.797   5.474  16.768 -0.1116  1.9954  0.1570
 7002TIP3   OH242420   6.205   2.938  11.788  0.1007  0.2675  0.6426
 7002TIP3    H142421   6.278   2.915  11.846  0.6832  0.1917 -0.1201
 7002TIP3    H242422   6.171   2.853  11.758  1.7434  0.3509 -1.5389
 7003TIP3   OH242423   6.482   2.095   3.818 -0.3541 -0.7192  0.7204
 7003TIP3    H142424   6.418   2.153   3.776  0.8668  0.3624  0.3317
 7003TIP3    H242425   6.567   2.131   3.794  0.3941 -0.5079  3.4924
 7004TIP3   OH242426   0.652   6.647  14.511 -0.1919 -0.0659 -0.5455
 7004TIP3    H142427   0.605   6.718  14.467  0.6939  0.9336  0.0926
 7004TIP3    H242428   0.646   6.668  14.604  0.5915 -0.5054 -0.3898
 7005TIP3   OH242429   0.310   6.014   3.743 -0.2203 -0.4641 -0.0426
 7005TIP3    H142430   0.299   6.070   3.667 -0.2628 -0.3006  0.0834
 7005TIP3    H242431   0.363   6.065   3.804 -2.4111  0.4616  1.1323
 7006TIP3   OH242432   5.636   0.285  12.848  0.3342  0.1248 -0.0668
 7006TIP3    H142433   5.651   0.191  12.833 -1.4668 -0.4863  1.6584
 7006TIP3    H242434   5.582   0.312  12.774 -0.8369 -0.7039  0.4586
 7007TIP3   OH242435   2.230   0.994  15.273 -0.2625 -0.2718 -0.1215
 7007TIP3    H142436   2.267   0.946  15.198  3.0410 -2.3664  2.6861
 7007TIP3    H242437   2.152   0.944  15.297  0.4845 -1.5011 -0.2030
 7008TIP3   OH242438   4.420   2.776   1.065  0.7813  0.2515 -0.2275
 7008TIP3    H142439   4.382   2.812   0.985  1.4277  0.7193 -0.3323
 7008TIP3    H242440   4.358   2.799   1.134  0.1136 -0.3481 -0.6264
 7009TIP3   OH242441   5.237   1.720   4.132  1.1579 -0.4346 -0.8425
 7009TIP3    H142442   5.283   1.686   4.209  1.2415 -0.7756 -1.0429
 7009TIP3    H242443   5.156   1.668   4.128 -1.0146  2.5343  1.6109
 7010TIP3   OH242444   5.050   1.211  13.078  0.4990  0.0421 -0.3859
 7010TIP3    H142445   4.977   1.151  13.060  1.2774 -1.5688  1.5852
 7010TIP3    H242446   5.106   1.203  13.001 -1.1871  0.9883 -1.7378
 7011TIP3   OH242447   0.895   4.481   5.641 -0.3584 -0.2643 -0.2661
 7011TIP3    H142448   0.852   4.535   5.707  0.2945 -0.3808  0.2525
 7011TIP3    H242449   0.979   4.458   5.679 -0.1257 -0.6328 -0.9901
 7012TIP3   OH242450   4.259   3.809  10.927 -0.1363 -0.2672 -0.4250
 7012TIP3    H142451   4.331   3.866  10.901 -0.7259  0.4708 -0.4433
 7012TIP3    H242452   4.185   3.867  10.939 -0.8368 -1.0624 -0.7856
 7013TIP3   OH242453   0.741   0.702  12.179 -0.2689 -0.3437  0.3983
 7013TIP3    H142454   0.819   0.709  12.123 -0.4224  1.5874  0.3798
 7013TIP3    H242455   0.757   0.625  12.233  1.2766 -0.4695 -0.2059
 7014TIP3   OH242456   6.549   4.518  11.377  0.0711 -0.1625 -0.3979
 7014TIP3    H142457   6.592   4.532  11.461  0.7633  0.2362 -0.8199
 7014TIP3    H242458   6.488   4.445  11.394 -0.2279  0.3042  0.5999
 7015TIP3   OH242459   0.751   2.907  12.499 -0.6732  0.0810 -0.7839
 7015TIP3    H142460   0.844   2.928  12.491 -0.2486 -1.3385  0.1993
 7015TIP3    H242461   0.706   2.983  12.462  0.8426  1.8725  0.9357
 7016TIP3   OH242462   4.751   4.405   4.931  0.1272 -0.0669 -0.2754
 7016TIP3    H142463   4.793   4.338   4.986 -1.6541  0.5846  1.9537
 7016TIP3    H242464   4.782   4.488   4.967 -0.2604  0.3591 -0.9190
 7017TIP3   OH242465   3.658   5.036   1.847  0.2970  0.3465  0.2055
 7017TIP3    H142466   3.566   5.059   1.843 -0.5129 -2.2930  2.4409
 7017TIP3    H242467   3.702   5.104   1.796 -2.7018  2.5087  0.3875
 7018TIP3   OH242468   4.229   6.734  17.011  0.3678 -0.0157  0.3516
 7018TIP3    H142469   4.190   6.794  16.947 -1.0643 -0.0814  1.1363
 7018TIP3    H242470   4.184   6.754  17.093  0.1312 -1.9140  0.7049
 7019TIP3   OH242471   6.767   2.987  17.214 -0.1113 -0.3471  0.0717
 7019TIP3    H142472   6.776   3.082  17.222 -1.0931 -0.4301  2.3686
 7019TIP3    H242473   6.840   2.952  17.264  0.2848 -0.8077 -0.8284
 7020TIP3   OH242474   5.367   3.529  14.533  0.6039 -0.1491  0.0535
 7020TIP3    H142475   5.461   3.513  14.536  0.5354 -0.6067 -0.2767
 7020TIP3    H242476   5.338   3.519  14.624  0.7752 -0.6174  0.0571
 7021TIP3   OH242477   6.601   1.757   4.233  0.6562  0.0160 -0.3546
 7021TIP3    H142478   6.617   1.836   4.285  0.3059  0.4633 -0.9186
 7021TIP3    H242479   6.509   1.737   4.247  0.6442 -0.0542 -0.5327
 7022TIP3   OH242480   5.931   3.571   0.346 -0.0879 -0.5662 -0.2500
 7022TIP3    H142481   5.979   3.651   0.323 -0.4178 -0.1733  0.4254
 7022TIP3    H242482   5.897   3.538   0.262 -1.8917  1.2478 -0.2586
 7023TIP3   OH242483   4.027   6.388   1.629  0.3042  0.0596  0.6612
 7023TIP3    H142484   4.025   6.308   1.681 -1.2589  0.0370  0.5808
 7023TIP3    H242485   4.051   6.359   1.541 -2.4416 -0.6479  0.0991
 7024TIP3   OH242486   6.139   5.595   4.346  0.1923  0.7452  0.3005
 7024TIP3    H142487   6.114   5.629   4.432  0.8245  0.8924  0.4311
 7024TIP3    H242488   6.211   5.535   4.364 -0.4677 -0.1488 -0.0070
 7025TIP3   OH242489   0.330   3.721   5.726 -0.0717 -0.8156 -0.2092
 7025TIP3    H142490   0.410   3.669   5.725 -0.0342 -0.7625  0.0255
 7025TIP3    H242491   0.347   3.790   5.790  0.1105 -0.1441 -0.9703
 7026TIP3   OH242492   5.429   6.675  12.786  0.1260  0.3792  0.3951
 7026TIP3    H142493   5.508   6.636  12.750  0.5221  2.4276 -1.0362
 7026TIP3    H242494   5.456   6.710  12.872 -0.0454 -1.7224  1.3294
 7027TIP3   OH242495   2.864   6.104  13.556  0.1452  0.1548  0.7455
 7027TIP3    H142496   2.914   6.048  13.497  0.0427 -0.9570  1.6856
 7027TIP3    H242497   2.929   6.141  13.616  0.1274  0.4919  0.5552
 7028TIP3   OH242498   1.276   2.160  16.854 -0.2159  0.7833 -0.4687
 7028TIP3    H142499   1.228   2.243  16.861 -1.1977  0.1266  0.8852
 7028TIP3    H242500   1.209   2.093  16.869  1.4204 -0.1196  3.6596
 7029TIP3   OH242501   1.110   1.518  16.466 -0.5292 -0.0631 -0.0854
 7029TIP3    H142502   1.184   1.465  16.437 -0.8808 -0.1558 -0.8001
 7029TIP3    H242503   1.141   1.609  16.457  0.8256 -0.1431  3.0879
 7030TIP3   OH242504   1.409   1.073   4.097  0.6117  0.0367 -0.4628
 7030TIP3    H142505   1.462   1.052   4.174 -0.9306  1.2285  0.9746
 7030TIP3    H242506   1.456   1.145   4.055  0.4185  0.7705  0.5422
 7031TIP3   OH242507   3.602   6.287   2.895  0.4208 -0.4860 -0.4882
 7031TIP3    H142508   3.635   6.343   2.824 -0.2606  0.9288  0.2883
 7031TIP3    H242509   3.513   6.266   2.869 -0.7304  2.1555  1.1356
 7032TIP3   OH242510   6.264   0.862  16.551  0.1949  0.4421 -0.2626
 7032TIP3    H142511   6.224   0.865  16.464 -1.2457 -0.5238  0.3394
 7032TIP3    H242512   6.316   0.942  16.557 -0.0876  0.7505 -1.8197
 7033TIP3   OH242513   5.528   6.157   4.337  0.2787  0.4059 -0.3799
 7033TIP3    H142514   5.453   6.111   4.298 -0.1113 -1.5082  2.5229
 7033TIP3    H242515   5.488   6.228   4.387  0.4616  0.0507  0.2729
 7034TIP3   OH242516   4.708   1.837  13.304  0.2377 -0.5230  0.5982
 7034TIP3    H142517   4.747   1.892  13.372  0.7456  0.8816 -0.8106
 7034TIP3    H242518   4.735   1.748  13.328  1.9220  0.1267  1.2368
 7035TIP3   OH242519   4.727   4.204   4.473 -0.0949 -0.1906  0.0569
 7035TIP3    H142520   4.798   4.256   4.434  0.1689  0.3965  1.3140
 7035TIP3    H242521   4.692   4.154   4.399  1.6515 -0.5159 -0.5784
 7036TIP3   OH242522   4.713   3.250   4.820  0.1507 -0.4595 -0.1134
 7036TIP3    H142523   4.722   3.161   4.788 -0.4122 -0.8971  0.9119
 7036TIP3    H242524   4.700   3.241   4.914  2.2154  0.8193  0.3369
 7037TIP3   OH242525   2.841   2.628   4.454 -0.6676  0.0161 -0.1922
 7037TIP3    H142526   2.766   2.607   4.510 -0.3361  1.4590  0.8123
 7037TIP3    H242527   2.914   2.637   4.514  0.2424 -0.9055 -1.1244
 7038TIP3   OH242528   6.704   1.173  17.203 -0.4432 -0.2654 -0.4175
 7038TIP3    H142529   6.753   1.142  17.279  0.5409  2.9741  0.3714
 7038TIP3    H242530   6.716   1.105  17.137  1.5488 -1.5525  1.2045
 7039TIP3   OH242531   3.783   3.595  14.052 -0.2360 -0.0269  0.0122
 7039TIP3    H142532   3.780   3.686  14.023  1.7731 -0.2774 -1.0383
 7039TIP3    H242533   3.821   3.547  13.979  1.4879 -1.2442  1.6294
 7040TIP3   OH242534   0.387   5.060  13.056 -0.2834 -0.1457 -0.0258
 7040TIP3    H142535   0.293   5.079  13.054 -0.2472  0.1193  0.7034
 7040TIP3    H242536   0.429   5.145  13.046 -0.1271 -0.1763  0.3410
 7041TIP3   OH242537   0.455   5.447   1.186  0.4203  0.3275  0.1469
 7041TIP3    H142538   0.534   5.473   1.137 -0.4832  1.1636 -0.8870
 7041TIP3    H242539   0.465   5.490   1.271  1.2675  0.1131  0.1635
 7042TIP3   OH242540   0.172   1.674  12.746 -0.4183 -0.6060  1.3627
 7042TIP3    H142541   0.115   1.751  12.738  1.1122  0.3367 -0.9471
 7042TIP3    H242542   0.247   1.705  12.797  0.1577 -0.5568  0.5037
 7043TIP3   OH242543   5.925   5.915   4.207  0.4328  0.2145 -0.0819
 7043TIP3    H142544   5.864   5.921   4.282  1.3666  1.3253  0.6056
 7043TIP3    H242545   5.894   5.982   4.146  0.7046  0.4751  0.0688
 7044TIP3   OH242546   2.033   1.825  12.572 -0.0034  0.0295  0.4850
 7044TIP3    H142547   1.942   1.856  12.563 -0.4038 -1.3941 -0.5235
 7044TIP3    H242548   2.025   1.733  12.597  1.1560 -0.5116 -1.0624
 7045TIP3   OH242549   3.405   6.428  16.538  0.0485 -0.1706 -1.1534
 7045TIP3    H142550   3.428   6.518  16.562 -0.8883  0.3092 -2.0027
 7045TIP3    H242551   3.482   6.376  16.562  0.5058  0.8231 -0.4427
 7046TIP3   OH242552   5.252   5.661  14.805 -0.0700  0.6095 -0.4526
 7046TIP3    H142553   5.334   5.669  14.755  0.2694 -1.2372 -0.2296
 7046TIP3    H242554   5.187   5.704  14.750  1.1887  2.8229 -0.2648
 7047TIP3   OH242555   5.993   2.580   4.245  0.1275  0.0293 -0.2359
 7047TIP3    H142556   5.909   2.588   4.290  0.6291  0.6766  0.5988
 7047TIP3    H242557   5.990   2.647   4.177  0.4805  0.9233  0.6224
 7048TIP3   OH242558   6.449   1.657  14.458 -0.0622 -0.1495 -0.1082
 7048TIP3    H142559   6.406   1.625  14.379  3.1764 -1.3729 -1.4856
 7048TIP3    H242560   6.528   1.702  14.427 -0.2700  2.0207  2.2821
 7049TIP3   OH242561   3.921   6.283   2.843 -0.5487 -0.1772 -0.1837
 7049TIP3    H142562   3.918   6.367   2.797 -2.7839  0.4587  1.0364
 7049TIP3    H242563   3.890   6.303   2.931  2.5284 -1.5962  1.3161
 7050TIP3   OH242564   4.741   3.026  11.975  0.1471  0.2444  0.5068
 7050TIP3    H142565   4.762   3.100  11.919 -0.9136  0.1301 -0.0631
 7050TIP3    H242566   4.682   3.061  12.042 -1.2587 -0.2947 -0.4236
 7051TIP3   OH242567   3.909   5.248   1.111  0.1124  1.0124 -0.7082
 7051TIP3    H142568   3.874   5.166   1.076 -1.5676  0.0455  2.9822
 7051TIP3    H242569   3.841   5.313   1.095 -0.1003  0.8637 -0.4041
 7052TIP3   OH242570   0.959   3.399  16.641  0.2849  0.6869 -0.2862
 7052TIP3    H142571   0.954   3.363  16.729  1.6748  1.6901  0.2356
 7052TIP3    H242572   0.938   3.326  16.583  2.3075 -0.7842  0.7588
 7053TIP3   OH242573   6.075   5.681   0.524 -1.0303 -0.0481  0.1092
 7053TIP3    H142574   6.102   5.770   0.499 -1.6010  0.5005  1.3797
 7053TIP3    H242575   6.132   5.659   0.597  0.4729 -1.5430 -1.4732
 7054TIP3   OH242576   2.680   4.273  12.733 -0.0482  0.5632 -0.4694
 7054TIP3    H142577   2.726   4.321  12.664  1.0724 -0.8469 -0.7278
 7054TIP3    H242578   2.588   4.275  12.707  0.1155  1.7170 -0.9736
 7055TIP3   OH242579   4.695   2.012   5.938  0.4889  0.0961  0.2500
 7055TIP3    H142580   4.648   1.977   6.014  3.0833 -1.3663  1.2304
 7055TIP3    H242581   4.731   1.935   5.894  1.8159  1.1575 -0.5715
 7056TIP3   OH242582   2.036   4.322   1.784  0.2847  0.8839 -0.0362
 7056TIP3    H142583   2.081   4.396   1.742  0.7626 -0.4052 -1.8677
 7056TIP3    H242584   1.969   4.296   1.720  0.7465 -0.8646  0.1803
 7057TIP3   OH242585   6.097   6.397  11.799 -0.0666  0.2118  0.3232
 7057TIP3    H142586   6.056   6.477  11.833 -0.8730  0.1484 -0.4711
 7057TIP3    H242587   6.173   6.383  11.855 -0.4790  0.9921  1.0884
 7058TIP3   OH242588   0.916   0.729   4.910  0.0832  0.6905 -0.0592
 7058TIP3    H142589   0.966   0.797   4.955 -0.6386  1.6222 -0.6673
 7058TIP3    H242590   0.852   0.776   4.857 -1.0909 -0.4664  0.2809
 7059TIP3   OH242591   0.838   6.645  10.923  0.6183 -0.1189 -0.4425
 7059TIP3    H142592   0.787   6.725  10.937 -2.3197 -2.0143  0.1335
 7059TIP3    H242593   0.918   6.675  10.881 -1.2822  2.9173 -2.0704
 7060TIP3   OH242594   2.627   0.253   4.638  0.4114 -0.0995  0.6682
 7060TIP3    H142595   2.667   0.232   4.553 -0.5269 -0.6086  0.3471
 7060TIP3    H242596   2.663   0.338   4.661  0.4427  0.1843 -0.3884
 7061TIP3   OH242597   5.398   3.119  15.637 -0.0212 -0.2169 -0.2742
 7061TIP3    H142598   5.420   3.174  15.562 -0.7575 -2.1776 -1.9693
 7061TIP3    H242599   5.472   3.059  15.646 -0.1531 -0.3056  0.2497
 7062TIP3   OH242600   3.225   2.634   4.075  0.1438 -0.2125 -0.1671
 7062TIP3    H142601   3.312   2.613   4.110  0.1341 -0.6152 -0.3918
 7062TIP3    H242602   3.175   2.661   4.152  0.1752 -0.9350  0.1060
 7063TIP3   OH242603   2.111   5.593  14.778 -0.2194 -0.2401  0.3943
 7063TIP3    H142604   2.171   5.598  14.852 -0.0697 -0.1587  0.2685
 7063TIP3    H242605   2.073   5.680  14.772  0.4172  0.0102 -0.1609
 7064TIP3   OH242606   2.936   6.717  17.131 -0.2964 -0.2095 -0.1579
 7064TIP3    H142607   2.941   6.621  17.129 -0.8897 -0.2286 -0.7141
 7064TIP3    H242608   2.978   6.741  17.214  0.1576 -0.9286 -0.1694
 7065TIP3   OH242609   5.951   6.467   3.514  0.6120 -0.2817 -0.3146
 7065TIP3    H142610   5.904   6.386   3.532  1.9590 -0.6024  1.8494
 7065TIP3    H242611   5.948   6.516   3.596  3.6293 -0.0870 -0.2553
 7066TIP3   OH242612   4.915   4.573  16.428  0.0504  0.0206 -0.2644
 7066TIP3    H142613   4.836   4.620  16.400  0.6905 -0.5824 -3.2331
 7066TIP3    H242614   4.887   4.524  16.505 -2.2407  0.5044 -0.7371
 7067TIP3   OH242615   5.070   3.953   5.344  0.2230 -0.4833  0.0540
 7067TIP3    H142616   5.020   3.880   5.307  1.2497 -1.0112 -0.2868
 7067TIP3    H242617   5.008   3.996   5.404 -1.0164 -0.4463 -1.2290
 7068TIP3   OH242618   5.952   5.008  12.235 -0.1810  0.6564 -0.1294
 7068TIP3    H142619   5.981   5.004  12.326  0.4100  2.3368 -0.2133
 7068TIP3    H242620   6.008   4.945  12.190  0.6584  1.0086  0.4010
 7069TIP3   OH242621   6.745   5.680   3.374 -0.2267  0.7126  0.1230
 7069TIP3    H142622   6.718   5.676   3.466 -1.8481 -0.0534 -0.3700
 7069TIP3    H242623   6.838   5.703   3.378  0.4128 -1.9155  2.0649
 7070TIP3   OH242624   3.774   5.405  15.198 -0.1426  0.4669 -0.2411
 7070TIP3    H142625   3.858   5.359  15.204  1.5436  3.1932 -1.7712
 7070TIP3    H242626   3.790   5.489  15.242 -1.4644  1.8205 -2.2597
 7071TIP3   OH242627   3.575   0.395   3.191  0.1456 -0.1069  0.2276
 7071TIP3    H142628   3.595   0.389   3.284  2.3424 -1.0836 -0.2836
 7071TIP3    H242629   3.604   0.482   3.166  1.4505 -0.5866  0.0373
 7072TIP3   OH242630   2.748   5.408  12.533 -0.1218 -0.3050 -0.1642
 7072TIP3    H142631   2.735   5.321  12.571  0.3227 -0.0172  0.6649
 7072TIP3    H242632   2.661   5.437  12.507 -0.2640 -1.0167 -0.4782
 7073TIP3   OH242633   6.453   3.366   1.971  0.3787 -0.2842  1.0495
 7073TIP3    H142634   6.370   3.369   1.924  1.0537  1.1983 -0.0741
 7073TIP3    H242635   6.478   3.273   1.969  1.2574 -0.0211 -3.0629
 7074TIP3   OH242636   1.358   4.349  13.128 -0.0964  0.2178 -0.3879
 7074TIP3    H142637   1.397   4.280  13.075  0.2117 -0.4042  0.6292
 7074TIP3    H242638   1.387   4.430  13.088  0.7619 -0.2469 -0.7123
 7075TIP3   OH242639   5.854   0.973  15.900  0.8133  0.2866 -1.0848
 7075TIP3    H142640   5.787   0.904  15.903  2.9301 -1.9336 -2.4261
 7075TIP3    H242641   5.843   1.012  15.813  2.2513 -1.2095 -1.9835
 7076TIP3   OH242642   1.334   2.394  16.654 -0.0008 -0.2231  0.3648
 7076TIP3    H142643   1.266   2.436  16.601  0.2502 -0.5175 -0.1827
 7076TIP3    H242644   1.416   2.433  16.624  0.3849 -2.1084 -1.1343
 7077TIP3   OH242645   5.851   5.491   5.673 -0.0087 -0.0967 -0.0068
 7077TIP3    H142646   5.806   5.575   5.681 -2.2915 -1.2435 -0.2206
 7077TIP3    H242647   5.928   5.509   5.620 -1.4810  1.4977 -1.6476
 7078TIP3   OH242648   3.694   3.908   2.069 -0.0395  0.0469 -0.2052
 7078TIP3    H142649   3.726   3.998   2.073 -1.7988  0.7061 -0.5260
 7078TIP3    H242650   3.616   3.913   2.014 -0.2184 -1.6555 -0.1176
 7079TIP3   OH242651   3.410   3.313   5.799 -0.1143  0.1056  0.0955
 7079TIP3    H142652   3.465   3.308   5.721 -1.3581 -0.6974 -0.7594
 7079TIP3    H242653   3.427   3.400   5.835  0.2871  0.5902 -1.2294
 7080TIP3   OH242654   0.643   0.036   1.897 -0.1608 -0.1332 -0.5868
 7080TIP3    H142655   0.738   0.051   1.903 -0.2832  0.6068 -0.5289
 7080TIP3    H242656   0.622   0.053   1.805 -0.3650  0.4144 -0.4370
 7081TIP3   OH242657   1.281   3.538  13.228 -0.4937 -0.2794  0.1773
 7081TIP3    H142658   1.231   3.472  13.179 -1.8809  0.9966 -0.1963
 7081TIP3    H242659   1.234   3.548  13.311 -0.4949  0.4688  0.0950
 7082TIP3   OH242660   6.383   1.650  11.101 -0.5480 -0.1490  0.2937
 7082TIP3    H142661   6.389   1.555  11.110  0.7218 -0.3128 -1.7880
 7082TIP3    H242662   6.302   1.664  11.051 -0.9699 -0.0899  0.9841
 7083TIP3   OH242663   2.440   3.366   3.703  0.2452  0.3011  0.1882
 7083TIP3    H142664   2.511   3.335   3.759 -1.7299 -1.3827  1.8345
 7083TIP3    H242665   2.405   3.287   3.662 -1.9075  0.8466  0.9011
 7084TIP3   OH242666   0.989   2.155  16.404 -0.0943 -0.1053  0.3982
 7084TIP3    H142667   0.992   2.230  16.344  2.2145 -0.3085  0.2099
 7084TIP3    H242668   0.897   2.149  16.430 -0.6256  1.7261 -0.9279
 7085TIP3   OH242669   4.624   1.180  11.060  0.3441  0.6619 -0.6592
 7085TIP3    H142670   4.671   1.102  11.090 -0.0030 -0.4009 -2.7447
 7085TIP3    H242671   4.590   1.156  10.974 -0.2467  2.9406 -1.1112
 7086TIP3   OH242672   0.853   0.341  11.423  0.0261 -0.0529  0.9185
 7086TIP3    H142673   0.876   0.419  11.371 -0.8694  1.1310  2.2541
 7086TIP3    H242674   0.842   0.272  11.359 -1.0967  1.3965 -0.4898
 7087TIP3   OH242675   4.501   4.773   0.506  0.3805 -0.0283  0.5570
 7087TIP3    H142676   4.562   4.844   0.524  0.1624  0.3443 -0.1207
 7087TIP3    H242677   4.543   4.695   0.542  1.4301  0.1574 -0.2227
 7088TIP3   OH242678   2.786   3.200  17.092  0.1253  0.4117  0.3537
 7088TIP3    H142679   2.859   3.175  17.148  1.3113  0.4295 -1.1683
 7088TIP3    H242680   2.713   3.213  17.153  1.5726  1.1524  1.9624
 7089TIP3   OH242681   4.814   6.174  12.741  0.1876 -0.4804  0.1457
 7089TIP3    H142682   4.792   6.124  12.662 -1.2127 -0.2368  0.3553
 7089TIP3    H242683   4.747   6.243  12.744  1.4684  0.7680  0.4274
 7090TIP3   OH242684   4.708   1.048  12.180  0.3563  0.0787  0.8281
 7090TIP3    H142685   4.733   1.002  12.100 -1.3193 -0.7982  0.7993
 7090TIP3    H242686   4.725   0.986  12.251  2.4161  1.0667  1.2593
 7091TIP3   OH242687   5.967   1.589   2.008 -0.1914  0.5685 -0.0267
 7091TIP3    H142688   6.051   1.552   2.034 -0.8237 -0.9665 -0.1589
 7091TIP3    H242689   5.949   1.656   2.074  1.6113  1.6137 -0.5690
 7092TIP3   OH242690   0.015   4.480   3.690 -0.6168  0.0619 -0.5761
 7092TIP3    H142691   0.053   4.568   3.694  1.1397 -0.6579 -0.6467
 7092TIP3    H242692  -0.070   4.491   3.648 -0.4649  1.7431 -0.4461
 7093TIP3   OH242693   3.163   0.237   2.487 -0.1124  0.5015 -0.5240
 7093TIP3    H142694   3.192   0.157   2.442  0.3228  0.2806  0.1488
 7093TIP3    H242695   3.087   0.209   2.539  1.5965 -0.0588  1.7313
 7094TIP3   OH242696   5.609   0.518  13.908 -0.0358 -0.3171 -0.1812
 7094TIP3    H142697   5.684   0.561  13.947  0.0959  0.7861 -1.5967
 7094TIP3    H242698   5.586   0.573  13.832 -0.8905 -1.8235 -1.0519
 7095TIP3   OH242699   6.435   1.804   5.777 -0.2460  0.2363 -0.3469
 7095TIP3    H142700   6.478   1.876   5.731  0.3750  0.5444  0.6834
 7095TIP3    H242701   6.363   1.846   5.824 -1.2034 -0.1590 -1.4579
 7096TIP3   OH242702   6.450   2.813   2.758 -0.1225 -0.2550 -0.0755
 7096TIP3    H142703   6.506   2.892   2.760 -1.4601  0.6868  0.8847
 7096TIP3    H242704   6.440   2.789   2.850 -1.4123 -0.3368 -0.2320
 7097TIP3   OH242705   4.700   6.040   2.948  0.0701 -0.2515  0.0883
 7097TIP3    H142706   4.719   6.040   3.042 -0.1536 -1.9139  0.1470
 7097TIP3    H242707   4.662   5.954   2.931 -0.2830  0.1908 -1.4553
 7098TIP3   OH242708   3.308   0.842   2.115  0.1221  0.2812  0.1474
 7098TIP3    H142709   3.276   0.805   2.032  0.4994 -0.3115  0.2672
 7098TIP3    H242710   3.390   0.885   2.092  0.7623 -0.7897  0.4100
 7099TIP3   OH242711   3.381   1.897   4.752 -0.4238 -0.1434  0.7763
 7099TIP3    H142712   3.461   1.939   4.783  0.1767  0.5866 -1.6581
 7099TIP3    H242713   3.312   1.963   4.765  0.0031  0.5361 -0.2922
 7100TIP3   OH242714   4.797   3.180  16.930 -0.1472  0.5184 -0.0002
 7100TIP3    H142715   4.819   3.086  16.930 -1.4719  0.1943 -0.4857
 7100TIP3    H242716   4.865   3.220  16.876 -1.7811 -0.7427 -3.1583
 7101TIP3   OH242717   6.015   5.680   4.125  0.0710 -0.2675 -0.4355
 7101TIP3    H142718   6.057   5.636   4.199  0.3547  1.5760  0.5155
 7101TIP3    H242719   5.976   5.759   4.162  0.6020  0.9119 -2.3183
 7102TIP3   OH242720   5.118   2.997  13.749  0.2483 -0.0553  0.2909
 7102TIP3    H142721   5.061   3.064  13.710 -0.3203 -1.4409 -1.2988
 7102TIP3    H242722   5.071   2.915  13.736  2.8519 -1.3108 -1.5476
 7103TIP3   OH242723   2.494   0.854   2.106  0.0528 -0.1414 -0.7181
 7103TIP3    H142724   2.559   0.784   2.111 -0.2642 -0.5404 -1.9902
 7103TIP3    H242725   2.416   0.812   2.071 -1.0209  0.2649  1.1164
 7104TIP3   OH242726   4.105   2.288  13.453  0.5204 -0.1520 -0.1881
 7104TIP3    H142727   4.180   2.232  13.432  0.7177  0.2632 -0.5912
 7104TIP3    H242728   4.143   2.374  13.468  0.3452 -0.3676  1.5607
 7105TIP3   OH242729   4.010   6.373  11.486 -0.3363 -0.1464  0.0969
 7105TIP3    H142730   3.915   6.362  11.486 -0.5156  1.1225 -1.1149
 7105TIP3    H242731   4.041   6.313  11.418 -0.2779 -0.5607  0.4934
 7106TIP3   OH242732   4.793   5.779  11.976  0.0543 -0.4720 -0.0275
 7106TIP3    H142733   4.860   5.813  12.035 -0.0097  0.5514 -0.5494
 7106TIP3    H242734   4.842   5.731  11.909  0.2690  0.2573 -0.3958
 7107TIP3   OH242735   6.249   5.671   5.529  0.1257  0.0198  0.7491
 7107TIP3    H142736   6.222   5.685   5.619 -0.0998 -0.3451  0.7371
 7107TIP3    H242737   6.220   5.582   5.508  0.1846  0.0993  0.3231
 7108TIP3   OH242738   3.461   5.072   0.271  0.0211 -0.3512  0.0458
 7108TIP3    H142739   3.514   5.010   0.321 -2.3748 -0.1586  2.9779
 7108TIP3    H242740   3.502   5.157   0.288 -0.6114 -0.3235  1.4696
 7109TIP3   OH242741   2.037   5.043  11.639  0.3157  0.2846  0.4958
 7109TIP3    H142742   2.125   5.007  11.628  0.3593  0.3319  0.7033
 7109TIP3    H242743   2.038   5.086  11.724 -0.7358 -2.1230  1.7651
 7110TIP3   OH242744   3.204   2.478  14.585 -1.1076  0.0124 -0.0590
 7110TIP3    H142745   3.141   2.436  14.527 -0.0006  0.4671 -1.6318
 7110TIP3    H242746   3.224   2.412  14.651 -2.0264 -0.6877 -0.4711
 7111TIP3   OH242747   3.125   3.781  14.636 -0.4403  0.3806  0.4702
 7111TIP3    H142748   3.137   3.812  14.546 -0.4642  2.5672  1.1962
 7111TIP3    H242749   3.116   3.686  14.628 -0.6647  0.5820 -1.8555
 7112TIP3   OH242750   6.230   0.221  16.045  0.2629  0.0173 -0.6522
 7112TIP3    H142751   6.237   0.241  16.138  2.0613 -1.7646 -0.3755
 7112TIP3    H242752   6.271   0.295  16.001 -1.1048  1.1389 -0.0893
 7113TIP3   OH242753   4.899   1.101  16.670 -0.6836 -0.1967 -0.2698
 7113TIP3    H142754   4.942   1.060  16.595 -0.9482  1.7108 -1.4926
 7113TIP3    H242755   4.952   1.178  16.689 -1.3135  0.0024  0.7282
 7114TIP3   OH242756   4.825   6.767   5.977  0.0801 -0.0274 -0.2248
 7114TIP3    H142757   4.811   6.857   6.005  2.5018 -0.0925  1.3137
 7114TIP3    H242758   4.879   6.774   5.898 -2.8348 -0.0324 -2.2955
 7115TIP3   OH242759   6.590   6.033   1.203  0.2224  0.5819  0.4903
 7115TIP3    H142760   6.655   5.971   1.236  1.5763  1.5898 -0.2075
 7115TIP3    H242761   6.536   6.055   1.278  1.5888  0.8047  1.4274
 7116TIP3   OH242762   5.654   4.885   4.855 -0.4254  0.0084 -0.2232
 7116TIP3    H142763   5.591   4.866   4.786 -0.9514  1.3318 -0.1323
 7116TIP3    H242764   5.641   4.978   4.874  0.9208  0.0754  0.4399
 7117TIP3   OH242765   1.604   4.021   0.021  0.1112  0.4091  0.7084
 7117TIP3    H142766   1.672   3.963   0.057  0.4630  1.6251  2.0527
 7117TIP3    H242767   1.650   4.102   0.001 -0.7172  0.8344  0.5227
 7118TIP3   OH242768   2.410   2.821   3.351  0.2437  0.1103 -0.2600
 7118TIP3    H142769   2.319   2.800   3.333 -0.1791  1.9196 -0.2705
 7118TIP3    H242770   2.449   2.737   3.376 -1.5094 -0.6104  0.1434
 7119TIP3   OH242771   3.882   1.715   4.816  0.4082 -0.2130  0.7444
 7119TIP3    H142772   3.829   1.722   4.895 -2.5162 -0.6887 -1.0932
 7119TIP3    H242773   3.865   1.796   4.768  2.1822  0.0832  0.5735
 7120TIP3   OH242774   5.753   6.526  10.730  0.0534  0.3641  0.4335
 7120TIP3    H142775   5.747   6.486  10.817  0.4304 -0.5661  0.0364
 7120TIP3    H242776   5.662   6.534  10.701 -0.1079  1.2360  1.1567
 7121TIP3   OH242777   0.068   6.287   4.081  0.1953 -0.4943 -0.0562
 7121TIP3    H142778   0.023   6.202   4.076 -0.4995 -0.1370 -0.0033
 7121TIP3    H242779   0.059   6.323   3.992 -1.8706  0.6973  0.5874
 7122TIP3   OH242780   5.298   4.314  14.336  0.0837  0.2630 -0.2539
 7122TIP3    H142781   5.391   4.323  14.316  0.2722  0.5031  0.7033
 7122TIP3    H242782   5.259   4.278  14.256  0.9119  0.6341 -0.8278
 7123TIP3   OH242783   6.038   2.922  13.818  0.2000  0.0695  0.6867
 7123TIP3    H142784   6.034   2.899  13.911  2.3088  2.1090  1.3339
 7123TIP3    H242785   6.132   2.932  13.800 -0.3084  2.4342 -0.9371
 7124TIP3   OH242786   6.459   1.377   0.538  0.5554 -0.2668  0.1638
 7124TIP3    H142787   6.485   1.466   0.517  0.0098  0.0040  0.6264
 7124TIP3    H242788   6.437   1.379   0.631 -0.2786 -0.6860 -0.0137
 7125TIP3   OH242789   1.602   3.573  16.296 -0.0662  0.4617 -0.0615
 7125TIP3    H142790   1.653   3.568  16.377 -0.5468  2.2551  0.3887
 7125TIP3    H242791   1.532   3.509  16.308  1.1555 -0.8917 -0.0263
 7126TIP3   OH242792   3.562   4.475  16.806 -0.0617  0.3567 -0.2464
 7126TIP3    H142793   3.551   4.410  16.876 -0.2489  3.2907  2.6134
 7126TIP3    H242794   3.532   4.557  16.846  0.0759  2.1879 -3.7545
 7127TIP3   OH242795   1.951   0.974  14.951 -0.5943 -0.2811  0.5063
 7127TIP3    H142796   2.031   0.945  14.907 -0.1926  1.2673  0.1872
 7127TIP3    H242797   1.904   0.893  14.971  0.4752 -1.1435 -0.3944
 7128TIP3   OH242798   0.611   0.084  12.323 -0.2336  0.1538  0.1761
 7128TIP3    H142799   0.557   0.131  12.386 -1.2297 -0.5830 -0.1114
 7128TIP3    H242800   0.574   0.109  12.238  1.0558  1.0896 -0.1110
 7129TIP3   OH242801   4.815   1.867  12.320  0.2593  0.5022  0.1784
 7129TIP3    H142802   4.837   1.866  12.227 -0.8157  1.7125 -0.1012
 7129TIP3    H242803   4.895   1.897  12.363  0.3722  1.1504 -0.4784
 7130TIP3   OH242804   3.425   3.838  12.696  0.1463 -0.1561 -0.0654
 7130TIP3    H142805   3.494   3.885  12.743  0.2643  0.1192 -0.5137
 7130TIP3    H242806   3.348   3.844  12.754  0.9664 -1.9943  1.2726
 7131TIP3   OH242807   3.093   2.515  16.950  0.1808 -0.1301  0.0922
 7131TIP3    H142808   3.164   2.569  16.986  1.2321 -1.2048 -0.3305
 7131TIP3    H242809   3.138   2.445  16.902 -1.1690 -1.4380  0.7040
 7132TIP3   OH242810   5.208   3.585  10.975 -0.4681  0.4798 -0.6111
 7132TIP3    H142811   5.208   3.678  10.956 -1.1961  0.7588  0.6551
 7132TIP3    H242812   5.294   3.554  10.946 -0.3830  1.4596 -1.4172
 7133TIP3   OH242813   0.347   0.032  14.125  0.1906 -0.1503 -0.3656
 7133TIP3    H142814   0.282   0.097  14.098  1.4873  1.8036  1.0851
 7133TIP3    H242815   0.392   0.008  14.044 -0.3125  0.7545 -0.9234
 7134TIP3   OH242816   5.302   2.526  13.134 -0.0227 -0.1284 -0.7889
 7134TIP3    H142817   5.385   2.574  13.142 -1.2357  1.8791  0.3177
 7134TIP3    H242818   5.326   2.434  13.143  2.2569  0.3332 -1.9505
 7135TIP3   OH242819   2.249   2.592   0.309  0.0694 -0.2009 -0.1310
 7135TIP3    H142820   2.291   2.607   0.224  0.2124 -1.2572 -0.2548
 7135TIP3    H242821   2.243   2.497   0.317  1.8070 -0.1708  1.9168
 7136TIP3   OH242822   1.170   4.842   3.073 -0.0726  0.2960 -0.5159
 7136TIP3    H142823   1.186   4.759   3.029 -1.6445  0.1113 -0.7888
 7136TIP3    H242824   1.164   4.906   3.002  1.5182  0.7118 -0.2816
 7137TIP3   OH242825   5.244   6.674  14.282 -0.6878 -0.2185  0.2593
 7137TIP3    H142826   5.185   6.679  14.208  1.6182  1.5474 -1.5574
 7137TIP3    H242827   5.242   6.762  14.321  1.9334  0.3997 -0.8612
 7138TIP3   OH242828   3.865   4.468  13.884 -0.0270 -0.5265 -0.0097
 7138TIP3    H142829   3.825   4.533  13.826 -0.8700 -0.5088  0.5828
 7138TIP3    H242830   3.951   4.504  13.904 -0.2136  0.0599 -0.2536
 7139TIP3   OH242831   2.362   3.526  12.023  0.2308 -0.3839  0.4844
 7139TIP3    H142832   2.457   3.538  12.031  0.0100  0.9758  1.1482
 7139TIP3    H242833   2.341   3.561  11.936  0.1844  0.3328  0.7804
 7140TIP3   OH242834   5.868   1.598  14.406  0.4304 -0.6714 -0.1079
 7140TIP3    H142835   5.841   1.689  14.405 -1.2236 -1.1558 -1.1819
 7140TIP3    H242836   5.929   1.590  14.333 -0.0822 -0.6224 -0.5402
 7141TIP3   OH242837   6.180   5.844  15.064  0.2746  0.3229 -0.2803
 7141TIP3    H142838   6.159   5.936  15.079  0.6980  0.4249 -0.2872
 7141TIP3    H242839   6.105   5.809  15.016  0.4048  0.8261 -0.8425
 7142TIP3   OH242840   1.675   6.325   0.753 -0.7331  0.3925  0.1771
 7142TIP3    H142841   1.656   6.415   0.778  0.5627  0.6900  0.1132
 7142TIP3    H242842   1.761   6.329   0.711 -0.9107 -0.7860 -0.3147
 7143TIP3   OH242843   4.716   0.074   1.778  0.5853 -0.3678 -0.5422
 7143TIP3    H142844   4.775   0.007   1.814  0.1237 -0.2597  0.4428
 7143TIP3    H242845   4.634   0.027   1.761  0.5672 -0.2574 -0.7609
 7144TIP3   OH242846   0.807   2.570  13.032 -0.1360  0.0919  0.3931
 7144TIP3    H142847   0.757   2.511  12.975 -1.4993  0.1163  1.5471
 7144TIP3    H242848   0.836   2.640  12.973  1.8292 -1.8636 -1.0849
 7145TIP3   OH242849   2.616   3.898  12.727  0.3257  0.0723 -0.5210
 7145TIP3    H142850   2.640   3.936  12.643  1.4133  0.0081 -0.2452
 7145TIP3    H242851   2.522   3.916  12.735  0.7249  2.3870 -0.5594
 7146TIP3   OH242852   1.185   0.644  11.850 -0.2436 -0.3133 -0.0747
 7146TIP3    H142853   1.269   0.600  11.859 -0.7532 -1.1582  0.6974
 7146TIP3    H242854   1.151   0.614  11.766 -0.0606 -0.4850 -0.0878
 7147TIP3   OH242855   2.191   0.887   2.894  0.1356  0.5348 -0.3131
 7147TIP3    H142856   2.280   0.865   2.920 -0.2859  1.2958  1.8519
 7147TIP3    H242857   2.200   0.971   2.848  1.1657 -1.8470 -4.7493
 7148TIP3   OH242858   3.539   2.237  16.143  0.5151 -0.4304 -0.2524
 7148TIP3    H142859   3.554   2.266  16.233 -0.1877 -0.1965 -0.2099
 7148TIP3    H242860   3.568   2.146  16.143  0.3678 -0.4808  0.2511
 7149TIP3   OH242861   4.519   4.005   3.481 -0.3844  0.3500  0.3749
 7149TIP3    H142862   4.439   4.051   3.459 -0.7886 -0.3212  0.4115
 7149TIP3    H242863   4.586   4.073   3.488 -0.8954  0.8799  0.0864
 7150TIP3   OH242864   5.476   5.526  15.400  0.5026 -0.3179  0.1776
 7150TIP3    H142865   5.519   5.558  15.321  0.8577  0.7143  0.7921
 7150TIP3    H242866   5.405   5.588  15.416  1.5629  0.5187  1.7090
 7151TIP3   OH242867   4.853   4.768  13.235  0.8544 -0.0249 -0.5027
 7151TIP3    H142868   4.898   4.714  13.300  1.7605  0.2339 -0.9185
 7151TIP3    H242869   4.770   4.723  13.220  0.2485  0.3738  1.4995
 7152TIP3   OH242870   2.708   5.176   1.141  0.1265 -0.2533 -0.5454
 7152TIP3    H142871   2.789   5.140   1.105 -0.8522 -0.8215 -2.2494
 7152TIP3    H242872   2.730   5.266   1.164  1.0804 -0.2328 -1.5015
 7153TIP3   OH242873   0.954   3.967  15.257  0.0708  0.0250 -0.2109
 7153TIP3    H142874   0.976   3.934  15.170 -0.9085 -1.4310  0.0746
 7153TIP3    H242875   0.931   3.889  15.307  1.0895  0.7795  1.5102
 7154TIP3   OH242876   3.041   5.753   1.325  0.2494 -0.1767  0.1633
 7154TIP3    H142877   3.022   5.709   1.242 -0.0106 -1.1682  0.7458
 7154TIP3    H242878   3.070   5.841   1.299 -0.1775 -0.3573 -0.9601
 7155TIP3   OH242879   5.028   2.436  12.894 -0.3501 -0.7646  0.2444
 7155TIP3    H142880   5.000   2.368  12.832 -0.0156 -0.0311 -0.7189
 7155TIP3    H242881   5.113   2.406  12.925 -1.4321 -2.1680  1.9208
 7156TIP3   OH242882   3.421   3.260   4.759  0.3445 -0.0668 -0.4618
 7156TIP3    H142883   3.394   3.343   4.720  1.2166  0.5959  0.3249
 7156TIP3    H242884   3.339   3.215   4.778 -0.1720  1.2478  0.4630
 7157TIP3   OH242885   0.504   6.054   5.156 -0.1044  0.0538  0.7746
 7157TIP3    H142886   0.472   6.138   5.122  1.3257 -0.6740 -2.5643
 7157TIP3    H242887   0.585   6.077   5.203 -0.6273  0.7508  1.3415
 7158TIP3   OH242888   6.243   2.514  15.103 -0.7163  0.0570  0.9453
 7158TIP3    H142889   6.287   2.600  15.098  1.8552 -1.3060 -1.0023
 7158TIP3    H242890   6.272   2.478  15.187  1.5059 -0.5645 -0.0423
 7159TIP3   OH242891   1.678   0.998  11.435 -0.1487 -0.2784  0.2159
 7159TIP3    H142892   1.643   0.947  11.508 -0.1540 -1.2520 -0.4395
 7159TIP3    H242893   1.730   1.067  11.475 -0.5067 -0.5483  1.1440
 7160TIP3   OH242894   5.179   2.213   4.490 -0.0295  0.5239 -0.3663
 7160TIP3    H142895   5.197   2.134   4.542 -2.8658  0.0312 -0.0702
 7160TIP3    H242896   5.108   2.257   4.537 -0.5793  1.6476 -2.1886
 7161TIP3   OH242897   6.566   5.833  10.791 -1.0733  0.1108  0.2622
 7161TIP3    H142898   6.476   5.800  10.792  0.0029 -3.0081  1.5047
 7161TIP3    H242899   6.601   5.808  10.877  0.9751  1.2907 -0.1985
 7162TIP3   OH242900   1.971   2.032   1.263 -0.2220  0.3809  0.2417
 7162TIP3    H142901   1.986   1.943   1.296 -0.5429  0.2390  0.0123
 7162TIP3    H242902   2.026   2.037   1.184  1.5904  1.1805  1.5296
 7163TIP3   OH242903   0.780   2.184  13.548  0.0285  0.0127 -0.0869
 7163TIP3    H142904   0.792   2.177  13.642  0.6751 -1.1686 -0.2356
 7163TIP3    H242905   0.852   2.239  13.518  1.7258 -2.2274 -0.2588
 7164TIP3   OH242906   2.711   1.321  16.861  0.7544 -0.4424 -0.0571
 7164TIP3    H142907   2.690   1.382  16.932  1.7260 -0.4978  0.2971
 7164TIP3    H242908   2.725   1.237  16.905  1.3474 -0.4809 -0.3082
 7165TIP3   OH242909   3.614   0.848   5.281 -0.0957  0.1421 -0.0338
 7165TIP3    H142910   3.709   0.862   5.285  0.1154 -1.3015  0.4251
 7165TIP3    H242911   3.601   0.761   5.319 -1.6768  0.5869  0.4901
 7166TIP3   OH242912   4.953   1.953   4.446  0.4381 -0.2109  0.2212
 7166TIP3    H142913   4.871   1.918   4.412  1.3319 -1.6223 -0.5207
 7166TIP3    H242914   4.934   2.044   4.467 -0.5402  0.2864 -2.6696
 7167TIP3   OH242915   6.434   2.797   1.441  0.0936 -0.3671  0.5438
 7167TIP3    H142916   6.472   2.823   1.525  0.5222  0.9785 -0.0583
 7167TIP3    H242917   6.418   2.703   1.450  0.2611 -0.2570  2.0794
 7168TIP3   OH242918   6.646   2.481  11.466 -0.2109  0.2710  0.3066
 7168TIP3    H142919   6.689   2.404  11.427  0.5952  1.0488 -0.3513
 7168TIP3    H242920   6.681   2.555  11.417 -1.0630  1.0562  0.8802
 7169TIP3   OH242921   6.049   0.602   0.842 -0.3641 -0.3269  0.2827
 7169TIP3    H142922   6.122   0.660   0.862  0.2686 -1.3844  1.0888
 7169TIP3    H242923   6.065   0.523   0.895 -0.5141 -1.7777 -1.7534
 7170TIP3   OH242924   2.083   3.472   2.868  0.0787  0.2867 -0.1100
 7170TIP3    H142925   2.042   3.385   2.870  1.0128 -0.1506  0.5419
 7170TIP3    H242926   2.125   3.480   2.953 -1.2340  2.0024  0.3878
 7171TIP3   OH242927   0.707   2.121  11.254 -0.0927  0.4678  0.1606
 7171TIP3    H142928   0.779   2.124  11.317  0.8406  2.2014 -0.9453
 7171TIP3    H242929   0.736   2.059  11.187 -0.4166 -0.1905  0.6209
 7172TIP3   OH242930   1.336   6.073  11.105 -0.3660 -0.0947 -0.2110
 7172TIP3    H142931   1.362   6.051  11.195 -2.5698 -2.9742 -0.2068
 7172TIP3    H242932   1.417   6.068  11.055  0.5914 -0.1562  1.3199
 7173TIP3   OH242933   0.753   3.893   3.493  0.1391  0.2436  0.1937
 7173TIP3    H142934   0.676   3.873   3.441  0.3195 -0.5033  0.2084
 7173TIP3    H242935   0.822   3.838   3.455  0.9384  1.7324 -0.5522
 7174TIP3   OH242936   2.027   1.770   1.360 -0.1935 -0.0192  0.2862
 7174TIP3    H142937   2.122   1.779   1.356 -0.1155 -0.4427  0.9189
 7174TIP3    H242938   2.014   1.691   1.413 -0.8799 -0.8315 -1.0678
 7175TIP3   OH242939   5.977   1.952   4.533  0.2331  0.2012  0.0496
 7175TIP3    H142940   6.050   2.002   4.568  1.2397 -1.1103 -0.1554
 7175TIP3    H242941   5.963   1.988   4.446 -1.2752  2.4228  1.1608
 7176TIP3   OH242942   1.659   4.930   4.202  0.3063 -0.0716 -0.5803
 7176TIP3    H142943   1.645   4.964   4.113 -2.0846 -0.4599 -0.3690
 7176TIP3    H242944   1.663   4.835   4.191  0.8186 -0.0792 -0.3629
 7177TIP3   OH242945   1.086   0.548  15.921 -0.4604  0.2756  0.5893
 7177TIP3    H142946   1.064   0.457  15.942  1.4626 -0.3655 -0.1169
 7177TIP3    H242947   1.066   0.596  16.001 -1.1443 -0.8141  1.0895
 7178TIP3   OH242948   5.596   5.375   1.687  0.3824  0.2087  0.2425
 7178TIP3    H142949   5.556   5.295   1.652 -0.0399  1.9400 -3.4936
 7178TIP3    H242950   5.577   5.373   1.781 -2.6047 -2.3503 -0.3454
 7179TIP3   OH242951   3.247   4.625  13.144  0.3227  0.6826 -0.0586
 7179TIP3    H142952   3.204   4.709  13.163  0.7208  0.4442  2.1225
 7179TIP3    H242953   3.322   4.624  13.204 -0.5920 -1.9416  1.0945
 7180TIP3   OH242954   1.492   0.494  16.839 -0.1083  0.2492  1.0466
 7180TIP3    H142955   1.435   0.426  16.875  1.2617  0.1194  3.0354
 7180TIP3    H242956   1.526   0.456  16.758  1.5331 -1.9152  2.7140
 7181TIP3   OH242957   3.491   0.963  12.884  0.2893  0.1555  0.0269
 7181TIP3    H142958   3.564   0.901  12.894  1.0794  1.2663  1.3243
 7181TIP3    H242959   3.483   0.975  12.790  0.5121 -1.4631 -0.2173
 7182TIP3   OH242960   3.633   3.250  12.892 -0.8089  0.6640 -0.7849
 7182TIP3    H142961   3.659   3.158  12.892 -2.5820  0.1288 -2.9895
 7182TIP3    H242962   3.538   3.249  12.906 -0.6994  2.2407  0.3315
 7183TIP3   OH242963   0.588   3.247   1.675  0.0851 -0.3337 -0.5088
 7183TIP3    H142964   0.625   3.286   1.754 -0.1920 -0.5562 -0.2691
 7183TIP3    H242965   0.659   3.193   1.640  0.8351  1.2317 -1.4368
 7184TIP3   OH242966   2.597   1.887   3.593  0.3369 -0.3512 -0.0612
 7184TIP3    H142967   2.516   1.837   3.585 -0.2258  0.6028 -0.3646
 7184TIP3    H242968   2.643   1.871   3.511  0.8437 -1.5515  0.4444
 7185TIP3   OH242969   0.802   5.425  13.655 -0.1046  0.2856  0.5058
 7185TIP3    H142970   0.798   5.335  13.689  0.6128  0.6032  1.4527
 7185TIP3    H242971   0.717   5.462  13.678 -1.0785 -0.6607 -1.4050
 7186TIP3   OH242972   1.750   1.580   5.998 -0.1689 -0.9725 -0.4814
 7186TIP3    H142973   1.725   1.673   5.994 -0.1612 -0.8380  1.8106
 7186TIP3    H242974   1.844   1.579   5.983  0.1630 -0.3725  1.3686
 7187TIP3   OH242975   6.552   0.011   5.230 -0.2380  0.0712  0.2382
 7187TIP3    H142976   6.552  -0.015   5.322 -0.2122 -2.2327 -0.4014
 7187TIP3    H242977   6.535   0.106   5.232  4.2823  0.9514  2.8446
 7188TIP3   OH242978   5.824   3.381  11.209 -0.0381 -0.1862  0.5724
 7188TIP3    H142979   5.783   3.298  11.231  1.6149 -1.1919 -0.0490
 7188TIP3    H242980   5.767   3.420  11.143 -1.1566 -0.5247  1.3362
 7189TIP3   OH242981   0.855   1.532   0.060 -0.9625 -0.1209 -0.2217
 7189TIP3    H142982   0.899   1.499  -0.019 -2.3121  0.8559 -1.4044
 7189TIP3    H242983   0.819   1.616   0.033 -0.7015  0.6209  1.7094
 7190TIP3   OH242984   3.965   4.644   5.443  0.3451 -0.9888 -0.1035
 7190TIP3    H142985   3.870   4.631   5.436  0.4600 -0.9975 -1.6304
 7190TIP3    H242986   3.986   4.710   5.377  1.2210 -0.0449  1.0983
 7191TIP3   OH242987   4.824   1.082   0.999 -0.3721  0.5938 -0.0289
 7191TIP3    H142988   4.914   1.049   1.004 -0.7056 -0.2112  0.7407
 7191TIP3    H242989   4.802   1.077   0.906 -0.3147 -1.1043  0.0261
 7192TIP3   OH242990   4.226   3.383  16.367  0.1364  0.8095 -0.4949
 7192TIP3    H142991   4.229   3.300  16.321  0.5993  0.4142  0.2373
 7192TIP3    H242992   4.253   3.448  16.302  2.4475  0.0642 -0.3379
 7193TIP3   OH242993   0.240   6.098  14.037 -0.1009 -0.2616  0.0489
 7193TIP3    H142994   0.158   6.127  14.077 -0.2646  1.7675 -1.7050
 7193TIP3    H242995   0.285   6.178  14.012  2.0896 -1.3722  0.2553
 7194TIP3   OH242996   2.957   4.026   4.597  0.5040 -0.3541  0.0249
 7194TIP3    H142997   2.881   3.968   4.601  0.0340  0.0899 -1.7932
 7194TIP3    H242998   2.939   4.095   4.660 -0.6090 -0.2714 -0.3711
 7195TIP3   OH242999   5.161   2.100  16.100 -0.4279  0.3290 -0.4161
 7195TIP3    H143000   5.194   2.172  16.046  1.6667 -1.1282 -1.1234
 7195TIP3    H243001   5.240   2.056  16.133 -1.6790 -0.5707  1.4825
 7196TIP3   OH243002   3.420   0.435   1.345  0.2162 -0.2926 -0.2335
 7196TIP3    H143003   3.448   0.466   1.259 -1.1241 -1.6231 -1.1737
 7196TIP3    H243004   3.416   0.340   1.337  0.5786 -0.4852  1.4758
 7197TIP3   OH243005   1.560   0.485  16.543 -0.2618 -0.1709 -1.0557
 7197TIP3    H143006   1.614   0.524  16.611 -0.1635  0.9671 -1.7770
 7197TIP3    H243007   1.556   0.392  16.566  0.4601  0.0593  0.0276
 7198TIP3   OH243008   2.064   2.678  13.030 -0.2612  0.1669  0.2001
 7198TIP3    H143009   2.051   2.633  13.113  3.2717 -0.6491  0.3906
 7198TIP3    H243010   2.013   2.628  12.967 -1.1707 -0.5419  1.4754
 7199TIP3   OH243011   0.181   6.352   4.444 -0.3335 -0.0159  0.2980
 7199TIP3    H143012   0.100   6.374   4.399 -0.0204  0.6564  0.0537
 7199TIP3    H243013   0.158   6.279   4.501 -1.3536  0.7969  0.9585
 7200TIP3   OH243014   1.432   1.375  13.486 -0.0913 -0.0496 -0.1089
 7200TIP3    H143015   1.397   1.369  13.575 -0.0468 -0.0530 -0.0910
 7200TIP3    H243016   1.520   1.337  13.493  0.3672  1.0352  0.0962
 7201TIP3   OH243017   3.239   4.967  14.663  0.2809  0.0681 -0.5753
 7201TIP3    H143018   3.266   5.054  14.693 -0.7778  0.2247 -0.0728
 7201TIP3    H243019   3.314   4.911  14.685  0.9796  0.8472 -0.9312
 7202TIP3   OH243020   1.887   5.385  15.036 -0.5035 -0.3529 -0.6499
 7202TIP3    H143021   1.812   5.330  15.056 -0.3475 -0.8139 -1.3399
 7202TIP3    H243022   1.883   5.399  14.942 -0.1851  0.2983 -0.5730
 7203TIP3   OH243023   5.229   2.526  15.139 -0.1336 -0.3227 -0.1342
 7203TIP3    H143024   5.166   2.471  15.093 -0.9920  1.1873 -0.7980
 7203TIP3    H243025   5.221   2.611  15.097  1.6303  0.1514  0.4588
 7204TIP3   OH243026   1.908   1.199  12.367  0.1225 -0.2567 -0.1993
 7204TIP3    H143027   1.818   1.214  12.396 -0.1759  0.4288 -1.4473
 7204TIP3    H243028   1.955   1.278  12.394 -0.0292  0.1302 -1.0591
 7205TIP3   OH243029   0.248   2.610   5.225  0.4045  0.0444 -0.3640
 7205TIP3    H143030   0.158   2.579   5.213  0.8050 -1.0677 -0.5510
 7205TIP3    H243031   0.271   2.651   5.142 -0.2379  1.1450 -0.0087
 7206TIP3   OH243032   4.705   2.050   4.180  0.8426 -0.7203  0.3962
 7206TIP3    H143033   4.694   2.006   4.264 -0.4753 -0.0883  0.5625
 7206TIP3    H243034   4.727   2.141   4.203  2.1840 -0.9414  0.0517
 7207TIP3   OH243035   2.967   1.108   2.958  0.3347  0.2162 -0.1811
 7207TIP3    H143036   2.941   1.078   3.045 -0.4852 -0.4673 -0.6573
 7207TIP3    H243037   2.920   1.190   2.945 -0.1822 -0.0958 -0.3042
 7208TIP3   OH243038   3.651   5.565   2.265 -0.0841 -0.1055  0.1299
 7208TIP3    H143039   3.745   5.550   2.263  0.2013  1.1396  2.4359
 7208TIP3    H243040   3.642   5.659   2.280 -1.6818 -0.2871  0.4242
 7209TIP3   OH243041   6.338   2.218  13.512  0.0026  0.4550 -0.2107
 7209TIP3    H143042   6.280   2.245  13.440  0.8944 -1.2069 -1.5872
 7209TIP3    H243043   6.305   2.266  13.588 -3.0125 -0.2141 -1.0169
 7210TIP3   OH243044   4.444   0.424  15.452 -0.0503  0.4668  0.1853
 7210TIP3    H143045   4.453   0.481  15.375 -2.1618  1.2299  0.4823
 7210TIP3    H243046   4.508   0.459  15.515 -1.9977  3.1854  0.7412
 7211TIP3   OH243047   2.559   3.092  11.444 -0.6223  0.1463 -0.6733
 7211TIP3    H143048   2.594   3.003  11.455 -0.9507  0.1753  0.6566
 7211TIP3    H243049   2.503   3.085  11.367 -1.1959 -0.9800 -0.1725
 7212TIP3   OH243050   5.794   4.802   1.688 -0.2042  0.3065  0.5406
 7212TIP3    H143051   5.787   4.771   1.598  1.7659  1.4330 -0.0165
 7212TIP3    H243052   5.711   4.776   1.729  0.7299 -4.3834 -0.2803
 7213TIP3   OH243053   6.082   6.612  13.054 -0.2266 -0.6860  0.0263
 7213TIP3    H143054   6.065   6.534  13.105 -2.4609 -0.5144 -0.4000
 7213TIP3    H243055   6.082   6.683  13.118  1.1032 -0.9427  0.3189
 7214TIP3   OH243056   1.992   5.889   3.542 -0.3939  0.2357  0.2383
 7214TIP3    H143057   1.933   5.819   3.571 -2.1735  2.0823  1.1979
 7214TIP3    H243058   2.053   5.845   3.483 -2.4194 -1.8389 -0.4093
 7215TIP3   OH243059   1.112   4.400   3.053 -0.6735 -0.2445  0.0476
 7215TIP3    H143060   1.205   4.399   3.078 -0.9317  0.4599  1.0442
 7215TIP3    H243061   1.086   4.492   3.062 -1.2065 -0.2637 -1.2269
 7216TIP3   OH243062   3.967   3.305   0.922 -0.2425  0.5111  0.2694
 7216TIP3    H143063   3.968   3.350   1.006  0.0547  1.7724 -0.3949
 7216TIP3    H243064   3.899   3.349   0.872  1.4999  1.6645 -1.1540
 7217TIP3   OH243065   1.506   3.402   0.521  0.5148 -0.7784  0.8769
 7217TIP3    H143066   1.415   3.415   0.544  0.6505 -0.3426  1.1681
 7217TIP3    H243067   1.534   3.327   0.574  0.2060 -1.1886  0.4611
 7218TIP3   OH243068   3.267   2.664  11.353  0.3468  0.7664  0.1432
 7218TIP3    H143069   3.186   2.715  11.361  0.8618  1.9097 -1.5499
 7218TIP3    H243070   3.258   2.617  11.270  1.0319  0.2216  0.3764
 7219TIP3   OH243071   1.102   2.653  16.875 -0.7116  0.2094 -0.8383
 7219TIP3    H143072   1.183   2.617  16.838 -0.0008  1.7191 -0.7820
 7219TIP3    H243073   1.037   2.583  16.863  1.1959 -2.0806  1.5690
 7220TIP3   OH243074   1.725   2.130  15.451 -0.6893 -0.3036  0.1471
 7220TIP3    H143075   1.667   2.158  15.380  1.4523  2.7377 -0.4796
 7220TIP3    H243076   1.805   2.102  15.406 -0.0163 -0.1615  1.2494
 7221TIP3   OH243077   4.927   4.179   4.992 -0.3076  0.1121 -0.4490
 7221TIP3    H143078   4.838   4.144   4.995  0.3168 -1.6305 -1.2859
 7221TIP3    H243079   4.983   4.101   5.000  1.1372  1.2349  0.6085
 7222TIP3   OH243080   2.121   3.895   5.361  0.8143 -0.1614  0.8962
 7222TIP3    H143081   2.113   3.928   5.271  1.5281 -2.9490 -0.2432
 7222TIP3    H243082   2.106   3.972   5.416 -1.4289  1.2612 -1.5665
 7223TIP3   OH243083   3.964   2.425  12.584  0.2349  0.1457 -0.8518
 7223TIP3    H143084   3.874   2.452  12.568 -0.7780 -3.0241 -0.9285
 7223TIP3    H243085   4.008   2.436  12.500 -0.3384  0.7628 -1.0731
 7224TIP3   OH243086   6.488   3.229  16.228 -0.1834 -0.0622  0.5929
 7224TIP3    H143087   6.560   3.177  16.193  0.2164  0.1935  1.0232
 7224TIP3    H243088   6.495   3.313  16.183 -1.5297 -0.7552 -0.9500
 7225TIP3   OH243089   0.029   3.749  15.930 -0.4838 -0.2892  0.4726
 7225TIP3    H143090  -0.064   3.735  15.916 -0.2106 -1.6762  0.0341
 7225TIP3    H243091   0.034   3.797  16.013 -1.6534  0.9768 -0.1688
 7226TIP3   OH243092   6.671   4.001  16.006  0.1357  0.5298 -0.1025
 7226TIP3    H143093   6.651   4.068  16.071 -0.0911 -0.7380  1.1863
 7226TIP3    H243094   6.606   4.013  15.937 -1.3409  0.2019  1.2019
 7227TIP3   OH243095   5.723   6.271   2.757 -0.9338  0.1846  0.4452
 7227TIP3    H143096   5.716   6.366   2.747  0.4450  0.4139  1.4517
 7227TIP3    H243097   5.778   6.259   2.834 -0.3425 -1.4285 -0.1921
 7228TIP3   OH243098   2.829   4.407  10.773  0.2449  0.0998  0.0453
 7228TIP3    H143099   2.814   4.471  10.703 -0.3202 -1.5617 -1.3871
 7228TIP3    H243100   2.763   4.340  10.758 -0.2032 -0.0559  2.4890
 7229TIP3   OH243101   2.474   6.468  11.741 -0.0936 -0.6620 -0.1399
 7229TIP3    H143102   2.545   6.517  11.698 -0.7681  1.0517  0.6454
 7229TIP3    H243103   2.403   6.468  11.678 -0.5549  0.5440  0.3646
 7230TIP3   OH243104   6.409   4.118   1.901  0.1214  0.1177  0.3663
 7230TIP3    H143105   6.469   4.184   1.934  0.8529 -0.3685  0.0457
 7230TIP3    H243106   6.344   4.107   1.970  1.1681 -0.3099  1.3041
 7231TIP3   OH243107   4.836   5.287   2.398 -0.1238 -0.2861 -0.3896
 7231TIP3    H143108   4.841   5.274   2.492 -0.4541 -1.4837 -0.5257
 7231TIP3    H243109   4.919   5.250   2.365 -0.6727 -1.2717 -0.7000
 7232TIP3   OH243110   5.114   6.181  13.799 -0.5451 -0.0947 -0.5009
 7232TIP3    H143111   5.122   6.208  13.891  1.0415  0.3324 -0.7582
 7232TIP3    H243112   5.124   6.086  13.802 -1.6959 -0.2103 -0.1025
 7233TIP3   OH243113   0.472   1.517   2.256 -0.2003  0.1828  1.0399
 7233TIP3    H143114   0.390   1.562   2.236 -0.7037 -1.3948 -0.5533
 7233TIP3    H243115   0.455   1.472   2.339 -1.8586 -2.2198 -0.5388
 7234TIP3   OH243116   4.992   0.336   2.465 -0.1708  0.5699 -0.1485
 7234TIP3    H143117   5.016   0.385   2.544 -1.9317 -0.2133  0.9097
 7234TIP3    H243118   5.062   0.272   2.455  1.1465  2.0314 -0.4323
 7235TIP3   OH243119   4.233   6.455  15.892 -0.4583  0.5610  0.3355
 7235TIP3    H143120   4.249   6.392  15.962 -0.7346 -0.3705 -0.4279
 7235TIP3    H243121   4.297   6.524  15.907 -0.6394  0.4678  1.6104
 7236TIP3   OH243122   3.495   2.671   3.588 -0.4116 -0.5230  0.0885
 7236TIP3    H143123   3.422   2.708   3.538 -1.0741 -0.4610  1.0688
 7236TIP3    H243124   3.461   2.588   3.622 -0.1556 -0.3154  0.8565
 7237TIP3   OH243125   0.891   4.082   4.646  0.3100 -0.6697 -0.0523
 7237TIP3    H143126   0.840   4.068   4.726  1.3116 -1.3388  0.4727
 7237TIP3    H243127   0.872   4.173   4.621  0.2349 -0.3592  1.1166
 7238TIP3   OH243128   2.843   5.388   1.651 -0.0609  0.1804  0.8623
 7238TIP3    H143129   2.804   5.465   1.610 -0.5903 -0.0076  1.0044
 7238TIP3    H243130   2.936   5.395   1.633 -0.1708  0.6095  0.4690
 7239TIP3   OH243131   4.624   0.985   6.229 -0.3712  0.2862  0.5961
 7239TIP3    H143132   4.705   0.941   6.253 -0.7254 -0.8666 -0.2665
 7239TIP3    H243133   4.562   0.914   6.210 -1.4208  1.1470  0.7259
 7240TIP3   OH243134   3.465   5.415   4.258  0.5635 -0.3571  0.1604
 7240TIP3    H143135   3.495   5.440   4.345  2.5891 -0.5363 -0.4620
 7240TIP3    H243136   3.494   5.325   4.247  1.7847  0.1846 -1.3011
 7241TIP3   OH243137   4.111   0.724   5.204 -0.7261 -0.0481 -0.0876
 7241TIP3    H143138   4.169   0.676   5.144 -0.5435 -1.5152  1.2200
 7241TIP3    H243139   4.141   0.814   5.199  1.8054 -0.7998  0.6592
 7242TIP3   OH243140   5.075   0.819  11.413  0.1273  0.3958 -0.0992
 7242TIP3    H143141   5.162   0.793  11.381  1.4525  2.6178  1.5445
 7242TIP3    H243142   5.039   0.873  11.343  0.7927  0.8351 -0.1126
 7243TIP3   OH243143   2.835   5.262   5.775  0.0063  0.2690 -0.4636
 7243TIP3    H143144   2.917   5.257   5.825 -0.8628 -0.1985  0.9516
 7243TIP3    H243145   2.770   5.292   5.839 -0.8980  0.7586 -1.6073
 7244TIP3   OH243146   2.451   5.702   2.336  0.0986  0.3452 -0.0076
 7244TIP3    H143147   2.509   5.646   2.285  0.0529 -1.1829  1.6097
 7244TIP3    H243148   2.411   5.760   2.270  1.2303 -0.5232 -1.4980
 7245TIP3   OH243149   4.388   0.323   1.991 -0.1612  0.1551 -0.4049
 7245TIP3    H143150   4.445   0.344   2.065 -1.3421 -0.3547  0.6627
 7245TIP3    H243151   4.411   0.232   1.969  1.4635  0.8982 -1.8413
 7246TIP3   OH243152   0.942   2.359   4.806  0.5419  0.6998 -0.5054
 7246TIP3    H143153   0.855   2.353   4.768  0.9916 -0.4858 -1.3866
 7246TIP3    H243154   1.002   2.355   4.731  1.4561 -2.0676  0.2886
 7247TIP3   OH243155   0.679   1.164   4.398  0.1243  0.1677 -0.1793
 7247TIP3    H143156   0.762   1.133   4.434  0.3840 -1.7523 -2.3583
 7247TIP3    H243157   0.689   1.259   4.397  2.0304  0.0064  0.2101
 7248TIP3   OH243158   3.038   0.658  16.580  0.0856  0.0940  0.2358
 7248TIP3    H143159   3.091   0.661  16.499 -0.1389  0.4352  0.0981
 7248TIP3    H243160   2.974   0.589  16.565  0.3421 -0.1607  0.3099
 7249TIP3   OH243161   5.446   5.698   0.413 -0.0719 -0.0532 -0.0891
 7249TIP3    H143162   5.488   5.757   0.476 -1.7383  0.3282  0.7180
 7249TIP3    H243163   5.353   5.721   0.419 -0.2564  0.0157 -2.7374
 7250TIP3   OH243164   3.581   2.193  17.058  0.2428 -0.1946  0.6742
 7250TIP3    H143165   3.492   2.228  17.062 -0.3063 -1.5871  1.4111
 7250TIP3    H243166   3.589   2.141  17.139  2.4843  1.6684  1.6888
 7251TIP3   OH243167   3.853   2.583  14.380  0.3201 -0.1403  0.3019
 7251TIP3    H143168   3.933   2.555  14.336  0.2535 -2.2280  1.4349
 7251TIP3    H243169   3.875   2.580  14.473 -0.4739  1.2404  0.5475
 7252TIP3   OH243170   5.545   0.009   5.314 -0.0651  0.4985  0.0106
 7252TIP3    H143171   5.566   0.013   5.407 -0.5955 -0.1376  0.1568
 7252TIP3    H243172   5.462  -0.037   5.310  0.4661 -0.3940 -0.8628
 7253TIP3   OH243173   1.818   2.315  10.414  0.9552  0.1463  0.1407
 7253TIP3    H143174   1.807   2.226  10.381  0.3166  0.3738 -0.2740
 7253TIP3    H243175   1.790   2.371  10.341  0.4475  0.6674  0.7392
 7254TIP3   OH243176   1.630   1.418   0.925  0.0766  0.2894  0.8631
 7254TIP3    H143177   1.581   1.344   0.888  0.9350 -0.7725  1.8364
 7254TIP3    H243178   1.587   1.437   1.008 -1.1236  1.9293 -0.0876
 7255TIP3   OH243179   2.811   6.445   4.167 -0.4524 -0.2240 -0.1485
 7255TIP3    H143180   2.781   6.365   4.125  0.0956  0.6190 -2.2347
 7255TIP3    H243181   2.879   6.479   4.108 -1.1333  2.1098  0.3444
 7256TIP3   OH243182   0.832   0.558   4.376  0.2495 -0.1726  0.1692
 7256TIP3    H143183   0.904   0.512   4.418 -0.8058 -1.7753  0.2405
 7256TIP3    H243184   0.830   0.643   4.420 -0.5674 -1.6403  3.0831
 7257TIP3   OH243185   5.892   3.922  11.664  0.4191  0.2369 -0.3741
 7257TIP3    H143186   5.984   3.905  11.685  0.0216 -1.4364  0.1157
 7257TIP3    H243187   5.843   3.879  11.735 -0.7553  0.2866 -1.1380
 7258TIP3   OH243188   5.530   4.391  15.337  0.3760  0.3280  0.0793
 7258TIP3    H143189   5.623   4.407  15.356  0.6834 -0.0800 -0.9856
 7258TIP3    H243190   5.506   4.460  15.275  0.1061  0.1575 -0.0086
 7259TIP3   OH243191   5.290   2.059   3.244 -0.1219  0.3583  0.0721
 7259TIP3    H143192   5.301   1.989   3.308  0.8101  1.8308  1.5606
 7259TIP3    H243193   5.202   2.092   3.260  0.2453  0.9750  0.8883
 7260TIP3   OH243194   5.026   2.595  17.157 -0.4222  0.5284  0.3827
 7260TIP3    H143195   5.024   2.500  17.153  0.6810  0.4771  0.8802
 7260TIP3    H243196   5.024   2.624  17.066  2.0840 -0.0397  0.1356
 7261TIP3   OH243197   3.812   4.200  12.188 -0.6869 -0.3289  0.3874
 7261TIP3    H143198   3.806   4.220  12.282  1.3959  0.1012  0.4519
 7261TIP3    H243199   3.723   4.176  12.163 -1.3747  0.0616  2.3643
 7262TIP3   OH243200   2.419   6.605  17.108  0.6207 -0.1300 -0.3191
 7262TIP3    H143201   2.428   6.583  17.015 -2.3827  1.2853 -1.0046
 7262TIP3    H243202   2.477   6.681  17.120  1.8703 -0.9995 -0.7483
 7263TIP3   OH243203   5.345   5.110  15.166  0.2168 -0.0989  0.6996
 7263TIP3    H143204   5.421   5.055  15.181  0.1167 -0.5318 -0.3543
 7263TIP3    H243205   5.276   5.049  15.138  0.2162  0.5943 -0.8413
 7264TIP3   OH243206   1.433   3.464   5.143  0.2280 -0.1370 -0.1148
 7264TIP3    H143207   1.413   3.556   5.161 -0.0504 -0.0265 -0.9791
 7264TIP3    H243208   1.383   3.415   5.208  1.4057  0.3747  1.2003
 7265TIP3   OH243209   4.262   3.073  17.119 -0.1649 -0.2170 -0.2391
 7265TIP3    H143210   4.347   3.112  17.099  0.3855 -0.7104  1.0366
 7265TIP3    H243211   4.236   3.029  17.039  0.0179  1.3022 -1.1502
 7266TIP3   OH243212   1.258   0.179  15.855  0.7501 -0.2199  0.7741
 7266TIP3    H143213   1.307   0.214  15.929 -0.1753  0.1893  1.2116
 7266TIP3    H243214   1.291   0.090  15.844  0.6732 -0.4007  1.8866
 7267TIP3   OH243215   0.460   1.095   2.417  0.2540 -0.1865  0.4287
 7267TIP3    H143216   0.381   1.128   2.460 -0.9355  1.4364 -2.8559
 7267TIP3    H243217   0.439   1.096   2.324  3.6983 -1.0085 -0.4213
 7268TIP3   OH243218   0.520   6.050   2.410 -0.6873 -0.4420 -0.3420
 7268TIP3    H143219   0.507   6.005   2.493 -1.1397  0.2683 -0.0289
 7268TIP3    H243220   0.534   5.979   2.347  0.3779 -0.9565  0.4514
 7269TIP3   OH243221   5.832   5.062  10.750  0.2337 -0.2578 -0.1454
 7269TIP3    H143222   5.854   5.110  10.670 -0.7043  2.0643  0.9479
 7269TIP3    H243223   5.783   5.124  10.803 -2.1997 -2.8406  0.7799
 7270TIP3   OH243224   0.225   3.918   3.785  0.4519 -0.4715 -0.0555
 7270TIP3    H143225   0.139   3.884   3.760  1.0083  0.2616 -3.1470
 7270TIP3    H243226   0.207   3.975   3.860 -1.7303 -0.4795 -0.5348
 7271TIP3   OH243227   6.221   2.691   0.515 -0.4738 -0.2393  0.1796
 7271TIP3    H143228   6.146   2.740   0.483  0.4324  0.7792 -0.4490
 7271TIP3    H243229   6.290   2.757   0.525  0.0732 -1.0043  1.5918
 7272TIP3   OH243230   2.451   4.188   5.696  0.1078  0.6486 -0.2828
 7272TIP3    H143231   2.518   4.232   5.750 -0.0160  0.9923 -0.4077
 7272TIP3    H243232   2.424   4.113   5.749  0.0229  0.9551  0.1164
 7273TIP3   OH243233   2.837   4.731   1.825  0.3196 -0.0961 -0.0244
 7273TIP3    H143234   2.810   4.648   1.863 -1.2331  0.5318  0.2982
 7273TIP3    H243235   2.817   4.796   1.892  2.3718  0.4589  0.0933
 7274TIP3   OH243236   0.958   1.867  11.096  0.5863 -0.3045 -0.9382
 7274TIP3    H143237   0.989   1.954  11.074  1.7694 -0.7689 -1.1453
 7274TIP3    H243238   1.008   1.808  11.040 -0.1436 -1.1247 -0.7518
 7275TIP3   OH243239   5.443   0.660   5.287 -0.1438  0.6095 -0.3334
 7275TIP3    H143240   5.386   0.709   5.228  0.6644 -0.5293 -2.1004
 7275TIP3    H243241   5.527   0.706   5.284  0.3256 -0.2880 -1.2230
 7276TIP3   OH243242   1.408   0.914  12.330  0.4327  0.0887 -0.7479
 7276TIP3    H143243   1.421   0.841  12.270 -0.2511  0.6204 -1.5565
 7276TIP3    H243244   1.427   0.878  12.416 -0.1756 -1.1165 -1.1063
 7277TIP3   OH243245   3.757   5.846  10.813 -0.5079  0.5985  0.0393
 7277TIP3    H143246   3.846   5.871  10.837 -0.4313  0.9931 -0.6355
 7277TIP3    H243247   3.741   5.765  10.860  1.2239 -0.9821 -1.9996
 7278TIP3   OH243248   4.479   0.841  11.483  0.6679  0.5871 -0.3593
 7278TIP3    H143249   4.452   0.814  11.571  1.4233 -0.9253 -0.5641
 7278TIP3    H243250   4.468   0.936  11.482 -0.5810  0.4783  0.9416
 7279TIP3   OH243251   5.781   6.130  13.636 -0.1669  0.1519 -0.0077
 7279TIP3    H143252   5.720   6.137  13.710 -1.2740  1.5140 -1.0308
 7279TIP3    H243253   5.751   6.195  13.574  3.1142  1.7868 -0.0005
 7280TIP3   OH243254   6.324   3.621  11.595  0.0948  0.0927  0.4925
 7280TIP3    H143255   6.268   3.546  11.573 -0.7897  1.2879 -1.5051
 7280TIP3    H243256   6.404   3.607  11.544 -0.0184  0.4388  0.2186
 7281TIP3   OH243257   0.206   4.388   1.136 -0.4168  1.0655  0.4602
 7281TIP3    H143258   0.247   4.315   1.183 -2.3864  0.2295  0.9256
 7281TIP3    H243259   0.214   4.463   1.196 -1.0902  0.4892  1.2879
 7282TIP3   OH243260   4.483   6.473  13.056  0.6515 -0.2830  0.2865
 7282TIP3    H143261   4.546   6.544  13.072  0.7611 -0.2655 -0.2020
 7282TIP3    H243262   4.523   6.421  12.986 -0.4283  0.4230 -0.8801
 7283TIP3   OH243263   1.764   1.167  12.077 -0.5680 -0.3689 -0.3921
 7283TIP3    H143264   1.790   1.206  12.160 -0.4650  1.2318 -1.1669
 7283TIP3    H243265   1.728   1.081  12.101  0.5370 -0.4052  1.1785
 7284TIP3   OH243266   3.684   5.955  13.283  0.1138  0.4651 -1.0221
 7284TIP3    H143267   3.702   6.019  13.214 -1.9473  0.3271 -1.6946
 7284TIP3    H243268   3.715   5.998  13.364  1.4344  1.1078 -1.8537
 7285TIP3   OH243269   3.092   6.489   4.691 -0.1881 -0.2655  0.2951
 7285TIP3    H143270   3.153   6.484   4.617  1.2088  2.4056  1.1715
 7285TIP3    H243271   3.055   6.401   4.699  0.0473 -0.7300 -3.2116
 7286TIP3   OH243272   6.216   3.237  12.602 -0.2344 -0.1475  0.0644
 7286TIP3    H143273   6.214   3.154  12.649 -2.4008  0.3617  0.9450
 7286TIP3    H243274   6.126   3.249  12.570  0.1200  1.6800 -0.3123
 7287TIP3   OH243275   2.796   2.212   6.793 -0.2054 -0.6075  0.7833
 7287TIP3    H143276   2.741   2.290   6.779 -1.0571 -1.0891  1.3785
 7287TIP3    H243277   2.867   2.242   6.848 -0.7084 -0.3196  1.2806
 7288TIP3   OH243278   0.952   4.936   0.160  0.1175  0.4365 -0.2055
 7288TIP3    H143279   0.930   4.949   0.068 -1.3076 -0.7161 -0.0509
 7288TIP3    H243280   1.027   4.993   0.176  1.3317 -0.4756 -2.4589
 7289TIP3   OH243281   6.493   0.846   1.076 -0.7008 -0.6030  0.4242
 7289TIP3    H143282   6.533   0.882   1.156 -1.3664 -1.3319  1.0969
 7289TIP3    H243283   6.537   0.892   1.005  1.3642 -1.4002  1.1350
 7290TIP3   OH243284   3.406   5.286   3.713  0.4350  0.5497  0.5529
 7290TIP3    H143285   3.392   5.317   3.624 -0.1970 -0.5074  0.2777
 7290TIP3    H243286   3.323   5.246   3.738  1.5621 -1.9815  0.4416
 7291TIP3   OH243287   4.134   0.072  12.225  0.4980 -0.3907  0.0232
 7291TIP3    H143288   4.095   0.055  12.311 -0.0868  0.4205 -0.0676
 7291TIP3    H243289   4.067   0.043  12.163  1.2567 -1.7344 -0.1668
 7292TIP3   OH243290   0.641   4.137   5.853 -0.0113  0.4093 -0.2081
 7292TIP3    H143291   0.711   4.196   5.880 -0.1714  0.1195  0.8439
 7292TIP3    H243292   0.655   4.057   5.903 -0.8504  0.1967 -0.2976
 7293TIP3   OH243293   0.777   0.844   1.852  0.4547  0.8344 -0.3449
 7293TIP3    H143294   0.709   0.792   1.894 -0.2172  1.2315 -0.9278
 7293TIP3    H243295   0.745   0.858   1.763  2.0486 -0.3398 -1.1203
 7294TIP3   OH243296   1.495   6.100   0.616 -0.1433 -0.2337  0.7429
 7294TIP3    H143297   1.536   6.186   0.627  0.5380 -0.2512 -1.3498
 7294TIP3    H243298   1.416   6.117   0.565  0.2434 -0.8822 -0.1002
 7295TIP3   OH243299   1.334   6.250   3.291  0.1406 -0.2268 -0.2640
 7295TIP3    H143300   1.311   6.333   3.249  0.9497  0.1760  0.0652
 7295TIP3    H243301   1.402   6.212   3.235  2.7144  1.2970  1.7007
 7296TIP3   OH243302   1.018   0.201   5.904 -0.0012 -0.5123 -0.0331
 7296TIP3    H143303   0.943   0.142   5.905  0.3419 -0.9463  0.2451
 7296TIP3    H243304   1.054   0.196   5.993  0.8307 -0.9169 -0.3786
 7297TIP3   OH243305   5.918   0.179   4.190 -0.1683  0.1792 -0.4121
 7297TIP3    H143306   5.918   0.088   4.219  1.1764 -0.2090 -1.6064
 7297TIP3    H243307   6.006   0.194   4.156 -0.4558  1.8518 -0.4872
 7298TIP3   OH243308   3.320   1.894  14.310  0.4041  0.3148  0.0142
 7298TIP3    H143309   3.328   1.818  14.253 -0.7978  1.1297 -1.2609
 7298TIP3    H243310   3.233   1.930  14.292 -0.4453  0.0074  3.1143
 7299TIP3   OH243311   1.594   3.941  16.119 -0.1342  0.3895  0.2379
 7299TIP3    H143312   1.670   3.996  16.100 -0.3503  0.5643 -0.1234
 7299TIP3    H243313   1.597   3.929  16.214  0.2100  0.5923  0.2559
 7300TIP3   OH243314   6.335   6.450  16.184  0.3410  0.5743  0.1357
 7300TIP3    H143315   6.340   6.519  16.250 -0.0463  1.3001 -0.6032
 7300TIP3    H243316   6.246   6.454  16.151  0.7749  0.7426 -1.0266
 7301TIP3   OH243317   2.712   5.378   4.244  0.1277  0.4167 -0.0667
 7301TIP3    H143318   2.642   5.376   4.309  1.2909  0.7842  1.2271
 7301TIP3    H243319   2.757   5.461   4.258  0.0263  0.7776 -1.7585
 7302TIP3   OH243320   5.447   0.082   2.380 -0.2126 -0.2616 -0.2452
 7302TIP3    H143321   5.444   0.077   2.285 -0.2784  0.5307 -0.2937
 7302TIP3    H243322   5.532   0.122   2.399  1.2237 -3.3743  0.1839
 7303TIP3   OH243323   4.603   0.595   2.240  0.1347 -0.0418 -0.3304
 7303TIP3    H143324   4.667   0.657   2.277  0.0625 -0.1791  0.0276
 7303TIP3    H243325   4.520   0.619   2.281  0.2156 -0.7477  0.2485
 7304TIP3   OH243326   6.731   4.352   4.488 -0.7584 -0.0786 -0.3704
 7304TIP3    H143327   6.657   4.293   4.477  0.1755 -0.9870 -1.9643
 7304TIP3    H243328   6.730   4.407   4.409 -0.0312  0.2158 -0.1824
 7305TIP3   OH243329   1.492   2.038  15.011 -0.3572 -0.3865 -0.2501
 7305TIP3    H143330   1.535   2.064  14.929  0.5086  0.0734  0.3509
 7305TIP3    H243331   1.563   2.019  15.071 -0.9915 -0.4243  0.4974
 7306TIP3   OH243332   4.061   5.564  11.521 -0.5914  0.7199 -0.6388
 7306TIP3    H143333   4.135   5.574  11.461 -0.0490 -0.9811 -0.2852
 7306TIP3    H243334   4.067   5.639  11.579 -0.3498  1.6884 -1.9070
 7307TIP3   OH243335   3.414   5.873   0.775  0.1488  0.3549  0.1063
 7307TIP3    H143336   3.371   5.790   0.753 -1.4537  0.9504  0.8774
 7307TIP3    H243337   3.488   5.849   0.829  0.3134 -0.6490 -0.5525
 7308TIP3   OH243338   3.459   0.223  14.169  0.2098 -0.1419  0.3910
 7308TIP3    H143339   3.401   0.170  14.224  0.3421  0.5622  1.2134
 7308TIP3    H243340   3.526   0.257  14.228 -0.6605  2.0735  0.1703
 7309TIP3   OH243341   0.121   3.858   0.544  0.0951  0.2378 -0.0015
 7309TIP3    H143342   0.190   3.792   0.546 -0.1176  0.0272  0.6685
 7309TIP3    H243343   0.085   3.858   0.633 -0.8076  0.2986 -0.3523
 7310TIP3   OH243344   4.970   0.953  15.462 -0.0455 -0.6622 -0.4510
 7310TIP3    H143345   4.914   0.993  15.528  0.2172  0.5172 -0.9306
 7310TIP3    H243346   5.048   0.925  15.510  0.5651  1.0652 -0.4059
 7311TIP3   OH243347   6.093   4.153   4.843 -0.0367  0.1185  0.0187
 7311TIP3    H143348   6.030   4.225   4.852  0.3641  0.4203  0.4306
 7311TIP3    H243349   6.158   4.170   4.911  1.4187  0.7542 -1.5106
 7312TIP3   OH243350   1.559   6.557   5.008  0.3353  0.0162 -0.3553
 7312TIP3    H143351   1.506   6.492   4.961 -2.5842  1.4063  0.8623
 7312TIP3    H243352   1.532   6.548   5.100  1.1573  1.7782  0.0760
 7313TIP3   OH243353   1.495   5.539  13.027 -0.1059  0.4505 -0.1170
 7313TIP3    H143354   1.533   5.468  13.079  0.0196 -0.7255 -1.7594
 7313TIP3    H243355   1.401   5.530  13.039 -0.1664 -1.0075 -1.5822
 7314TIP3   OH243356   1.489   0.135   4.762  0.0693 -0.1410 -0.2070
 7314TIP3    H143357   1.529   0.146   4.675  0.8303  1.4644  0.3323
 7314TIP3    H243358   1.559   0.099   4.816  0.1714  0.6954  0.2205
 7315TIP3   OH243359   4.115   1.712   5.728 -0.9296  0.6397  0.1039
 7315TIP3    H143360   4.211   1.715   5.733 -0.8396  0.7301 -1.4130
 7315TIP3    H243361   4.087   1.796   5.764 -0.4285  0.7708  0.1979
 7316TIP3   OH243362   4.141   4.567   2.908  0.6636 -0.3643  0.2984
 7316TIP3    H143363   4.141   4.636   2.842 -0.4622  0.7969  1.4817
 7316TIP3    H243364   4.138   4.614   2.991 -2.0593 -1.8462  1.0909
 7317TIP3   OH243365   2.628   0.470  14.662  0.3359  0.0137 -0.1173
 7317TIP3    H143366   2.534   0.470  14.643  0.4775 -0.9006 -0.8797
 7317TIP3    H243367   2.646   0.380  14.691  0.9371  0.2363  0.2019
 7318TIP3   OH243368   5.249   3.947  11.853 -0.1829 -0.3667 -0.6662
 7318TIP3    H143369   5.333   3.941  11.898  0.4796  1.6009 -1.6073
 7318TIP3    H243370   5.209   3.860  11.866  1.6079 -1.0452  0.4936
 7319TIP3   OH243371   1.112   6.729   1.624 -0.4388 -0.0553  0.1733
 7319TIP3    H143372   1.175   6.801   1.628 -0.9141  0.3827 -0.2808
 7319TIP3    H243373   1.165   6.651   1.642 -0.3794  0.6422  3.4122
 7320TIP3   OH243374   0.880   6.508   3.529 -0.0867  0.4307 -0.1949
 7320TIP3    H143375   0.812   6.504   3.597  0.8996 -0.6845  0.7594
 7320TIP3    H243376   0.960   6.482   3.574  0.2238 -2.4704 -2.2568
 7321TIP3   OH243377   3.677   5.669  14.658  0.6070 -0.7083  0.4192
 7321TIP3    H143378   3.644   5.579  14.654  0.6366 -0.7017 -0.0606
 7321TIP3    H243379   3.632   5.708  14.733 -0.6143 -0.6400 -0.3375
 7322TIP3   OH243380   1.985   5.239   3.362  0.6748 -0.2054 -0.6871
 7322TIP3    H143381   1.894   5.257   3.340 -0.0161 -2.1555  0.4568
 7322TIP3    H243382   2.032   5.319   3.338 -1.6891  1.7295  0.9186
 7323TIP3   OH243383   6.512   4.464   2.705  0.1227 -0.7782 -0.0244
 7323TIP3    H143384   6.518   4.391   2.643  2.8129 -0.7840  0.2006
 7323TIP3    H243385   6.503   4.541   2.649  0.5312 -0.9711 -0.3598
 7324TIP3   OH243386   6.016   6.753  13.281 -0.0042 -0.0883  0.2348
 7324TIP3    H143387   5.945   6.757  13.345  1.2065 -2.3854  1.7898
 7324TIP3    H243388   6.067   6.832  13.296 -0.3365 -0.0876  1.3873
 7325TIP3   OH243389   1.122   1.722   0.990  0.1728  0.1082 -0.2477
 7325TIP3    H143390   1.130   1.715   0.895 -1.1785 -1.5870 -0.2484
 7325TIP3    H243391   1.130   1.633   1.022  2.1039  0.8248  1.3891
 7326TIP3   OH243392   1.477   2.482   1.250 -0.7203  0.6619 -0.1336
 7326TIP3    H143393   1.563   2.443   1.231 -0.4431  1.6219 -0.8790
 7326TIP3    H243394   1.414   2.414   1.225 -0.1483 -0.6393  1.8515
 7327TIP3   OH243395   3.330   1.323   4.281 -0.6849 -0.5179  0.3651
 7327TIP3    H143396   3.413   1.276   4.274  0.4823  1.2945  1.5242
 7327TIP3    H243397   3.336   1.392   4.215 -1.1966 -0.2964  0.5517
 7328TIP3   OH243398   3.424   5.278  15.263  0.3970  0.5777 -0.4243
 7328TIP3    H143399   3.429   5.183  15.252 -1.9588  0.4065 -0.2235
 7328TIP3    H243400   3.441   5.293  15.356 -0.2506  0.2500 -0.2492
 7329TIP3   OH243401   1.213   1.445  11.811 -0.1665 -0.6102  0.2683
 7329TIP3    H143402   1.161   1.390  11.870 -0.0233 -0.0027  0.9747
 7329TIP3    H243403   1.218   1.530  11.856 -0.9744  0.1998 -1.1364
 7330TIP3   OH243404   5.579   3.647   2.480  0.0904  1.0651 -0.4399
 7330TIP3    H143405   5.494   3.690   2.490 -0.0000  1.2621 -1.9768
 7330TIP3    H243406   5.643   3.716   2.500 -0.0967  1.1464 -0.1227
 7331TIP3   OH243407   1.763   5.419  11.571  0.2583 -0.0967  0.5690
 7331TIP3    H143408   1.820   5.468  11.630  0.7013 -0.0659  0.1203
 7331TIP3    H243409   1.818   5.346  11.541  0.3610  0.4273 -0.5597
 7332TIP3   OH243410   6.369   2.495  13.920  0.2800 -0.3041  0.5379
 7332TIP3    H143411   6.394   2.435  13.990  1.2640  0.8751  1.2197
 7332TIP3    H243412   6.279   2.521  13.941  0.2952 -0.5665  0.9233
 7333TIP3   OH243413   2.542   4.177   0.347 -0.1746 -0.2321 -0.4842
 7333TIP3    H143414   2.594   4.229   0.287 -1.6546  0.0890 -1.5193
 7333TIP3    H243415   2.596   4.100   0.366  0.3085 -0.3366 -2.2312
 7334TIP3   OH243416   6.249   5.377   5.939  0.0733  0.5121  0.2749
 7334TIP3    H143417   6.189   5.451   5.934  0.7677  1.1068  0.6278
 7334TIP3    H243418   6.331   5.415   5.972  1.0354 -0.0377 -1.4306
 7335TIP3   OH243419   5.505   4.296   0.882  0.0672  0.2761  0.1978
 7335TIP3    H143420   5.586   4.346   0.869 -0.5922  0.7463 -2.3001
 7335TIP3    H243421   5.467   4.333   0.962  0.6438  2.3354 -0.4544
 7336TIP3   OH243422   1.487   3.064   5.644  0.8770 -0.2547  0.7387
 7336TIP3    H143423   1.527   3.151   5.636 -2.6269  1.3887 -0.1447
 7336TIP3    H243424   1.460   3.059   5.736 -1.4434  0.8459  0.1618
 7337TIP3   OH243425   1.655   3.481   0.941 -0.2361 -0.3699 -0.3235
 7337TIP3    H143426   1.583   3.487   1.003  0.5797 -2.4021  0.8573
 7337TIP3    H243427   1.730   3.518   0.988 -0.3913  1.4189 -1.4227
 7338TIP3   OH243428   5.684   1.357  13.348  0.4627  0.6708 -0.3364
 7338TIP3    H143429   5.746   1.287  13.368 -1.3822 -0.3921  1.9371
 7338TIP3    H243430   5.733   1.438  13.362  1.6156 -0.1551  0.4799
 7339TIP3   OH243431   1.508   2.808   5.521 -0.3433 -0.4648 -0.1146
 7339TIP3    H143432   1.510   2.883   5.581  1.2759 -0.5736 -0.0048
 7339TIP3    H243433   1.518   2.731   5.577  1.5099 -0.5472 -0.5273
 7340TIP3   OH243434   6.455   1.864   1.623  0.3631 -0.0926 -0.3716
 7340TIP3    H143435   6.468   1.819   1.540  0.8047 -0.2715 -0.2056
 7340TIP3    H243436   6.543   1.885   1.654  0.1718  0.6398 -0.3112
 7341TIP3   OH243437   2.936   5.617   1.093 -0.5167 -0.6541  0.1731
 7341TIP3    H143438   2.958   5.620   1.000 -0.9471 -0.8381  0.0641
 7341TIP3    H243439   2.885   5.696   1.109 -0.3290 -0.5535  0.2836
 7342TIP3   OH243440   5.792   2.879   1.429 -0.1430  0.3144  0.2269
 7342TIP3    H143441   5.758   2.793   1.406 -2.2350  1.0376  0.5553
 7342TIP3    H243442   5.881   2.862   1.462 -0.2109 -1.5990 -0.5553
 7343TIP3   OH243443   5.414   1.091  16.998  0.3132 -0.1856  0.5260
 7343TIP3    H143444   5.439   1.166  17.051  1.4774  0.4193 -0.8564
 7343TIP3    H243445   5.366   1.034  17.058  1.1779  0.7165  2.0877
 7344TIP3   OH243446   2.241   3.876  11.084  0.3692 -0.0864  0.0443
 7344TIP3    H143447   2.320   3.878  11.138  1.3228  0.2666 -1.3447
 7344TIP3    H243448   2.269   3.907  10.998 -1.6390  1.6406 -0.0172
 7345TIP3   OH243449   5.543   6.561  14.964  0.0811  0.3271  0.4646
 7345TIP3    H143450   5.552   6.583  15.057  1.2583  1.0830  0.1876
 7345TIP3    H243451   5.598   6.484  14.952  0.1943  0.4327  0.3179
 7346TIP3   OH243452   2.089   2.259  14.748 -0.0056  0.1382  1.2604
 7346TIP3    H143453   2.099   2.355  14.751  1.4203  0.0152  0.7906
 7346TIP3    H243454   2.032   2.244  14.672  0.8242  0.5435  0.5498
 7347TIP3   OH243455   3.524   5.435   2.922 -0.0258  0.2899 -0.1216
 7347TIP3    H143456   3.436   5.422   2.957 -1.4584  4.3986 -1.8969
 7347TIP3    H243457   3.573   5.472   2.996 -0.2688 -0.3674  0.3771
 7348TIP3   OH243458   0.008   6.644  11.125  0.0826 -0.4585  0.2966
 7348TIP3    H143459   0.049   6.558  11.110  1.5586  0.1078  0.9149
 7348TIP3    H243460   0.045   6.672  11.209 -0.8729  0.5040  0.3917
 7349TIP3   OH243461   2.949   4.442   3.829 -0.0102  0.1550 -0.2345
 7349TIP3    H143462   2.904   4.496   3.764 -0.0328  2.1319  1.3574
 7349TIP3    H243463   3.030   4.416   3.787  0.6395  2.6067 -0.5968
 7350TIP3   OH243464   1.862   2.755   5.313  0.1387 -0.2111  0.6080
 7350TIP3    H143465   1.859   2.675   5.365 -0.6500 -0.0081  0.8918
 7350TIP3    H243466   1.770   2.777   5.298  0.3545  0.3812  0.1330
 7351TIP3   OH243467   6.209   2.765   4.554 -0.0658  0.5789  0.5780
 7351TIP3    H143468   6.128   2.816   4.545  0.9774  2.3030  0.7335
 7351TIP3    H243469   6.246   2.764   4.466 -0.5166 -0.6679  0.3987
 7352TIP3   OH243470   3.362   1.031  11.926 -0.1279 -0.4320  0.5045
 7352TIP3    H143471   3.440   1.084  11.944 -0.4283 -0.7937  2.9763
 7352TIP3    H243472   3.353   1.035  11.831  1.3587  1.8066  0.4056
 7353TIP3   OH243473   4.097   6.712   1.845  0.4910 -0.3145 -0.2924
 7353TIP3    H143474   4.083   6.716   1.940  0.9007  0.0364 -0.2478
 7353TIP3    H243475   4.008   6.713   1.808  0.3575  1.9220 -0.0025
 7354TIP3   OH243476   0.992   2.902   2.881  0.0703  0.0836  0.2684
 7354TIP3    H143477   1.064   2.905   2.944 -1.2765 -0.5645  1.8607
 7354TIP3    H243478   0.914   2.889   2.934 -1.0083 -1.3054 -1.5890
 7355TIP3   OH243479   3.744   1.282  15.313  0.0132 -0.7603  0.2150
 7355TIP3    H143480   3.736   1.200  15.265 -2.5506  0.0134 -0.7544
 7355TIP3    H243481   3.705   1.264  15.399 -1.3199 -0.3477 -0.2913
 7356TIP3   OH243482   2.678   2.775  12.391 -0.0387 -0.1047 -0.2191
 7356TIP3    H143483   2.682   2.822  12.307 -2.1506  0.2975 -0.0976
 7356TIP3    H243484   2.636   2.691  12.369 -1.6418  0.4669  0.6350
 7357TIP3   OH243485   2.344   2.964  16.015 -0.4746  0.1863 -0.2887
 7357TIP3    H143486   2.400   2.898  15.973 -0.4784 -0.2369  0.3654
 7357TIP3    H243487   2.393   2.992  16.091 -0.7528  0.4850 -0.2199
 7358TIP3   OH243488   0.215   4.707   6.282 -0.0793 -0.2390  0.2104
 7358TIP3    H143489   0.271   4.784   6.275  2.5772 -2.1710 -0.6097
 7358TIP3    H243490   0.126   4.741   6.274  0.9361  2.9399  1.7376
 7359TIP3   OH243491   6.622   2.302  12.638 -0.1708 -0.0154 -0.8152
 7359TIP3    H143492   6.649   2.229  12.694 -0.1294  0.5370 -0.0993
 7359TIP3    H243493   6.691   2.368  12.650 -0.3218  0.2277 -1.2804
 7360TIP3   OH243494   3.905   0.008   4.219 -0.1942 -0.0024  0.6061
 7360TIP3    H143495   3.910   0.003   4.315 -0.7909 -2.0417  0.5475
 7360TIP3    H243496   3.975  -0.048   4.188 -0.7690 -0.3153 -0.1492
 7361TIP3   OH243497   6.607   6.604  16.891  0.1774  0.4643 -0.1738
 7361TIP3    H143498   6.593   6.518  16.929 -0.0119  0.8799  0.7237
 7361TIP3    H243499   6.543   6.660  16.935 -0.5979  0.8030 -1.6973
 7362TIP3   OH243500   5.727   6.384  17.166 -0.0698 -0.2140  0.6511
 7362TIP3    H143501   5.731   6.292  17.190 -0.9532 -0.6550 -0.8488
 7362TIP3    H243502   5.639   6.412  17.191 -0.8390 -0.5568 -1.5208
 7363TIP3   OH243503   6.763   2.617   4.944  0.1449 -0.3162 -0.5475
 7363TIP3    H143504   6.675   2.597   4.913 -0.0905  1.1516 -0.8393
 7363TIP3    H243505   6.755   2.701   4.989  1.1799 -0.6991  0.3923
 7364TIP3   OH243506   5.742   1.124  14.538 -0.0152  0.0270  0.3586
 7364TIP3    H143507   5.778   1.041  14.509 -1.5401 -0.2723 -0.7412
 7364TIP3    H243508   5.741   1.179  14.460  0.9019  1.0605  1.0591
 7365TIP3   OH243509   5.842   6.007   4.647  0.1851 -0.7274 -0.1816
 7365TIP3    H143510   5.808   6.006   4.558 -0.0189  2.0207 -0.1965
 7365TIP3    H243511   5.783   5.951   4.697 -1.1063 -0.3980 -1.3118
 7366TIP3   OH243512   4.077   5.223   2.353 -0.1869  0.3911 -0.0277
 7366TIP3    H143513   4.124   5.305   2.368 -1.0631  0.5604  2.0235
 7366TIP3    H243514   4.047   5.197   2.441 -0.2421 -1.9162 -0.7236
 7367TIP3   OH243515   3.179   3.885  11.190  0.7006 -0.2025  0.0680
 7367TIP3    H143516   3.180   3.809  11.248 -0.6656 -0.7051 -0.5462
 7367TIP3    H243517   3.116   3.945  11.229 -0.0937 -0.4654 -0.7858
 7368TIP3   OH243518   3.625   3.245   5.620  0.1029  0.1298 -0.8626
 7368TIP3    H143519   3.682   3.230   5.545 -2.1916  0.2884 -2.6790
 7368TIP3    H243520   3.603   3.158   5.652  3.2311  0.0606  1.3884
 7369TIP3   OH243521   4.591   2.415  11.063  0.1959 -0.1269 -0.1163
 7369TIP3    H143522   4.659   2.353  11.038  0.3956  0.0610 -0.0333
 7369TIP3    H243523   4.598   2.420  11.159 -1.1253 -1.5094  0.0767
 7370TIP3   OH243524   2.353   0.376  15.079 -0.0463 -0.3862  0.2894
 7370TIP3    H143525   2.368   0.325  15.000  0.4857 -1.0621  0.8163
 7370TIP3    H243526   2.441   0.401  15.108 -0.2674  0.2906  0.3788
 7371TIP3   OH243527   6.164   1.328   1.123 -0.5005  0.2587  0.1307
 7371TIP3    H143528   6.236   1.291   1.073 -0.2163  0.3144  0.4960
 7371TIP3    H243529   6.086   1.305   1.073 -0.2108  0.4272 -0.4017
 7372TIP3   OH243530   3.874   1.896  11.885 -0.3336 -0.2305  0.8245
 7372TIP3    H143531   3.833   1.811  11.870  1.4757 -0.7375 -1.6369
 7372TIP3    H243532   3.961   1.874  11.918  0.3521  0.6319 -0.3897
 7373TIP3   OH243533   3.768   6.393   3.846 -0.0981  0.6739 -0.4677
 7373TIP3    H143534   3.831   6.326   3.871  0.7893  1.6129 -0.1562
 7373TIP3    H243535   3.717   6.352   3.776  1.5471  0.2662 -1.4626
 7374TIP3   OH243536   1.621   1.446  11.965  0.2840 -0.4699 -0.2728
 7374TIP3    H143537   1.703   1.424  11.921 -0.9036 -0.5526 -2.4966
 7374TIP3    H243538   1.558   1.380  11.936 -1.2757  1.1868 -0.8400
 7375TIP3   OH243539   0.015   4.851  13.126  0.1936 -0.1973 -0.3810
 7375TIP3    H143540   0.032   4.833  13.033  0.7548 -0.9053 -0.1525
 7375TIP3    H243541   0.051   4.775  13.172  0.7324  0.5664  0.4813
 7376TIP3   OH243542   2.254   5.574  17.090  0.2092  0.8763 -0.1491
 7376TIP3    H143543   2.177   5.543  17.042 -0.1980  2.5622 -0.6132
 7376TIP3    H243544   2.230   5.565  17.182  0.2250 -0.4680 -0.2593
 7377TIP3   OH243545   0.364   1.051   3.336 -0.1760  0.0514  0.0379
 7377TIP3    H143546   0.427   1.044   3.408  1.7527  0.5197 -1.5497
 7377TIP3    H243547   0.322   1.136   3.350  1.5090  0.9871 -0.3775
 7378TIP3   OH243548   5.191   6.193   0.655 -0.2774  0.5756 -0.4299
 7378TIP3    H143549   5.191   6.281   0.618  0.3158  1.6240  1.9400
 7378TIP3    H243550   5.121   6.195   0.721 -0.7148 -0.9361 -0.8268
 7379TIP3   OH243551   6.040   2.254  13.087 -0.1107 -0.4719  0.1411
 7379TIP3    H143552   6.009   2.175  13.130 -2.7100  0.8781  0.8987
 7379TIP3    H243553   6.064   2.313  13.159 -1.8735  0.7922 -0.2573
 7380TIP3   OH243554   1.244   3.336   3.556 -0.3172 -0.0411  0.1924
 7380TIP3    H143555   1.214   3.361   3.643  0.8499 -0.4461  0.7269
 7380TIP3    H243556   1.166   3.303   3.512 -0.6991 -0.9223  1.4902
 7381TIP3   OH243557   3.174   1.036   0.838  0.1536 -0.3718  0.3397
 7381TIP3    H143558   3.118   1.083   0.899 -1.0848  0.3652 -1.3065
 7381TIP3    H243559   3.115   1.007   0.768  1.6492 -0.4042 -0.9504
 7382TIP3   OH243560   6.159   1.657  16.870  0.2153 -0.1404 -0.3025
 7382TIP3    H143561   6.103   1.729  16.900 -0.5503 -1.1891  0.8397
 7382TIP3    H243562   6.097   1.594  16.831  0.8059 -0.4889 -0.6900
 7383TIP3   OH243563   3.557   5.581   6.218 -0.1125 -0.0651  0.6625
 7383TIP3    H143564   3.600   5.600   6.301  1.0923 -0.9394  0.2567
 7383TIP3    H243565   3.567   5.486   6.207 -0.4847  0.0041 -0.3532
 7384TIP3   OH243566   6.070   1.491  12.973 -0.4413  1.0516  0.0313
 7384TIP3    H143567   6.097   1.495  13.065  0.4339 -1.0670 -0.1135
 7384TIP3    H243568   5.983   1.531  12.973  0.4726  3.1377  1.3838
 7385TIP3   OH243569   0.874   2.121   1.217  0.1813  0.4478  0.8642
 7385TIP3    H143570   0.866   2.081   1.304 -2.8224 -0.3685  0.2650
 7385TIP3    H243571   0.928   2.060   1.167 -2.5323 -1.8746  0.6194
 7386TIP3   OH243572   0.704   5.241  15.321 -0.2490  0.3630  0.1487
 7386TIP3    H143573   0.792   5.276  15.333 -0.5179  0.7728  0.8842
 7386TIP3    H243574   0.696   5.170  15.385  0.0147 -0.5495 -0.8068
 7387TIP3   OH243575   5.560   6.189   0.816  0.2021  0.2038 -0.3043
 7387TIP3    H143576   5.573   6.188   0.911  1.6737 -0.7517 -0.4873
 7387TIP3    H243577   5.645   6.161   0.780  0.2890  2.4646 -1.9692
 7388TIP3   OH243578   3.058   3.000  14.437  0.2911  0.0707  0.5640
 7388TIP3    H143579   3.081   2.988  14.345  1.5921 -1.3574  1.0567
 7388TIP3    H243580   3.089   2.920  14.480 -0.9065  0.4325  2.1281
 7389TIP3   OH243581   0.875   0.456   4.970  0.2180 -0.2558 -0.6518
 7389TIP3    H143582   0.959   0.428   5.006 -0.3235  0.4127  1.1769
 7389TIP3    H243583   0.895   0.538   4.925  0.4139  0.3071  0.4459
 7390TIP3   OH243584   4.935   4.507  13.003 -0.3584 -0.0331 -0.0921
 7390TIP3    H143585   5.017   4.552  12.980 -2.1962  3.9441  0.6994
 7390TIP3    H243586   4.902   4.473  12.920 -0.2068  2.4576 -1.2171
 7391TIP3   OH243587   5.416   3.504   4.465 -0.0313 -0.3035 -0.4897
 7391TIP3    H143588   5.407   3.426   4.520 -3.1070  0.0299 -0.4198
 7391TIP3    H243589   5.502   3.539   4.488  0.4767 -2.4333  1.1065
 7392TIP3   OH243590   4.751   3.882   1.698  0.8940  0.0320 -0.3357
 7392TIP3    H143591   4.748   3.926   1.612  1.0341 -1.1650 -0.9588
 7392TIP3    H243592   4.660   3.873   1.723  0.7531 -1.3766 -1.2809
 7393TIP3   OH243593   4.699   3.068   3.141 -0.6368  0.3944  0.1779
 7393TIP3    H143594   4.693   2.980   3.102  0.2897  0.7768 -0.8501
 7393TIP3    H243595   4.779   3.064   3.195  0.3549  1.1053 -1.2041
 7394TIP3   OH243596   4.767   1.580   0.774  0.4324 -0.2698 -0.2087
 7394TIP3    H143597   4.846   1.632   0.759  0.1409  0.9186  2.0866
 7394TIP3    H243598   4.790   1.492   0.746  2.2824  0.2592 -0.4242
 7395TIP3   OH243599   4.283   0.688   2.843 -0.3119 -0.2624  0.0615
 7395TIP3    H143600   4.376   0.675   2.860 -0.0974  0.4117 -0.6042
 7395TIP3    H243601   4.266   0.635   2.765 -0.0492  1.1884 -0.9916
 7396TIP3   OH243602   1.885   0.087   5.037 -0.0958 -0.4413 -0.6194
 7396TIP3    H143603   1.811   0.056   4.985  0.7752 -1.3975 -1.2964
 7396TIP3    H243604   1.956   0.027   5.016  0.4937 -0.3500  1.0646
 7397TIP3   OH243605   4.116   1.255  15.300 -0.0915 -0.1318 -0.3062
 7397TIP3    H143606   4.111   1.347  15.327  0.0583 -0.8608  2.3678
 7397TIP3    H243607   4.137   1.208  15.381 -0.3714 -2.5484 -1.6025
 7398TIP3   OH243608   4.014   2.926   1.465 -0.4030  0.1648  0.5098
 7398TIP3    H143609   4.051   2.840   1.484  1.3533  0.8086  0.0790
 7398TIP3    H243610   3.974   2.954   1.547  1.0725 -0.0469  1.2982
 7399TIP3   OH243611   2.687   1.389   4.002  0.1284  0.1947  0.8345
 7399TIP3    H143612   2.747   1.343   4.060  1.0899  2.4368  1.6629
 7399TIP3    H243613   2.666   1.470   4.049 -0.9216  0.9625 -0.9239
 7400TIP3   OH243614   3.908   6.442  13.538 -0.4840 -0.4189 -0.2607
 7400TIP3    H143615   3.824   6.418  13.499 -0.9123  0.0920  0.3391
 7400TIP3    H243616   3.935   6.365  13.587  0.4193 -1.3453 -2.1466
 7401TIP3   OH243617   3.543   4.999  16.051 -0.2752  0.1014  0.2366
 7401TIP3    H143618   3.457   4.968  16.077  0.8214 -1.3935  2.2374
 7401TIP3    H243619   3.534   5.021  15.958 -2.6465 -0.5625  0.2930
 7402TIP3   OH243620   4.701   2.811   1.908  0.1766  0.3564 -0.5453
 7402TIP3    H143621   4.633   2.877   1.922 -0.8261 -0.6672 -0.4993
 7402TIP3    H243622   4.745   2.804   1.993  2.6977  3.5666 -1.5161
 7403TIP3   OH243623   1.275   4.163  14.619 -0.4072 -0.4324  0.1030
 7403TIP3    H143624   1.338   4.099  14.653 -2.1891 -1.6256  1.2862
 7403TIP3    H243625   1.278   4.151  14.524  0.0970 -1.5005  0.2354
 7404TIP3   OH243626   1.337   4.606   3.099  0.3310 -0.6229  0.3145
 7404TIP3    H143627   1.356   4.674   3.035 -1.0744  0.1537  0.7242
 7404TIP3    H243628   1.395   4.533   3.074 -1.4467 -1.0014 -2.8950
 7405TIP3   OH243629   4.928   5.735  17.151  0.4341  0.0705 -0.0037
 7405TIP3    H143630   5.007   5.700  17.112  1.4748  2.7293 -0.4316
 7405TIP3    H243631   4.945   5.829  17.160 -4.1387  1.4688 -3.8694
 7406TIP3   OH243632   1.717   2.343   4.977  0.0805 -0.1620  0.4894
 7406TIP3    H143633   1.635   2.296   4.956 -0.9460  1.7794  0.0522
 7406TIP3    H243634   1.691   2.435   4.981  2.4948  0.6034 -0.8308
 7407TIP3   OH243635   1.919   2.693   1.898 -0.3722  0.3418  0.2453
 7407TIP3    H143636   1.831   2.727   1.917  0.5034  1.8846  1.7746
 7407TIP3    H243637   1.906   2.627   1.831 -2.5752  1.3855 -0.3950
 7408TIP3   OH243638   0.543   1.641   4.571 -0.0231 -0.2410  0.7067
 7408TIP3    H143639   0.465   1.689   4.599  0.7219  1.4899 -0.0547
 7408TIP3    H243640   0.604   1.649   4.645 -0.2593 -0.8679  0.9694
 7409TIP3   OH243641   2.416   0.015   2.149  0.3001 -0.2327  0.3772
 7409TIP3    H143642   2.458   0.074   2.087 -2.4334  0.1356 -1.2259
 7409TIP3    H243643   2.430  -0.072   2.112  0.4512 -0.1936  0.3420
 7410TIP3   OH243644   2.568   4.189  16.233  0.2560 -0.1705  0.0585
 7410TIP3    H143645   2.590   4.110  16.283 -0.1620  0.9246  2.0617
 7410TIP3    H243646   2.652   4.229  16.212  0.4319 -0.5386  0.0600
 7411TIP3   OH243647   1.613   0.512   1.407  0.0762 -0.5406 -0.4569
 7411TIP3    H143648   1.676   0.470   1.466 -0.2200  0.1423  0.3666
 7411TIP3    H243649   1.629   0.606   1.418  0.7799 -0.4191 -2.3272
 7412TIP3   OH243650   0.264   6.167  14.494  0.4742 -0.9062  0.0339
 7412TIP3    H143651   0.208   6.213  14.557 -0.4735 -1.2540 -0.5347
 7412TIP3    H243652   0.352   6.174  14.530  0.1795  0.3944  0.5092
 7413TIP3   OH243653   3.609   2.010  14.767  0.0779  0.1818 -0.1242
 7413TIP3    H143654   3.625   2.105  14.766  2.3077 -0.1532 -0.2373
 7413TIP3    H243655   3.637   1.983  14.855 -0.6725 -0.3497 -0.0502
 7414TIP3   OH243656   0.437   5.951   1.068 -0.4750 -0.2153 -0.2894
 7414TIP3    H143657   0.504   6.017   1.085  0.3529 -0.8216 -1.1018
 7414TIP3    H243658   0.444   5.934   0.974 -0.4414 -1.7055 -0.0331
 7415TIP3   OH243659   6.274   4.094  11.778 -0.2473 -0.3418  0.1514
 7415TIP3    H143660   6.207   4.135  11.832 -1.1978  0.0950 -1.3099
 7415TIP3    H243661   6.226   4.032  11.723  0.4006  0.5385 -1.4568
 7416TIP3   OH243662   3.724   0.648  15.680  0.5315  0.1111 -0.2859
 7416TIP3    H143663   3.703   0.680  15.592  0.8329 -0.7920 -0.6947
 7416TIP3    H243664   3.643   0.607  15.710 -0.1107  1.9579  0.5686
 7417TIP3   OH243665   6.730   3.009  13.030 -0.6477 -0.4123  0.1075
 7417TIP3    H143666   6.677   2.933  13.006 -3.9358  1.9203 -0.4269
 7417TIP3    H243667   6.735   3.061  12.950  1.0162  0.2445  0.6226
 7418TIP3   OH243668   2.377   5.105   4.441  1.1064  0.7181  0.3555
 7418TIP3    H143669   2.426   5.040   4.390  0.3782 -0.6717  1.4149
 7418TIP3    H243670   2.423   5.110   4.525 -0.9219 -1.0917  1.6106
 7419TIP3   OH243671   6.018   2.803   5.554 -0.1354  0.1170 -0.0237
 7419TIP3    H143672   6.022   2.785   5.460  5.4063  1.8331 -0.2831
 7419TIP3    H243673   5.973   2.888   5.561  0.0722  0.3174 -1.1670
 7420TIP3   OH243674   2.345   3.651   4.733  0.1035 -0.4993  0.4875
 7420TIP3    H143675   2.422   3.625   4.681 -0.4948 -1.9405  0.2910
 7420TIP3    H243676   2.334   3.744   4.714  0.6980 -0.6956 -0.9519
 7421TIP3   OH243677   1.833   2.744  13.597 -0.1405 -0.0683 -0.0658
 7421TIP3    H143678   1.758   2.804  13.587 -1.2976 -1.7098 -1.5420
 7421TIP3    H243679   1.833   2.722  13.690  0.0436  1.8673  0.4250
 7422TIP3   OH243680   5.357   2.199   1.980 -0.2571 -0.1678  0.1373
 7422TIP3    H143681   5.352   2.186   1.886 -0.8289  0.6969  0.0429
 7422TIP3    H243682   5.448   2.220   1.997 -0.1525 -0.3303 -0.2174
 7423TIP3   OH243683   4.621   2.899  11.517 -0.3435  0.1768  0.4391
 7423TIP3    H143684   4.607   2.993  11.528  1.5391  0.6941 -1.1073
 7423TIP3    H243685   4.544   2.868  11.469 -1.4365  0.7313  1.8183
 7424TIP3   OH243686   5.308   3.929  13.133  0.7454  1.0835 -0.6230
 7424TIP3    H143687   5.351   3.992  13.192  0.1994  0.6172  0.2947
 7424TIP3    H243688   5.329   3.844  13.170  1.2233  0.7371 -1.6877
 7425TIP3   OH243689   1.405   2.744  15.502  0.0005  0.4255 -0.5336
 7425TIP3    H143690   1.458   2.801  15.446  0.1313 -1.3738 -2.3214
 7425TIP3    H243691   1.457   2.665  15.512  0.3406  1.0363  2.9143
 7426TIP3   OH243692   3.508   0.056  15.569  0.4045  0.0699  0.2931
 7426TIP3    H143693   3.594   0.077  15.605  1.5201 -0.8952 -1.7479
 7426TIP3    H243694   3.500  -0.039  15.579 -0.9135  0.3054  1.5224
 7427TIP3   OH243695   4.410   1.857   2.249 -0.1052  0.2169  0.1202
 7427TIP3    H143696   4.417   1.770   2.289 -2.5011 -0.4939 -0.8888
 7427TIP3    H243697   4.450   1.846   2.162 -1.0966 -0.1024 -0.3032
 7428TIP3   OH243698   5.828   5.007  11.092 -0.0720 -0.5177  0.1856
 7428TIP3    H143699   5.889   5.034  11.161 -1.3213 -0.1981  1.1828
 7428TIP3    H243700   5.842   5.070  11.021 -0.1635  0.3371  0.9221
 7429TIP3   OH243701   0.040   0.535  13.276 -0.3418  0.4935  0.5840
 7429TIP3    H143702  -0.014   0.569  13.205 -0.3595  1.2237  0.9325
 7429TIP3    H243703   0.020   0.442  13.280 -2.4492  0.9530  1.4429
 7430TIP3   OH243704   4.105   1.649   2.611 -0.0777 -0.6040  0.1522
 7430TIP3    H143705   4.070   1.660   2.523 -1.2502 -1.5306  0.4835
 7430TIP3    H243706   4.060   1.715   2.664  1.2462  0.5241 -0.0843
 7431TIP3   OH243707   0.813   4.850   2.026  0.7261  0.1831 -1.2097
 7431TIP3    H143708   0.875   4.879   1.960  0.1357  1.7192 -1.1113
 7431TIP3    H243709   0.764   4.928   2.049  1.0384 -0.2824  1.1711
 7432TIP3   OH243710   3.116   4.423  16.712  0.2646  0.2514 -0.0313
 7432TIP3    H143711   3.158   4.342  16.741 -2.0621 -0.5299  1.3193
 7432TIP3    H243712   3.029   4.419  16.751 -0.7763  2.1904 -2.1013
 7433TIP3   OH243713   5.023   3.412   4.341 -0.2448  0.0673  0.0762
 7433TIP3    H143714   5.057   3.361   4.415  1.7726  0.1535 -0.7387
 7433TIP3    H243715   5.027   3.351   4.267  1.7659  1.2441 -0.8120
 7434TIP3   OH243716   5.669   2.231  16.265  0.1313  0.3451  0.4026
 7434TIP3    H143717   5.759   2.223  16.231  1.0541  1.1849  2.5921
 7434TIP3    H243718   5.619   2.262  16.190  1.7236  0.1612 -0.7831
 7435TIP3   OH243719   5.343   3.388  11.617  0.3148  0.5555 -0.0547
 7435TIP3    H143720   5.364   3.461  11.675  0.5609  0.8461 -0.5139
 7435TIP3    H243721   5.341   3.311  11.675  0.7729  0.8123  0.3005
 7436TIP3   OH243722   6.023   4.179  11.890 -0.6374 -0.2541  0.3600
 7436TIP3    H143723   5.997   4.134  11.970 -0.7585  0.4653  0.7300
 7436TIP3    H243724   5.941   4.214  11.855 -0.6326 -0.8417 -0.2566
 7437TIP3   OH243725   6.145   4.055   3.325 -0.1726 -0.0528 -0.2343
 7437TIP3    H143726   6.234   4.059   3.288 -0.7245 -2.7350 -1.9647
 7437TIP3    H243727   6.099   3.992   3.270 -2.7403  0.1794  1.5785
 7438TIP3   OH243728   5.661   6.310   2.102  0.1427 -0.4478 -0.8505
 7438TIP3    H143729   5.591   6.281   2.043 -0.7978  0.6382 -0.2924
 7438TIP3    H243730   5.650   6.406   2.106 -1.0877 -0.6703  2.6659
 7439TIP3   OH243731   1.477   1.987  16.901 -0.0528  0.4309 -0.1353
 7439TIP3    H143732   1.417   2.060  16.884 -1.9301 -1.1819 -0.6135
 7439TIP3    H243733   1.557   2.011  16.855 -0.8921  1.8793 -0.8830
 7440TIP3   OH243734   0.261   2.833  15.997  0.4782 -0.8127 -0.2216
 7440TIP3    H143735   0.201   2.854  15.926 -0.1278 -2.2573 -0.1425
 7440TIP3    H243736   0.335   2.892  15.983 -0.9953  1.0855 -0.2253
 7441TIP3   OH243737   6.516   0.232   5.893  0.1362  0.2015 -0.2700
 7441TIP3    H143738   6.480   0.156   5.938 -0.7818  0.5594 -0.3873
 7441TIP3    H243739   6.501   0.214   5.800 -0.0872  0.5187 -0.2982
 7442TIP3   OH243740   1.434   3.297  12.905 -0.3907  0.4369  0.1649
 7442TIP3    H143741   1.527   3.287  12.884 -0.2739  0.0716  0.8392
 7442TIP3    H243742   1.432   3.319  12.998 -0.9366  1.4195 -0.0650
 7443TIP3   OH243743   6.520   4.467   4.892 -0.0243 -0.2321 -0.5093
 7443TIP3    H143744   6.610   4.440   4.873 -0.2926 -0.5231 -1.3880
 7443TIP3    H243745   6.472   4.384   4.904  0.0146 -0.0641  0.8737
 7444TIP3   OH243746   2.677   3.191   4.529  0.2056  0.5331 -0.2168
 7444TIP3    H143747   2.634   3.154   4.607  0.3717 -0.7383 -0.7137
 7444TIP3    H243748   2.606   3.230   4.479  0.1177  1.5019  0.6487
 7445TIP3   OH243749   5.224   0.241  16.998 -0.0267  0.0597  0.5998
 7445TIP3    H143750   5.272   0.183  16.940 -0.9751  0.4081 -0.5713
 7445TIP3    H243751   5.288   0.307  17.026  0.2957  0.2534 -0.5659
 7446TIP3   OH243752   2.120   2.943   6.560  0.2708  0.1888 -0.5516
 7446TIP3    H143753   2.117   2.930   6.655  3.0854  0.4744 -0.3649
 7446TIP3    H243754   2.047   3.002   6.542  0.2985  0.9511  1.6068
 7447TIP3   OH243755   6.376   4.891   0.777 -0.5737  0.4278  0.2269
 7447TIP3    H143756   6.307   4.956   0.789 -1.1810 -0.3320  0.9185
 7447TIP3    H243757   6.329   4.812   0.748  0.2000  0.4317 -1.0677
 7448TIP3   OH243758   0.095   3.329   4.996  0.1935  0.3874 -0.3342
 7448TIP3    H143759   0.023   3.277   5.031  1.1067  1.3582  3.1936
 7448TIP3    H243760   0.157   3.264   4.963 -0.9651 -0.5591 -0.6735
 7449TIP3   OH243761   6.685   6.573   3.909 -0.1453  0.3699  0.0456
 7449TIP3    H143762   6.770   6.535   3.888 -0.3175  0.3542 -0.6247
 7449TIP3    H243763   6.621   6.508   3.879 -0.4159  0.7636 -0.2347
 7450TIP3   OH243764   6.116   0.274  14.925  0.2573  0.6651 -0.4050
 7450TIP3    H143765   6.189   0.262  14.864 -2.7940  1.8193 -4.5146
 7450TIP3    H243766   6.052   0.207  14.898 -0.6021  0.2432  2.5387
 7451TIP3   OH243767   0.213   3.304  15.803  0.3055  0.6315 -0.3909
 7451TIP3    H143768   0.119   3.294  15.788  0.5242 -0.4747 -1.0794
 7451TIP3    H243769   0.224   3.395  15.828 -1.1099  0.4621  0.9071
 7452TIP3   OH243770   1.513   4.493   1.742 -0.1294 -0.5208  0.2415
 7452TIP3    H143771   1.543   4.407   1.769  0.8056 -0.0590  0.7163
 7452TIP3    H243772   1.592   4.548   1.747 -0.6218  0.2612 -0.4578
 7453TIP3   OH243773   0.509   1.557   3.515  0.7337  0.2417  0.3934
 7453TIP3    H143774   0.428   1.556   3.567  0.9134 -1.0319  0.6830
 7453TIP3    H243775   0.515   1.646   3.481 -0.5455  0.4823  0.7582
 7454TIP3   OH243776   6.147   5.532  14.371 -0.3307 -0.0497  0.4208
 7454TIP3    H143777   6.115   5.595  14.435 -0.6153 -0.0836  0.3117
 7454TIP3    H243778   6.072   5.475  14.354 -0.6400  0.7017 -0.8579
 7455TIP3   OH243779   2.883   0.143   4.278  0.0121 -0.1557 -0.1183
 7455TIP3    H143780   2.906   0.083   4.350 -2.5486 -1.0684 -0.0177
 7455TIP3    H243781   2.961   0.199   4.268  1.2834 -1.5031  1.8231
 7456TIP3   OH243782   1.653   4.621   3.105 -0.2841 -0.1826  0.5040
 7456TIP3    H143783   1.650   4.533   3.142  0.0110  0.7604  2.9137
 7456TIP3    H243784   1.710   4.670   3.166  0.2836  1.4316 -1.2845
 7457TIP3   OH243785   3.271   2.736   3.809 -0.9155 -0.1212  0.0151
 7457TIP3    H143786   3.226   2.820   3.810  0.3353  0.5929 -1.7114
 7457TIP3    H243787   3.322   2.736   3.728  0.2826 -1.9152  0.7227
 7458TIP3   OH243788   4.972   4.277  13.313  0.2999 -0.5767 -0.4095
 7458TIP3    H143789   4.978   4.234  13.398 -1.5314  0.4237  0.2543
 7458TIP3    H243790   4.998   4.210  13.250 -0.1185 -1.9036  0.7976
 7459TIP3   OH243791   1.980   6.664  16.981  0.4557 -0.1119  0.2562
 7459TIP3    H143792   1.922   6.731  16.945 -0.3676  0.1958  2.0835
 7459TIP3    H243793   2.043   6.647  16.911  0.4233  2.2488 -0.4194
 7460TIP3   OH243794   4.412   2.090  15.556 -0.8832  0.0376  0.3512
 7460TIP3    H143795   4.500   2.124  15.575 -0.5411 -0.6552  0.0060
 7460TIP3    H243796   4.421   1.995  15.562 -1.3109 -0.0921 -0.9985
 7461TIP3   OH243797   6.288   5.113  11.968  0.2310  0.2060  0.3305
 7461TIP3    H143798   6.212   5.062  11.937  0.8614 -0.8384  0.4683
 7461TIP3    H243799   6.300   5.084  12.059  0.3324  0.9247  0.5446
 7462TIP3   OH243800   2.592   5.414   6.242 -0.5062  0.3246 -0.6352
 7462TIP3    H143801   2.538   5.458   6.308  0.0962 -0.0071  0.0877
 7462TIP3    H243802   2.582   5.321   6.261  1.4049  0.3030  0.3751
 7463TIP3   OH243803   2.375   0.577   2.849 -0.0962 -0.2373  0.4076
 7463TIP3    H143804   2.468   0.581   2.870 -0.1883 -0.6647  0.9183
 7463TIP3    H243805   2.366   0.626   2.767  0.2514  1.6103  1.4441
 7464TIP3   OH243806   4.278   0.394  12.825  0.3811 -0.5967 -0.7300
 7464TIP3    H143807   4.193   0.382  12.866  0.2453  0.4993 -0.6909
 7464TIP3    H243808   4.261   0.389  12.731  0.5841 -2.3852 -0.6922
 7465TIP3   OH243809   3.684   4.847   3.454  0.0787  0.1013 -0.0919
 7465TIP3    H143810   3.602   4.800   3.438 -0.1022  1.0202 -1.9971
 7465TIP3    H243811   3.740   4.783   3.497 -1.0259 -1.0965 -0.4058
 7466TIP3   OH243812   0.887   3.081  11.309  0.2212  0.1278 -0.8253
 7466TIP3    H143813   0.891   3.148  11.377 -0.5602 -1.5076  0.8965
 7466TIP3    H243814   0.962   3.024  11.328  1.5196  1.0908 -2.9314
 7467TIP3   OH243815   0.860   0.147   2.407  0.1785 -0.1156 -0.3134
 7467TIP3    H143816   0.955   0.157   2.408  0.1781  0.0100 -1.1615
 7467TIP3    H243817   0.845   0.063   2.362 -0.1368  0.2266 -0.8490
 7468TIP3   OH243818   2.507   2.213  16.230 -0.4807  0.2877 -0.0196
 7468TIP3    H143819   2.482   2.305  16.239  0.2492  0.3495  1.6174
 7468TIP3    H243820   2.425   2.168  16.209 -1.0254  1.1722  0.1515
 7469TIP3   OH243821   4.017   6.174   5.804  0.3567  0.5664  0.7592
 7469TIP3    H143822   4.005   6.081   5.786 -1.9872  0.8626  0.7196
 7469TIP3    H243823   4.028   6.179   5.899  1.5635  0.1651  0.6549
 7470TIP3   OH243824   6.026   6.333   0.819 -0.0402 -0.0484  0.0412
 7470TIP3    H143825   6.100   6.340   0.759 -0.7482 -2.2686 -1.1563
 7470TIP3    H243826   6.020   6.419   0.861  1.9120  0.7962 -1.3659
 7471TIP3   OH243827   5.856   0.530   0.643 -0.0926  0.4131 -0.7642
 7471TIP3    H143828   5.929   0.567   0.693  0.4913 -2.4848  0.6458
 7471TIP3    H243829   5.891   0.521   0.554  0.6037  0.8417 -0.5405
 7472TIP3   OH243830   2.145   6.699  12.654 -0.3755  0.3439  0.2302
 7472TIP3    H143831   2.231   6.710  12.693  0.3663  0.1251 -1.3059
 7472TIP3    H243832   2.130   6.604  12.654  0.4666  0.1906 -1.7411
 7473TIP3   OH243833   4.291   5.577  11.366  0.4598  0.6121 -0.3946
 7473TIP3    H143834   4.360   5.623  11.319 -0.4353  0.0483 -2.3095
 7473TIP3    H243835   4.332   5.495  11.394  0.7938  0.6396 -0.8027
 7474TIP3   OH243836   1.986   0.169  14.456 -0.0395 -0.2375 -0.1842
 7474TIP3    H143837   1.954   0.101  14.395 -2.5835  0.6214  0.1445
 7474TIP3    H243838   1.988   0.249  14.403  0.0369  0.0373  0.2370
 7475TIP3   OH243839   0.853   6.324  15.669  0.2889 -0.3210  0.2771
 7475TIP3    H143840   0.924   6.366  15.620 -0.2853 -0.8781 -1.0663
 7475TIP3    H243841   0.881   6.232  15.675  0.7908 -0.0740  1.8086
 7476TIP3   OH243842   0.765   0.553  17.053 -0.1839  0.1218  0.1403
 7476TIP3    H143843   0.820   0.483  17.088  0.6435  1.4342  1.5093
 7476TIP3    H243844   0.678   0.535  17.089  0.6609  1.4516  2.9068
 7477TIP3   OH243845   1.820   3.945   2.806  0.1354 -0.1559  0.1382
 7477TIP3    H143846   1.810   3.856   2.838 -0.2035 -0.4338 -0.7206
 7477TIP3    H243847   1.897   3.941   2.748 -0.3948 -0.0865 -0.5774
 7478TIP3   OH243848   2.495   0.584  12.586 -0.0287 -0.4251  0.5113
 7478TIP3    H143849   2.538   0.631  12.658 -1.1837  2.0912 -0.3738
 7478TIP3    H243850   2.422   0.538  12.628  0.6542 -0.8114  1.2832
 7479TIP3   OH243851   4.388   3.273  16.587 -0.2728 -0.2115 -0.5958
 7479TIP3    H143852   4.333   3.307  16.516  0.9372 -0.4607 -1.6843
 7479TIP3    H243853   4.465   3.331  16.586  1.1849 -2.1198 -1.5632
 7480TIP3   OH243854   5.028   3.894  15.003 -0.0219  0.0910  0.0645
 7480TIP3    H143855   4.940   3.873  15.036  0.5858 -0.4247  1.3723
 7480TIP3    H243856   5.041   3.834  14.930 -0.6581 -0.0008  0.0204
 7481TIP3   OH243857   6.259   3.873   2.688  0.1501  0.0675  0.1683
 7481TIP3    H143858   6.340   3.836   2.655  1.7358  1.1365  2.6960
 7481TIP3    H243859   6.285   3.958   2.726 -1.6217 -0.7076  3.3362
 7482TIP3   OH243860   3.085   1.704  15.371 -0.7600 -0.2826 -0.3747
 7482TIP3    H143861   3.097   1.670  15.460 -1.1060  0.0441 -0.2012
 7482TIP3    H243862   2.999   1.746  15.373 -0.6436 -0.0195 -0.7831
 7483TIP3   OH243863   1.710   3.259   2.876  0.0632  1.0214  0.2933
 7483TIP3    H143864   1.799   3.234   2.898 -0.4916  0.0032  1.4655
 7483TIP3    H243865   1.703   3.351   2.902  0.2832  0.6404  1.7441
 7484TIP3   OH243866   3.993   0.073   6.236 -0.4402  0.3474 -0.1313
 7484TIP3    H143867   4.035   0.023   6.166 -0.4828 -1.6681  1.2441
 7484TIP3    H243868   3.981   0.009   6.307 -0.9750  2.1955  1.4701
 7485TIP3   OH243869   0.150   4.224  13.087  0.5061  0.4237 -0.6825
 7485TIP3    H143870   0.124   4.280  13.014 -1.0235 -0.1960 -0.6337
 7485TIP3    H243871   0.182   4.144  13.046  1.8263  0.9737 -0.7284
 7486TIP3   OH243872   1.064   5.306   4.271 -0.0019  0.2261 -0.0944
 7486TIP3    H143873   0.988   5.353   4.237 -0.0868  1.0277  1.1381
 7486TIP3    H243874   1.133   5.373   4.275  0.1935 -0.0105  0.6270
 7487TIP3   OH243875   5.492   2.065  13.264 -0.0574  0.8765  0.1945
 7487TIP3    H143876   5.531   2.056  13.351 -0.1213 -0.0512  0.1311
 7487TIP3    H243877   5.556   2.027  13.204 -1.2332 -1.0924  0.1399
 7488TIP3   OH243878   0.145   4.660  15.667  0.4487 -0.2198  0.1269
 7488TIP3    H143879   0.097   4.585  15.702 -0.7879  1.0327  1.1719
 7488TIP3    H243880   0.233   4.625  15.650  0.7133 -1.2445  3.2474
 7489TIP3   OH243881   3.794   1.605  10.408  0.2331  1.3016  0.1264
 7489TIP3    H143882   3.859   1.644  10.466  0.0408  0.8419  0.6545
 7489TIP3    H243883   3.726   1.571  10.467 -0.9408  2.5828 -0.4580
 7490TIP3   OH243884   2.362   2.441   3.836 -0.5594  0.0200  1.0390
 7490TIP3    H143885   2.353   2.513   3.773 -1.5073 -0.0010  1.1301
 7490TIP3    H243886   2.452   2.411   3.827 -0.2254  1.0663  0.8224
 7491TIP3   OH243887   3.268   3.454  11.143 -0.5361  0.3425  0.0122
 7491TIP3    H143888   3.354   3.494  11.157 -0.8686  1.2336 -0.4210
 7491TIP3    H243889   3.228   3.452  11.230 -0.0023 -0.2642  0.2475
 7492TIP3   OH243890   0.842   3.759   2.315 -0.1277  0.4710 -0.8376
 7492TIP3    H143891   0.759   3.773   2.271 -0.6402 -0.5970 -0.2274
 7492TIP3    H243892   0.882   3.685   2.269 -0.1028  0.1598 -0.3224
 7493TIP3   OH243893   0.192   6.426  13.852  0.1550 -0.0384 -0.0351
 7493TIP3    H143894   0.128   6.358  13.832  0.3647 -0.3041  0.1838
 7493TIP3    H243895   0.159   6.466  13.933 -0.8148  1.1874 -1.0143
 7494TIP3   OH243896   4.113   6.658   4.094  0.0568 -0.5140  0.0231
 7494TIP3    H143897   4.203   6.671   4.124 -0.2744  0.3406  0.6688
 7494TIP3    H243898   4.108   6.709   4.013 -0.3679  0.9566  0.9584
 7495TIP3   OH243899   0.446   5.724   0.586  0.1309  0.0959 -0.1478
 7495TIP3    H143900   0.500   5.771   0.523  1.3655  3.0468  2.9277
 7495TIP3    H243901   0.490   5.640   0.598  1.8705  0.9135 -0.6252
 7496TIP3   OH243902   6.551   4.197  14.309 -0.1791 -0.0251 -0.8359
 7496TIP3    H143903   6.528   4.110  14.277 -0.2721  0.1295 -1.1887
 7496TIP3    H243904   6.476   4.252  14.286 -1.0755 -0.2990  1.2580
 7497TIP3   OH243905   2.480   2.455   2.261  0.5017 -0.3651 -0.0944
 7497TIP3    H143906   2.454   2.447   2.353  0.1294 -0.7977 -0.2356
 7497TIP3    H243907   2.397   2.453   2.213  0.7111 -0.3855 -0.4554
 7498TIP3   OH243908   0.814   4.888   2.632  0.0178 -0.4008  0.3799
 7498TIP3    H143909   0.791   4.966   2.683  1.2996  0.2731 -0.0424
 7498TIP3    H243910   0.896   4.911   2.589  0.2105 -1.8539 -0.0617
 7499TIP3   OH243911   1.529   5.491   2.273 -0.4038 -0.1746  0.4264
 7499TIP3    H143912   1.519   5.577   2.313 -0.5964 -0.4242  0.9128
 7499TIP3    H243913   1.616   5.492   2.234 -0.5617  0.3852  0.0849
 7500TIP3   OH243914   5.958   3.942   1.159 -0.1433 -0.2948  0.3190
 7500TIP3    H143915   5.876   3.978   1.124  0.5752  1.2120  0.1630
 7500TIP3    H243916   5.994   3.890   1.087 -0.8493 -0.7870  0.3147
 7501TIP3   OH243917   2.351   5.405   0.122  0.1121  0.4265  0.0764
 7501TIP3    H143918   2.338   5.371   0.034  1.2848 -0.4977  0.2539
 7501TIP3    H243919   2.262   5.421   0.155 -0.3870 -0.8997 -0.6109
 7502TIP3   OH243920   3.973   3.090   4.069 -0.5573  0.5231 -0.1245
 7502TIP3    H143921   4.013   3.151   4.006 -1.5132 -0.2685 -1.5289
 7502TIP3    H243922   3.944   3.146   4.141 -2.5745  1.9669 -1.9629
 7503TIP3   OH243923   0.966   3.204   2.517 -0.5011 -0.3180 -0.3322
 7503TIP3    H143924   1.005   3.288   2.541 -1.1517 -0.0840 -0.0921
 7503TIP3    H243925   0.999   3.187   2.429  0.7589 -0.4916  0.1601
 7504TIP3   OH243926   4.148   5.966   3.756  0.5446 -0.7551  0.2573
 7504TIP3    H143927   4.219   6.031   3.750  0.5007 -0.8292 -1.0375
 7504TIP3    H243928   4.161   5.909   3.681 -1.6723  0.0122 -0.7194
 7505TIP3   OH243929   3.285   2.063  13.977  0.0976 -0.0428 -0.2138
 7505TIP3    H143930   3.323   2.120  13.910 -0.3681  2.8887  1.9311
 7505TIP3    H243931   3.338   1.983  13.973  2.9670  1.8256 -0.9766
 7506TIP3   OH243932   0.430   2.114  15.999 -0.5624  0.5557  0.5868
 7506TIP3    H143933   0.409   2.158  15.917  0.6593  1.0355  0.5200
 7506TIP3    H243934   0.358   2.136  16.058 -0.9595  1.0019 -0.0622
 7507TIP3   OH243935   5.229   3.759   4.699  0.0454 -0.3468  0.6361
 7507TIP3    H143936   5.247   3.768   4.605  0.9017  0.7296  0.8979
 7507TIP3    H243937   5.138   3.788   4.708  0.6945  1.8137  0.4751
 7508TIP3   OH243938   6.454   0.471  15.087  0.4113  0.0229  0.3561
 7508TIP3    H143939   6.535   0.430  15.056  0.1800  0.0964 -0.3503
 7508TIP3    H243940   6.455   0.559  15.051  1.0166  0.7424  2.0711
 7509TIP3   OH243941   4.987   1.750   3.823 -0.2071  0.2950  0.0537
 7509TIP3    H143942   4.961   1.680   3.764  0.6341 -0.1174  0.1661
 7509TIP3    H243943   4.917   1.754   3.888 -0.7903  0.2886 -0.5678
 7510TIP3   OH243944   3.814   1.465   4.267 -0.4438  0.9423 -0.0087
 7510TIP3    H143945   3.874   1.538   4.254  1.2928 -0.5955 -0.8968
 7510TIP3    H243946   3.816   1.449   4.361  1.3844  0.2424 -0.1432
 7511TIP3   OH243947   5.942   1.788   5.953 -0.1526  0.6747 -0.2836
 7511TIP3    H143948   5.848   1.785   5.974 -0.2320  0.4020 -0.6793
 7511TIP3    H243949   5.978   1.852   6.015 -0.5878  0.7312 -0.0852
 7512TIP3   OH243950   0.710   2.489  11.337  0.5847 -0.3523  0.7775
 7512TIP3    H143951   0.665   2.443  11.267  0.3622 -0.9470  1.3107
 7512TIP3    H243952   0.658   2.470  11.416  0.7364  0.4430  1.0771
 7513TIP3   OH243953   2.023   2.456   3.208 -0.3680  0.4835  0.2077
 7513TIP3    H143954   2.050   2.535   3.253 -0.2847  0.9295 -0.6148
 7513TIP3    H243955   2.079   2.387   3.243 -0.6932  0.7213  1.1865
 7514TIP3   OH243956   6.286   4.423   2.938  0.2541  0.1785 -0.0198
 7514TIP3    H143957   6.233   4.381   2.870 -0.1200  1.8668 -0.7897
 7514TIP3    H243958   6.369   4.374   2.937  0.2816  0.2357 -1.7364
 7515TIP3   OH243959   0.177   2.434  11.009 -0.1552  0.7395  0.4998
 7515TIP3    H143960   0.226   2.515  10.995 -0.9748  1.4845  1.7608
 7515TIP3    H243961   0.120   2.427  10.932 -0.2741  1.5122  0.5093
 7516TIP3   OH243962   2.597   6.023   2.148  0.3504  0.2722  0.1168
 7516TIP3    H143963   2.675   6.017   2.093 -0.4376  3.4685 -1.4633
 7516TIP3    H243964   2.523   6.016   2.087 -0.5639 -0.3099  1.2762
 7517TIP3   OH243965   5.050   5.847   5.762 -0.3943  0.0858  0.4012
 7517TIP3    H143966   5.005   5.804   5.834 -0.5851 -1.1980 -0.4840
 7517TIP3    H243967   5.000   5.928   5.748 -1.1178 -0.2772  0.8577
 7518TIP3   OH243968   0.643   4.453   0.005 -0.1649  0.4349  0.1222
 7518TIP3    H143969   0.606   4.539  -0.017 -2.0025 -0.2028  0.6417
 7518TIP3    H243970   0.605   4.431   0.089 -0.1277 -1.1440 -0.2581
 7519TIP3   OH243971   3.895   1.992  11.302  0.3487  0.4564  0.1779
 7519TIP3    H143972   3.937   1.910  11.327  0.4803  0.3322 -0.4339
 7519TIP3    H243973   3.835   2.012  11.374  0.6378  0.0520  0.5313
 7520TIP3   OH243974   0.983   1.982   2.818 -0.2267 -0.2034 -0.5557
 7520TIP3    H143975   1.049   2.044   2.788  0.4300 -0.4941  0.2829
 7520TIP3    H243976   0.944   1.947   2.738  1.8789 -1.3831 -1.0847
 7521TIP3   OH243977   2.536   0.157   6.140  0.7281 -0.1656  0.4367
 7521TIP3    H143978   2.440   0.161   6.135  0.7060 -0.4198  0.6024
 7521TIP3    H243979   2.553   0.088   6.204  1.0409 -1.0192 -0.5594
 7522TIP3   OH243980   0.046   2.924  15.826  0.5169 -0.2984  0.0816
 7522TIP3    H143981   0.039   3.015  15.799  4.1586 -0.3974 -1.4841
 7522TIP3    H243982  -0.006   2.875  15.762 -1.9706  0.6564  1.2895
 7523TIP3   OH243983   1.517   2.090   0.811 -0.5956  0.1355 -0.3612
 7523TIP3    H143984   1.610   2.072   0.801 -0.4667  0.5490  0.0572
 7523TIP3    H243985   1.507   2.181   0.783 -1.3763 -0.8116 -3.2814
 7524TIP3   OH243986   4.667   4.284  14.128  0.4030 -0.3459 -0.1031
 7524TIP3    H143987   4.613   4.269  14.205 -0.3146  2.9311  0.1018
 7524TIP3    H243988   4.606   4.281  14.055  0.3734  0.6623 -0.1279
 7525TIP3   OH243989   3.947   6.676  15.156 -0.2046 -0.5698 -0.2241
 7525TIP3    H143990   3.971   6.588  15.126 -0.5893 -0.5109 -0.7206
 7525TIP3    H243991   3.883   6.661  15.225  0.8445 -0.7128  0.7270
 7526TIP3   OH243992   5.878   2.148  15.162  0.4904  0.0047  0.6109
 7526TIP3    H143993   5.843   2.140  15.251 -0.1758  0.8474  0.4263
 7526TIP3    H243994   5.883   2.242  15.146  3.9824 -0.0474  1.0562
 7527TIP3   OH243995   2.579   4.635  10.571 -0.0129  0.3086  0.3734
 7527TIP3    H143996   2.620   4.704  10.623 -0.9110  1.4680 -0.4159
 7527TIP3    H243997   2.511   4.600  10.627  0.0397  0.4930  0.5536
 7528TIP3   OH243998   2.750   0.803  17.115  0.0151  0.2045 -0.3801
 7528TIP3    H143999   2.679   0.810  17.050  2.0709  1.5874 -2.5517
 7528TIP3    H244000   2.748   0.711  17.142 -1.5359 -0.1739 -1.6776
 7529TIP3   OH244001   2.336   2.736  15.410  0.1936  0.2710 -0.2132
 7529TIP3    H144002   2.335   2.684  15.490 -0.1351  2.8619  1.5347
 7529TIP3    H244003   2.304   2.676  15.342 -1.7370 -1.3247  2.0043
 7530TIP3   OH244004   2.885   6.296  15.887  0.4299 -0.4005  0.4703
 7530TIP3    H144005   2.935   6.297  15.805 -1.6101  0.3004 -0.8235
 7530TIP3    H244006   2.878   6.204  15.910 -1.5514 -0.9043 -1.8436
 7531TIP3   OH244007   5.468   2.267  15.761 -0.3005 -0.3354 -0.3635
 7531TIP3    H144008   5.491   2.355  15.731  2.9653 -1.0636 -0.1378
 7531TIP3    H244009   5.440   2.221  15.682  0.6486  0.1002 -0.9576
 7532TIP3   OH244010   2.263   0.421   0.655 -0.3901  0.1243 -0.9269
 7532TIP3    H144011   2.250   0.466   0.572 -0.7083  0.5814 -0.6378
 7532TIP3    H244012   2.274   0.492   0.719 -0.9681 -0.2075 -0.4508
 7533TIP3   OH244013   5.359   1.154   4.325 -0.6941 -0.0357 -0.6678
 7533TIP3    H144014   5.448   1.170   4.293 -0.8150  1.0899 -0.4747
 7533TIP3    H244015   5.311   1.234   4.303 -1.4841 -0.3592 -0.1511
 7534TIP3   OH244016   2.009   6.536  14.387 -0.0518 -0.4015  0.5792
 7534TIP3    H144017   2.089   6.587  14.396 -0.3045 -0.1995  1.7619
 7534TIP3    H244018   1.946   6.596  14.347  0.0223 -0.1726  0.8064
 7535TIP3   OH244019   0.791   1.859   3.724 -0.1476 -0.7122 -0.2564
 7535TIP3    H144020   0.753   1.827   3.642  0.3899 -1.9352 -0.0320
 7535TIP3    H244021   0.724   1.840   3.790 -0.6289  0.3776 -0.4246
 7536TIP3   OH244022   1.269   3.932   0.880 -0.1412  0.0249 -0.6231
 7536TIP3    H144023   1.355   3.972   0.892 -1.0971  1.1909  2.8862
 7536TIP3    H244024   1.209   4.006   0.867 -1.0587 -0.6053 -0.0595
 7537TIP3   OH244025   4.077   0.615  11.756  0.4183 -0.2192  0.0542
 7537TIP3    H144026   4.098   0.552  11.825 -0.3898  0.3304  0.8160
 7537TIP3    H244027   4.130   0.587  11.681  1.2748 -0.8486  0.8770
 7538TIP3   OH244028   0.358   2.212   1.453 -0.2225 -0.0740  0.2503
 7538TIP3    H144029   0.270   2.176   1.467 -0.8144  1.8486  1.8183
 7538TIP3    H244030   0.405   2.191   1.534  0.5143 -0.3789 -0.2518
 7539TIP3   OH244031   4.016   3.384   1.505 -0.1633 -0.0702  0.0889
 7539TIP3    H144032   4.101   3.357   1.540  0.8657  1.4142 -1.1696
 7539TIP3    H244033   4.035   3.464   1.456 -2.2017 -0.0222 -0.6682
 7540TIP3   OH244034   2.390   0.307  16.137 -0.1518  0.2771 -0.1590
 7540TIP3    H144035   2.361   0.329  16.226  0.4847 -2.7908  0.8847
 7540TIP3    H244036   2.312   0.318  16.083 -0.9006  0.8755  1.0248
 7541TIP3   OH244037   5.499   1.246  15.725  0.8478 -0.0537 -0.3541
 7541TIP3    H144038   5.426   1.238  15.786  1.5580 -1.1084  0.3781
 7541TIP3    H244039   5.464   1.299  15.653  0.3048  2.1109  1.4271
 7542TIP3   OH244040   6.417   2.534   1.580 -0.3083  0.1008  0.3534
 7542TIP3    H144041   6.413   2.526   1.675 -2.3154 -0.2497  0.2588
 7542TIP3    H244042   6.368   2.459   1.547 -0.3423  0.6795 -0.9419
 7543TIP3   OH244043   5.633   0.269  15.061  0.5597 -0.3616 -0.2681
 7543TIP3    H144044   5.680   0.197  15.104  0.7684 -0.7781 -1.1921
 7543TIP3    H244045   5.573   0.227  15.000 -0.7887  0.1891  0.6624
 7544TIP3   OH244046   2.270   0.772   5.236  0.2949  0.1481  0.1797
 7544TIP3    H144047   2.322   0.816   5.303 -0.2371 -0.2418  0.8600
 7544TIP3    H244048   2.213   0.713   5.286 -0.5818  0.3537 -0.5802
 7545TIP3   OH244049   1.063   3.707  13.756 -0.2195  0.2266  0.2532
 7545TIP3    H144050   1.127   3.778  13.746  0.2725 -0.2502  0.0079
 7545TIP3    H244051   1.060   3.690  13.850  0.1772  0.1060  0.2450
 7546TIP3   OH244052   6.366   1.904  16.034 -0.4753  0.7643 -0.2541
 7546TIP3    H144053   6.399   1.892  16.123 -1.7673  2.6220  0.4857
 7546TIP3    H244054   6.322   1.821  16.014  0.6247 -0.0100  0.4792
 7547TIP3   OH244055   0.345   5.003   0.695 -0.0786  0.3842  0.5066
 7547TIP3    H144056   0.314   4.916   0.719  1.6028  0.2060  2.1641
 7547TIP3    H244057   0.427   4.988   0.648  0.6225  1.0864  1.4829
 7548TIP3   OH244058   4.616   4.481   3.249 -0.0526 -0.1654 -0.0780
 7548TIP3    H144059   4.663   4.398   3.238 -0.1613 -0.3454  0.7737
 7548TIP3    H244060   4.545   4.460   3.310  0.1804  0.6508  0.4810
 7549TIP3   OH244061   4.183   5.500  15.619 -0.1910  0.0525  0.1977
 7549TIP3    H144062   4.232   5.561  15.675  0.2752  1.4606 -1.7105
 7549TIP3    H244063   4.242   5.484  15.545 -1.5044 -0.4144 -0.7478
 7550TIP3   OH244064   2.918   4.744   3.992  0.1299 -0.0735  0.0871
 7550TIP3    H144065   2.898   4.651   4.009 -0.0830 -0.3847 -1.8389
 7550TIP3    H244066   2.846   4.775   3.938  0.6611  1.0050 -0.0186
 7551TIP3   OH244067   2.333   0.678   1.912 -0.7259  0.7496  0.0486
 7551TIP3    H144068   2.349   0.584   1.905  0.3299  0.9858 -0.7767
 7551TIP3    H244069   2.238   0.687   1.906 -0.7558 -0.1712 -0.9251
 7552TIP3   OH244070   4.365   4.885  11.760 -0.2480 -0.4841 -0.7378
 7552TIP3    H144071   4.324   4.841  11.686 -0.3119 -0.7084 -0.5691
 7552TIP3    H244072   4.368   4.977  11.734  1.3604 -0.8106 -1.7639
 7553TIP3   OH244073   5.014   4.778  12.773  0.5055 -0.0298 -0.3166
 7553TIP3    H144074   5.067   4.858  12.768  0.9156 -0.3827 -1.7306
 7553TIP3    H244075   5.077   4.707  12.777  0.1591 -0.2425  2.4282
 7554TIP3   OH244076   4.468   6.621  15.867 -0.2008 -0.0502  0.8544
 7554TIP3    H144077   4.555   6.659  15.872 -0.0575 -0.1040 -1.1214
 7554TIP3    H244078   4.473   6.556  15.798 -1.7003 -0.3446  0.9943
 7555TIP3   OH244079   2.078   5.990   5.802  0.4406  0.4793 -0.1815
 7555TIP3    H144080   2.173   6.001   5.803  0.4154  0.6793  0.3424
 7555TIP3    H244081   2.063   5.914   5.745  0.9734 -0.0873  0.4208
 7556TIP3   OH244082   3.419   1.462  15.476  0.8355  0.2587 -0.0724
 7556TIP3    H144083   3.413   1.554  15.447  1.3067  0.8170  1.5647
 7556TIP3    H244084   3.376   1.462  15.562  0.4708 -1.1429 -0.2536
 7557TIP3   OH244085   1.603   6.239   4.542 -0.9691  0.2318 -0.0904
 7557TIP3    H144086   1.518   6.283   4.540 -1.3993 -0.5691 -0.0084
 7557TIP3    H244087   1.584   6.150   4.511  0.2407  0.6987 -2.3106
 7558TIP3   OH244088   4.137   4.168   0.868  0.2277 -0.0369 -0.5156
 7558TIP3    H144089   4.216   4.194   0.822 -0.3323  2.1089 -0.2892
 7558TIP3    H244090   4.138   4.218   0.949 -1.1252 -0.3449 -0.2907
 7559TIP3   OH244091   3.301   2.690   3.150 -0.0385 -0.3407 -0.3623
 7559TIP3    H144092   3.356   2.666   3.076  0.8360 -2.0715  0.8062
 7559TIP3    H244093   3.248   2.611   3.167  1.6181 -0.9127  2.4613
 7560TIP3   OH244094   1.962   4.626  12.068 -0.2262  0.0214 -0.5476
 7560TIP3    H144095   1.968   4.601  12.160  0.3000 -0.3215 -0.6752
 7560TIP3    H244096   1.881   4.587  12.037 -0.5877  0.4377 -0.1390
 7561TIP3   OH244097   6.767   5.924  14.422 -0.2564 -0.2247 -0.2639
 7561TIP3    H144098   6.835   5.922  14.354 -0.9353 -0.1104 -0.9530
 7561TIP3    H244099   6.698   5.866  14.389 -1.1837  0.8944 -0.3209
 7562TIP3   OH244100   4.522   6.567   4.402 -0.9576  0.1827  0.1581
 7562TIP3    H144101   4.539   6.637   4.466 -0.3957  2.2464 -2.1719
 7562TIP3    H244102   4.593   6.504   4.418  0.0524  1.3921  0.5910
 7563TIP3   OH244103   1.221   6.278  16.626 -0.1076  0.6900  0.2955
 7563TIP3    H144104   1.240   6.335  16.701  1.8231 -0.4613  0.7158
 7563TIP3    H244105   1.165   6.209  16.662 -2.6730  2.4305 -0.2711
 7564TIP3   OH244106   0.101   0.525  16.468  0.6266  0.2715 -0.0153
 7564TIP3    H144107   0.029   0.583  16.493  1.9588  1.8346  0.2611
 7564TIP3    H244108   0.098   0.454  16.532 -0.5984  0.3963  0.0678
 7565TIP3   OH244109   5.027   4.850   4.100 -0.0027  0.3785 -0.5718
 7565TIP3    H144110   4.994   4.765   4.072 -0.3908  0.1980  0.4413
 7565TIP3    H244111   5.019   4.905   4.022  0.6845 -0.6237 -1.3751
 7566TIP3   OH244112   6.667   6.122  15.059 -0.1324  0.0123 -0.2659
 7566TIP3    H144113   6.669   6.156  14.970  1.1732  1.0651  0.1554
 7566TIP3    H244114   6.652   6.199  15.114 -1.6423 -0.7161  0.4018
 7567TIP3   OH244115   6.552   1.539   2.856  0.5587 -0.0577  0.1398
 7567TIP3    H144116   6.630   1.593   2.865 -0.1191  1.0077 -0.3136
 7567TIP3    H244117   6.502   1.556   2.936 -0.6076  1.5687 -0.8831
 7568TIP3   OH244118   5.994   5.046  15.937  0.0028 -0.1791  0.0834
 7568TIP3    H144119   6.017   4.957  15.911  0.7800  0.2982 -0.8927
 7568TIP3    H244120   6.000   5.097  15.856  0.6702  0.9760  0.8516
 7569TIP3   OH244121   5.712   4.694  11.217 -0.1549 -0.2925 -0.1705
 7569TIP3    H144122   5.684   4.785  11.211  1.7512  0.1957 -2.4685
 7569TIP3    H244123   5.793   4.696  11.268  0.4546 -0.5237 -1.0946
 7570TIP3   OH244124   4.039   5.128  17.106  0.4195 -0.4150  0.0564
 7570TIP3    H144125   3.951   5.124  17.070  0.6862 -1.1520 -0.5254
 7570TIP3    H244126   4.034   5.079  17.188  0.4167 -0.9487 -0.2588
 7571TIP3   OH244127   0.931   3.694   3.412  0.1279 -0.3424  0.5488
 7571TIP3    H144128   0.935   3.605   3.446 -1.7148 -0.6134  0.1542
 7571TIP3    H244129   0.926   3.683   3.317  1.6925  0.2611  0.3881
 7572TIP3   OH244130   1.911   2.354   3.523  0.1249  0.4354  0.6889
 7572TIP3    H144131   1.991   2.302   3.530 -0.5240 -0.4530  1.6457
 7572TIP3    H244132   1.863   2.314   3.450  0.5071  0.9041  0.1809
 7573TIP3   OH244133   5.411   3.816   0.786  0.4345  0.0172 -0.6342
 7573TIP3    H144134   5.427   3.825   0.880 -1.3932  1.3876 -0.4462
 7573TIP3    H244135   5.498   3.797   0.750  0.9097 -2.2176  1.5047
 7574TIP3   OH244136   2.435   4.941  13.773 -0.3103 -0.0133  0.1793
 7574TIP3    H144137   2.445   4.901  13.686  0.1887  0.3909  0.0482
 7574TIP3    H244138   2.369   5.009  13.760 -1.0394 -0.6742  0.3650
 7575TIP3   OH244139   2.402   2.536  10.899 -0.1636  0.6982  0.4061
 7575TIP3    H144140   2.373   2.615  10.854 -1.1174  0.7292  1.0654
 7575TIP3    H244141   2.444   2.484  10.831  1.3267  2.1902  0.1722
 7576TIP3   OH244142   2.942   2.349  16.113 -1.0823 -0.3226  0.2054
 7576TIP3    H144143   2.952   2.324  16.021 -0.5182 -1.3608  0.5389
 7576TIP3    H244144   3.025   2.325  16.153 -0.0946  3.0497  0.3549
 7577TIP3   OH244145   5.107   1.369   4.316  0.3049  0.1616 -0.5175
 7577TIP3    H144146   5.107   1.440   4.251 -2.3070  0.2529 -0.4665
 7577TIP3    H244147   5.016   1.362   4.343  0.7701 -2.3201  0.4921
 7578TIP3   OH244148   1.492   0.272  16.279  0.3534 -0.3001 -0.0471
 7578TIP3    H144149   1.557   0.209  16.248  1.5697  0.5392  0.7218
 7578TIP3    H244150   1.508   0.350  16.226 -0.3152 -0.2253 -0.1418
 7579TIP3   OH244151   5.251   4.612   1.647 -0.0594  0.4656 -0.6320
 7579TIP3    H144152   5.251   4.681   1.713  1.0308 -0.2561  0.1353
 7579TIP3    H244153   5.212   4.536   1.691  0.8907 -0.0878 -0.7159
 7580TIP3   OH244154   2.738   3.523   6.007  0.6523  0.0359 -0.3318
 7580TIP3    H144155   2.739   3.484   6.094 -1.9865 -0.1009 -0.3422
 7580TIP3    H244156   2.779   3.458   5.951 -0.5491 -1.2530  0.2587
 7581TIP3   OH244157   3.711   6.547  14.477  0.2577  0.0561 -0.1703
 7581TIP3    H144158   3.784   6.493  14.448  0.0779  1.1225 -2.7360
 7581TIP3    H244159   3.743   6.590  14.557  2.1677 -0.0400 -0.8680
 7582TIP3   OH244160   0.689   3.200   4.233 -0.0947 -0.3783 -0.3174
 7582TIP3    H144161   0.625   3.269   4.217  0.0081  0.0270  0.9709
 7582TIP3    H244162   0.722   3.178   4.146 -0.3138  1.0037 -0.7694
 7583TIP3   OH244163   5.808   1.156  15.725 -0.1186 -0.3730 -0.2914
 7583TIP3    H144164   5.850   1.234  15.762  2.5072 -0.5456 -2.7164
 7583TIP3    H244165   5.720   1.186  15.701 -0.5978  0.6757  2.6110
 7584TIP3   OH244166   4.518   4.848   5.578 -0.1302  0.0033  0.2043
 7584TIP3    H144167   4.467   4.849   5.498 -0.1982  0.2915  0.2500
 7584TIP3    H244168   4.609   4.848   5.548 -0.1332  1.7802  0.1238
 7585TIP3   OH244169   0.507   0.013  14.950 -0.2491  0.0942 -0.4815
 7585TIP3    H144170   0.520   0.104  14.925 -0.3849 -0.0107 -0.9389
 7585TIP3    H244171   0.462   0.017  15.034 -1.6549  0.4413 -1.2461
 7586TIP3   OH244172   1.071   6.505   0.218  0.0014  0.2081  0.0815
 7586TIP3    H144173   1.020   6.501   0.138  1.2631  0.8481 -0.7701
 7586TIP3    H244174   1.043   6.429   0.269  0.8095 -1.4383 -1.9231
 7587TIP3   OH244175   3.805   3.818   1.736  0.1763  0.3171 -0.5423
 7587TIP3    H144176   3.866   3.771   1.792 -0.2460  0.4739  0.0499
 7587TIP3    H244177   3.720   3.781   1.757  0.1093 -0.1610 -1.6367
 7588TIP3   OH244178   6.683   4.256   2.295  0.1118  0.2946  0.0972
 7588TIP3    H144179   6.677   4.163   2.319  0.7503 -0.0885 -1.2147
 7588TIP3    H244180   6.777   4.275   2.295  0.0370  0.6728 -0.6603
 7589TIP3   OH244181   4.164   1.607   3.289  0.0455 -0.2966 -0.3307
 7589TIP3    H144182   4.227   1.576   3.354 -0.2773  0.8104  0.5100
 7589TIP3    H244183   4.214   1.667   3.234  0.2911 -1.1506 -1.0689
 7590TIP3   OH244184   0.702   4.241  12.066  0.0343 -0.0057  0.4391
 7590TIP3    H144185   0.721   4.155  12.104 -0.2264 -0.1025  0.3477
 7590TIP3    H244186   0.610   4.257  12.087 -0.1718 -0.1525 -0.3339
 7591TIP3   OH244187   0.839   5.520   2.287 -0.0527  0.6102  0.2489
 7591TIP3    H144188   0.899   5.455   2.323  1.0536  0.3475 -1.9540
 7591TIP3    H244189   0.855   5.599   2.337  0.3360 -0.1440  1.3335
 7592TIP3   OH244190   0.032   6.120   0.582 -0.4684 -0.3302 -0.0926
 7592TIP3    H144191   0.077   6.181   0.641 -0.3566  0.8638 -1.3687
 7592TIP3    H244192   0.095   6.049   0.568  0.7003  0.8782 -1.1511
 7593TIP3   OH244193   6.593   4.980  15.455  0.3804 -0.5244  0.5957
 7593TIP3    H144194   6.597   4.889  15.483  0.8328 -0.3216  1.2214
 7593TIP3    H244195   6.656   4.987  15.384 -0.7111 -1.0288 -0.4243
 7594TIP3   OH244196   4.227   3.737   3.407  0.5270  0.4491 -0.1934
 7594TIP3    H144197   4.181   3.671   3.459 -1.6640  1.2579 -1.0400
 7594TIP3    H244198   4.301   3.763   3.461 -1.2595  0.6904  2.2146
 7595TIP3   OH244199   1.045   4.681   0.973  0.3860 -0.0359 -0.4737
 7595TIP3    H144200   1.121   4.622   0.978 -0.5144 -1.0132  5.1480
 7595TIP3    H244201   0.969   4.622   0.972 -0.4081  0.9864 -1.7628
 7596TIP3   OH244202   3.297   3.186  11.326 -0.2285  0.3484  0.2891
 7596TIP3    H144203   3.256   3.100  11.317  0.2871  0.1313  0.0056
 7596TIP3    H244204   3.356   3.192  11.251 -1.0524  1.3918 -0.2855
 7597TIP3   OH244205   0.780   3.453   5.359 -0.0966  0.1346  0.1748
 7597TIP3    H144206   0.758   3.546   5.356 -2.2092 -0.3445  0.2844
 7597TIP3    H244207   0.717   3.411   5.302  0.8542 -1.2476  0.1105
 7598TIP3   OH244208   1.833   4.662   1.436 -0.3432  0.2356  0.4137
 7598TIP3    H144209   1.891   4.683   1.362  1.4819  0.3466  1.8258
 7598TIP3    H244210   1.780   4.741   1.448  0.6039  0.8964  0.3462
 7599TIP3   OH244211   3.582   5.942   1.486  0.4904  0.1284 -0.0632
 7599TIP3    H144212   3.601   5.999   1.560  1.1356  0.4999 -0.5053
 7599TIP3    H244213   3.639   5.867   1.498 -1.3992 -1.1342  1.3003
 7600TIP3   OH244214   2.199   1.673   5.249  0.3008  0.0584 -0.4371
 7600TIP3    H144215   2.257   1.742   5.279  0.9539 -0.5588 -0.2793
 7600TIP3    H244216   2.202   1.678   5.153  0.4540  0.1655 -0.4258
 7601TIP3   OH244217   0.859   2.412  11.776 -0.7198 -0.6221 -0.1557
 7601TIP3    H144218   0.907   2.413  11.693  0.5307 -0.5890  0.5477
 7601TIP3    H244219   0.779   2.363  11.757 -0.0528 -1.3469 -1.1720
 7602TIP3   OH244220   5.047   1.380  16.776  0.1827 -0.0447  0.2089
 7602TIP3    H144221   5.033   1.463  16.821  0.9599 -0.5822  1.4342
 7602TIP3    H244222   5.053   1.404  16.683 -0.2658  1.1773  0.4876
 7603TIP3   OH244223   0.334   4.132   0.902  0.3237  0.1232  0.6693
 7603TIP3    H144224   0.311   4.121   0.810 -0.9860 -1.3423  1.1354
 7603TIP3    H244225   0.265   4.084   0.949  2.1624 -0.9812  2.3033
 7604TIP3   OH244226   0.385   0.540  11.178  0.1279  0.2209 -0.5094
 7604TIP3    H144227   0.404   0.585  11.096 -1.3329  1.0757 -0.4008
 7604TIP3    H244228   0.443   0.463  11.178  1.4329  1.1791 -1.4819
 7605TIP3   OH244229   1.166   3.405   3.827 -0.1105  0.1375 -0.2217
 7605TIP3    H144230   1.179   3.325   3.878  0.0225  0.0396 -0.4075
 7605TIP3    H244231   1.217   3.471   3.874 -1.6584  0.5355  0.9431
 7606TIP3   OH244232   4.376   3.220  13.383 -1.1430 -0.5524  0.3893
 7606TIP3    H144233   4.373   3.290  13.318 -0.1280  0.6954  1.6635
 7606TIP3    H244234   4.292   3.175  13.374 -1.5125  0.3835 -0.9252
 7607TIP3   OH244235   5.067   2.229   3.628  0.3848  0.0750  0.2756
 7607TIP3    H144236   5.108   2.153   3.670 -0.9264 -0.2436  1.0108
 7607TIP3    H244237   4.977   2.229   3.661  0.5834  2.4136  0.8950
 7608TIP3   OH244238   2.840   3.782  14.631  0.0938  0.3080  0.2545
 7608TIP3    H144239   2.818   3.837  14.556 -0.0161 -0.7537 -0.4990
 7608TIP3    H244240   2.935   3.791  14.639  0.3209 -0.8206 -1.0091
 7609TIP3   OH244241   2.663   5.910  16.321  0.2035  0.0122  0.4942
 7609TIP3    H144242   2.624   5.937  16.404  0.4016  1.1494  0.2338
 7609TIP3    H244243   2.754   5.889  16.343 -0.1120 -1.0302  0.8050
 7610TIP3   OH244244   5.741   3.580   3.665  0.3701 -0.1007 -0.1231
 7610TIP3    H144245   5.767   3.653   3.609  1.2968 -0.7833 -0.5959
 7610TIP3    H244246   5.819   3.560   3.717 -0.2920  0.1122  0.9532
 7611TIP3   OH244247   5.398   3.557  11.827 -0.0096 -0.0219  0.2032
 7611TIP3    H144248   5.316   3.606  11.833 -0.1838 -0.3760  0.7374
 7611TIP3    H244249   5.403   3.508  11.909  0.4505 -0.4518 -0.0766
 7612TIP3   OH244250   0.885   5.218  11.574  0.5052 -0.0770 -0.1423
 7612TIP3    H144251   0.824   5.154  11.537  2.1006 -1.5750 -0.1975
 7612TIP3    H244252   0.966   5.206  11.526  1.7265 -0.0397  1.8487
 7613TIP3   OH244253   3.932   6.581   5.289 -0.5312 -0.2959  0.6078
 7613TIP3    H144254   3.940   6.613   5.379  1.3172  1.3970 -0.1103
 7613TIP3    H244255   3.850   6.619   5.257  0.4152  1.8403  0.5750
 7614TIP3   OH244256   5.096   6.722   5.023 -0.1036  0.1404  0.2426
 7614TIP3    H144257   5.052   6.681   4.949  0.9918 -0.0635 -0.3088
 7614TIP3    H244258   5.178   6.756   4.986 -0.5488  1.9907  0.8790
 7615TIP3   OH244259   5.025   2.501   5.917 -0.5097 -0.0572  0.1661
 7615TIP3    H144260   4.929   2.510   5.914 -0.6769 -1.5369  0.7503
 7615TIP3    H244261   5.040   2.407   5.921  1.0538  0.0146 -2.4836
 7616TIP3   OH244262   0.333   1.302  11.175 -0.5368 -0.1517  0.3219
 7616TIP3    H144263   0.325   1.296  11.079  0.1120  0.0817  0.2572
 7616TIP3    H244264   0.415   1.257  11.195  1.6959  3.7624  0.3331
 7617TIP3   OH244265   1.775   2.387   2.389 -0.3155  0.4318 -0.2605
 7617TIP3    H144266   1.765   2.460   2.451  0.0227 -2.7661  3.8291
 7617TIP3    H244267   1.868   2.384   2.371  0.2114 -0.9493  2.3221
 7618TIP3   OH244268   6.031   4.141  17.185 -0.6571  0.0140 -0.3635
 7618TIP3    H144269   5.941   4.128  17.213 -1.0506 -1.9223 -2.3346
 7618TIP3    H244270   6.039   4.235  17.170 -2.0777  0.3077  0.6162
 7619TIP3   OH244271   6.563   1.236  10.996 -0.4217 -0.1833 -0.0734
 7619TIP3    H144272   6.559   1.148  10.958 -0.1393  0.7311 -2.3299
 7619TIP3    H244273   6.656   1.252  11.010 -0.6045 -1.0298  2.3476
 7620TIP3   OH244274   1.333   3.373   2.451 -0.7888  0.1220  0.2613
 7620TIP3    H144275   1.394   3.301   2.440 -1.5070 -0.4449 -0.0562
 7620TIP3    H244276   1.387   3.447   2.479 -0.5421 -1.4850  4.2846
 7621TIP3   OH244277   6.070   0.898  16.040 -0.0165  0.2445 -0.1142
 7621TIP3    H144278   5.992   0.913  15.986 -0.8770  1.2267  1.3711
 7621TIP3    H244279   6.122   0.978  16.029  1.2862 -0.8065 -1.8813
 7622TIP3   OH244280   4.074   5.674   4.576 -0.1020 -0.0665 -0.1937
 7622TIP3    H144281   4.051   5.595   4.625  2.0442 -0.1591  0.7489
 7622TIP3    H244282   4.092   5.740   4.643 -0.3730  0.7790 -0.9396
 7623TIP3   OH244283   0.741   1.682  12.446  0.5003  0.3646 -0.6805
 7623TIP3    H144284   0.746   1.767  12.404  1.2065  0.9341  0.5256
 7623TIP3    H244285   0.720   1.621  12.375 -0.0244  1.5352 -1.5403
 7624TIP3   OH244286   4.517   1.201  16.293 -0.3434  0.1379 -0.0608
 7624TIP3    H144287   4.434   1.225  16.334 -0.6113 -1.1658  0.1753
 7624TIP3    H244288   4.580   1.197  16.365 -0.3082  0.0997 -0.0933
 7625TIP3   OH244289   1.019   4.560   1.602  0.0585 -0.2904 -0.1969
 7625TIP3    H144290   0.959   4.572   1.675  2.0335  0.5070  1.3406
 7625TIP3    H244291   1.099   4.525   1.642  1.9359  2.2136 -1.6073
 7626TIP3   OH244292   6.728   0.679   1.427  0.3958 -0.2170  0.1622
 7626TIP3    H144293   6.690   0.767   1.427  1.6004  0.3020 -0.0280
 7626TIP3    H244294   6.684   0.635   1.354  0.4551  0.5183 -0.3277
 7627TIP3   OH244295   3.122   3.905   5.427  0.3425  0.2829 -0.6400
 7627TIP3    H144296   3.122   3.920   5.522  0.4888 -2.7020 -0.1242
 7627TIP3    H244297   3.204   3.944   5.397  1.4567 -0.8480  0.8442
 7628TIP3   OH244298   6.720   0.825  10.999 -0.0173  0.1434  0.0632
 7628TIP3    H144299   6.662   0.844  10.925 -0.5678  1.5801  0.8628
 7628TIP3    H244300   6.797   0.881  10.984  0.0433  0.1410  0.3697
 7629TIP3   OH244301   1.084   3.472   2.515 -0.1286 -0.3269 -0.6885
 7629TIP3    H144302   1.157   3.420   2.482 -0.3523  0.3808 -2.2938
 7629TIP3    H244303   1.108   3.563   2.496 -0.7701  0.0168  0.0979
 7630TIP3   OH244304   2.394   5.577   1.881  0.2227  0.6048  0.2202
 7630TIP3    H144305   2.470   5.523   1.862  1.6142  2.2826  0.9071
 7630TIP3    H244306   2.390   5.640   1.809 -2.1211 -1.1279 -1.2386
 7631TIP3   OH244307   0.055   4.668   6.027  0.0468  0.2729  0.0769
 7631TIP3    H144308   0.031   4.580   5.996  0.8776 -0.6936  2.0864
 7631TIP3    H244309   0.013   4.675   6.113 -0.8760  2.2625 -0.5161
 7632TIP3   OH244310   1.036   1.798   1.664 -0.4653  0.4437  0.2731
 7632TIP3    H144311   1.015   1.802   1.757  0.1986 -0.4001  0.4647
 7632TIP3    H244312   1.128   1.770   1.662 -0.4906  0.4228 -0.6336
 7633TIP3   OH244313   3.615   3.422   2.659 -0.0738  0.9329  0.3588
 7633TIP3    H144314   3.669   3.500   2.674  0.5800  0.5622 -0.0641
 7633TIP3    H244315   3.566   3.443   2.579  0.6108  0.6365 -0.1418
 7634TIP3   OH244316   0.848   6.490  16.435 -0.3297 -0.4209 -0.2979
 7634TIP3    H144317   0.870   6.559  16.373 -0.5856  0.7417  0.8785
 7634TIP3    H244318   0.917   6.424  16.423  1.1845  1.0424  0.0726
 7635TIP3   OH244319   2.863   1.736   0.125 -0.0453 -0.2063 -0.3059
 7635TIP3    H144320   2.803   1.701   0.191 -0.8197 -0.6704 -1.2394
 7635TIP3    H244321   2.925   1.789   0.175  0.1945 -1.6274  0.9600
 7636TIP3   OH244322   6.730   2.775  12.316  0.0162 -0.5671  0.0379
 7636TIP3    H144323   6.658   2.792  12.377 -0.4595 -0.1920 -0.6297
 7636TIP3    H244324   6.698   2.804  12.231  1.5697  1.1415  0.0120
 7637TIP3   OH244325   5.926   0.824   3.773 -0.5993 -0.0422 -0.2114
 7637TIP3    H144326   5.973   0.900   3.806 -0.6116 -0.2235  0.2174
 7637TIP3    H244327   5.928   0.835   3.678  1.4892 -0.7678 -0.2655
 7638TIP3   OH244328   1.829   4.768   2.912 -0.3491 -0.0847  0.1380
 7638TIP3    H144329   1.865   4.722   2.835 -0.4245  0.3232 -0.1411
 7638TIP3    H244330   1.789   4.698   2.964 -2.2496 -0.1087 -1.2840
 7639TIP3   OH244331   5.288   2.729   5.850  0.5475 -0.4439 -0.0366
 7639TIP3    H144332   5.374   2.688   5.855 -0.2999 -1.9708  2.7420
 7639TIP3    H244333   5.241   2.678   5.784  0.3760 -2.3948  1.5345
 7640TIP3   OH244334   3.957   5.319  12.677  0.2529 -0.6002  0.1854
 7640TIP3    H144335   3.911   5.379  12.737  0.0555 -1.3641  0.8209
 7640TIP3    H244336   3.906   5.238  12.682 -1.2154  0.0650 -2.9149
 7641TIP3   OH244337   6.675   0.610  13.053  0.3138 -0.2617 -0.1346
 7641TIP3    H144338   6.610   0.640  12.989  0.3216 -0.0904 -0.0644
 7641TIP3    H244339   6.726   0.544  13.007  1.5464  1.1942 -0.9228
 7642TIP3   OH244340   3.765   2.344   5.039  0.3838  0.4123  0.5680
 7642TIP3    H144341   3.816   2.263   5.032 -2.1724 -1.1681 -0.2681
 7642TIP3    H244342   3.791   2.382   5.123  1.0504 -1.6452  1.3046
 7643TIP3   OH244343   3.435   1.872   1.188  0.0092  0.2552  0.3197
 7643TIP3    H144344   3.381   1.808   1.234  0.3964 -1.7726 -1.9201
 7643TIP3    H244345   3.414   1.955   1.229 -1.2076 -1.1757  2.7035
 7644TIP3   OH244346   5.241   5.727  13.431  0.0736  0.0003  0.1574
 7644TIP3    H144347   5.163   5.775  13.458 -1.1246 -0.3418 -2.5389
 7644TIP3    H244348   5.212   5.673  13.358  2.1171 -2.5483  1.1306
 7645TIP3   OH244349   2.868   0.262   2.551 -0.5624 -0.4107  0.4212
 7645TIP3    H144350   2.788   0.282   2.503 -0.5891  0.4714  0.8318
 7645TIP3    H244351   2.891   0.173   2.523 -0.5135  0.1324 -1.2780
 7646TIP3   OH244352   6.268   3.457   2.229 -0.1816  0.4309 -0.6740
 7646TIP3    H144353   6.343   3.446   2.287  0.4258  0.2029 -1.4979
 7646TIP3    H244354   6.300   3.433   2.142 -1.1395  0.5627 -1.0770
 7647TIP3   OH244355   5.505   1.095   3.717  0.3763  0.1754 -0.3648
 7647TIP3    H144356   5.421   1.139   3.731  0.8504  0.6652  0.9922
 7647TIP3    H244357   5.481   1.008   3.687 -0.6148  0.4960 -0.5363
 7648TIP3   OH244358   5.543   5.586   2.892 -0.2267 -1.0950 -0.0495
 7648TIP3    H144359   5.516   5.675   2.871  0.4863 -0.5662  1.2128
 7648TIP3    H244360   5.632   5.579   2.857 -0.1473 -1.1907  0.1683
 7649TIP3   OH244361   5.998   0.905  11.859 -0.4598 -0.5622  0.0396
 7649TIP3    H144362   6.012   0.816  11.827 -0.9549 -1.1386  1.3734
 7649TIP3    H244363   5.998   0.896  11.955 -0.3784  0.8905  0.1875
 7650TIP3   OH244364   3.624   5.331  16.381 -0.2816  0.1748 -0.0129
 7650TIP3    H144365   3.661   5.283  16.307 -0.2233  0.6855 -0.3138
 7650TIP3    H244366   3.678   5.409  16.389  0.7859 -0.7047  1.6463
 7651TIP3   OH244367   2.682   2.394   5.977  0.9042  0.1487 -0.0428
 7651TIP3    H144368   2.706   2.330   5.910  0.8581  0.4316 -0.3319
 7651TIP3    H244369   2.624   2.346   6.037  1.0220 -0.1297 -0.1523
 7652TIP3   OH244370   3.441   6.634  16.759 -0.5723 -0.5847  0.0336
 7652TIP3    H144371   3.479   6.547  16.769  1.8524  0.3920 -0.1371
 7652TIP3    H244372   3.419   6.661  16.848  2.5236  0.2110  0.6382
 7653TIP3   OH244373   6.190   2.611  14.520  0.2784  0.4679  0.4020
 7653TIP3    H144374   6.215   2.680  14.581 -0.0388  0.9914 -0.0486
 7653TIP3    H244375   6.127   2.558  14.568  0.0344  0.8752  0.5344
 7654TIP3   OH244376   6.305   4.320  12.866  0.4908  0.3319  0.1527
 7654TIP3    H144377   6.255   4.314  12.947 -0.0218  0.5087 -0.1420
 7654TIP3    H244378   6.391   4.353  12.892  0.6244 -0.4519  0.7329
 7655TIP3   OH244379   6.063   0.354   1.909  0.2241 -0.0021 -0.0331
 7655TIP3    H144380   6.006   0.403   1.850 -1.9687 -1.9715  0.3611
 7655TIP3    H244381   6.104   0.288   1.853  1.3281  0.7574 -0.1218
 7656TIP3   OH244382   5.707   6.430  11.714 -0.0348 -0.0658  0.7056
 7656TIP3    H144383   5.636   6.374  11.744  0.5027 -0.7320  0.7493
 7656TIP3    H244384   5.689   6.446  11.622 -0.0939 -0.4535  0.6509
 7657TIP3   OH244385   2.778   6.527   1.444 -0.2576 -0.1302 -0.0253
 7657TIP3    H144386   2.758   6.548   1.352 -0.7299  0.3463  0.1898
 7657TIP3    H244387   2.693   6.512   1.485 -0.1547  1.1690  0.7003
 7658TIP3   OH244388   5.511   6.504  13.289  0.3055  0.3148  0.2935
 7658TIP3    H144389   5.512   6.420  13.334  0.3691  0.5016  0.6489
 7658TIP3    H244390   5.599   6.539  13.303 -0.4770  1.5965  2.3631
 7659TIP3   OH244391   4.264   1.038  13.255 -0.5854  0.0366 -0.6888
 7659TIP3    H144392   4.298   1.106  13.314  0.4572  0.4539 -1.7418
 7659TIP3    H244393   4.307   1.056  13.171 -0.6617 -1.6410 -1.1054
 7660TIP3   OH244394   6.244   1.894  10.812  0.1541  0.5197 -0.1623
 7660TIP3    H144395   6.157   1.932  10.799  0.1561  0.5528 -0.0782
 7660TIP3    H244396   6.302   1.946  10.757 -0.1818 -0.6878 -1.7060
 7661TIP3   OH244397   0.958   1.363   2.005  0.1660  0.5507  0.3409
 7661TIP3    H144398   0.981   1.413   2.084  1.3898 -0.3473  0.5624
 7661TIP3    H244399   0.863   1.360   2.006  0.1586  0.8665  1.5915
 7662TIP3   OH244400   3.983   0.174  16.552  0.3985 -0.0567 -0.2352
 7662TIP3    H144401   3.993   0.079  16.546 -0.9415 -0.3002  1.0689
 7662TIP3    H244402   3.972   0.191  16.645  0.8282  1.4136 -0.4429
 7663TIP3   OH244403   3.994   1.926   3.214 -0.0605 -0.3909  0.5513
 7663TIP3    H144404   4.071   1.903   3.162  1.0812  1.6331  1.3060
 7663TIP3    H244405   3.942   1.981   3.156 -0.8822 -1.6110  0.1047
 7664TIP3   OH244406   2.686   6.245  11.591 -0.3650 -0.8904  0.2532
 7664TIP3    H144407   2.775   6.260  11.624 -0.1596 -1.5444  0.0088
 7664TIP3    H244408   2.631   6.241  11.670 -0.2295 -0.1576  0.3863
 7665TIP3   OH244409   5.993   0.729  13.085  0.1537 -0.3695  0.3776
 7665TIP3    H144410   6.055   0.802  13.086  0.1642 -0.3845  0.7287
 7665TIP3    H244411   5.913   0.767  13.049 -0.0526 -0.0192  1.2082
 7666TIP3   OH244412   4.296   2.632   4.448  0.0137 -0.5329 -0.4555
 7666TIP3    H144413   4.355   2.594   4.383 -0.9771 -0.1031 -1.6191
 7666TIP3    H244414   4.353   2.685   4.504  0.8561 -0.8075 -1.0451
 7667TIP3   OH244415   1.859   2.843  15.816 -0.1839 -0.4725  0.1812
 7667TIP3    H144416   1.764   2.851  15.823 -0.0732  1.0182  0.1619
 7667TIP3    H244417   1.872   2.781  15.744 -1.1441 -1.5444  0.9167
 7668TIP3   OH244418   0.648   5.907  16.251 -0.0073 -0.3435  0.3433
 7668TIP3    H144419   0.628   5.899  16.158 -0.8651 -1.4527  0.6153
 7668TIP3    H244420   0.563   5.906  16.294  0.4684 -2.0514  1.2871
 7669TIP3   OH244421   0.053   3.574  14.970  0.3615  0.9872 -0.1443
 7669TIP3    H144422   0.126   3.607  15.022  0.1838  1.7729 -0.3861
 7669TIP3    H244423   0.033   3.644  14.909 -0.3569  0.6318 -0.3296
 7670TIP3   OH244424   0.055   4.830   0.192 -0.1457 -0.2577  0.5608
 7670TIP3    H144425   0.003   4.810   0.114 -0.6993 -4.3110  1.8620
 7670TIP3    H244426  -0.007   4.869   0.253 -0.4642 -0.1616  0.1755
 7671TIP3   OH244427   4.452   4.517   2.556 -0.2378 -0.1562 -0.1014
 7671TIP3    H144428   4.537   4.494   2.592 -1.0897 -2.6123  0.4343
 7671TIP3    H244429   4.440   4.457   2.482 -2.0161 -0.6598  0.5752
 7672TIP3   OH244430   2.947   2.324  13.255  0.1944  0.1599 -0.0076
 7672TIP3    H144431   2.963   2.321  13.350 -1.5694  0.5312  0.3079
 7672TIP3    H244432   2.883   2.393  13.243 -2.2435 -2.1873 -1.0718
 7673TIP3   OH244433   4.532   1.763   0.596  0.2686  0.2826 -0.8550
 7673TIP3    H144434   4.626   1.757   0.579  0.2896 -0.3488 -0.5579
 7673TIP3    H244435   4.514   1.856   0.606  0.6069  0.5108 -2.3247
 7674TIP3   OH244436   1.927   2.026   4.635  0.4030 -0.9200  0.0462
 7674TIP3    H144437   1.956   2.116   4.621  0.8322 -1.1616 -0.6153
 7674TIP3    H244438   1.908   2.022   4.729 -0.8347  0.2175 -0.1350
 7675TIP3   OH244439   4.636   0.852  15.666 -0.1859 -0.1603 -0.0126
 7675TIP3    H144440   4.639   0.759  15.691 -1.3979  0.2131  1.5434
 7675TIP3    H244441   4.557   0.860  15.614 -1.0234  0.3566  1.3310
 7676TIP3   OH244442   4.819   5.197   2.724 -0.1062 -0.3099 -0.2030
 7676TIP3    H144443   4.852   5.238   2.804 -2.8241  0.1695  0.7460
 7676TIP3    H244444   4.848   5.106   2.730  1.2217  0.1508  0.4617
 7677TIP3   OH244445   3.800   3.041  11.783  0.0229 -0.3811  0.0644
 7677TIP3    H144446   3.879   3.008  11.825 -0.2523 -1.3051 -0.1179
 7677TIP3    H244447   3.758   3.096  11.849 -0.7952 -2.4315  1.2934
 7678TIP3   OH244448   6.195   5.918   0.409  0.0530 -0.2701 -0.0255
 7678TIP3    H144449   6.243   5.844   0.371  0.1124  0.1654 -0.8254
 7678TIP3    H244450   6.263   5.975   0.444  0.0618 -0.1365 -0.2598
 7679TIP3   OH244451   2.343   5.541  14.941 -0.0498  0.1549  0.2347
 7679TIP3    H144452   2.343   5.463  14.885  2.6621  0.4860 -0.2777
 7679TIP3    H244453   2.395   5.605  14.893 -1.0255  1.7938  1.3308
 7680TIP3   OH244454   5.003   5.818   6.232  0.1126 -0.0996  0.0581
 7680TIP3    H144455   5.085   5.769   6.234 -0.1068 -0.4619  0.2924
 7680TIP3    H244456   5.004   5.869   6.313  0.3857  0.3623 -0.2302
 7681TIP3   OH244457   3.586   0.523  16.093  0.1031 -0.5931 -0.1934
 7681TIP3    H144458   3.574   0.579  16.016 -1.9900  1.4797  1.5457
 7681TIP3    H244459   3.669   0.479  16.078  1.9282  3.0901 -1.6346
 7682TIP3   OH244460   3.757   3.283   2.147  0.0994  0.0029 -0.9521
 7682TIP3    H144461   3.789   3.193   2.151  0.4712  0.0661 -2.1879
 7682TIP3    H244462   3.666   3.275   2.121  0.4029  0.0105 -2.0604
 7683TIP3   OH244463   3.670   6.386   5.438 -0.1155  0.1156  0.0440
 7683TIP3    H144464   3.587   6.342   5.457 -0.4798  0.7812  0.0059
 7683TIP3    H244465   3.736   6.329   5.478 -0.5234 -0.7986 -0.5588
 7684TIP3   OH244466   3.845   2.524  15.295  0.0947 -0.0479  0.7402
 7684TIP3    H144467   3.872   2.507  15.385 -0.4302 -0.1512  0.8802
 7684TIP3    H244468   3.926   2.518  15.244  0.2847 -0.6842  1.1081
 7685TIP3   OH244469   4.181   0.242   1.494  0.3765  0.0261 -0.0519
 7685TIP3    H144470   4.142   0.326   1.471  0.7868  0.3330  0.3805
 7685TIP3    H244471   4.159   0.229   1.586  0.1826 -0.4179 -0.1548
 7686TIP3   OH244472   1.545   4.603  13.161 -0.0827  0.0745 -0.1779
 7686TIP3    H144473   1.612   4.560  13.107 -0.6732 -1.8464  0.5840
 7686TIP3    H244474   1.567   4.579  13.251 -0.2523  1.6567  0.3120
 7687TIP3   OH244475   1.292   0.877   2.038 -0.4858  0.0757  0.4174
 7687TIP3    H144476   1.380   0.903   2.010 -2.0501  3.8425 -1.4595
 7687TIP3    H244477   1.268   0.942   2.104 -2.2401 -0.2736  0.1427
 7688TIP3   OH244478   3.232   6.473   3.326  0.1884  0.2345  0.5985
 7688TIP3    H144479   3.246   6.567   3.316 -0.4818  0.3269  0.5672
 7688TIP3    H244480   3.313   6.434   3.293 -1.0175  0.6327 -3.0413
 7689TIP3   OH244481   4.928   6.640   3.439  0.2527 -0.2278 -0.4400
 7689TIP3    H144482   4.998   6.592   3.395  1.2367  1.3257 -0.6023
 7689TIP3    H244483   4.905   6.587   3.515  1.5605 -0.7676 -0.4241
 7690TIP3   OH244484   3.086   1.739   3.829 -0.1514 -0.7724 -0.7214
 7690TIP3    H144485   3.120   1.817   3.873 -0.1571 -0.3948 -1.3865
 7690TIP3    H244486   3.001   1.766   3.794 -0.8733 -1.5329  0.3976
 7691TIP3   OH244487   0.693   5.004   5.496  1.3507 -0.2407 -0.3487
 7691TIP3    H144488   0.698   4.925   5.550 -0.1215 -1.3885 -1.8351
 7691TIP3    H244489   0.738   4.981   5.415  0.0805  0.1153 -1.1630
 7692TIP3   OH244490   1.882   4.434  14.839 -0.1063  0.1876  0.2858
 7692TIP3    H144491   1.943   4.406  14.907 -0.0863  1.3887  0.7714
 7692TIP3    H244492   1.806   4.466  14.887  0.6044  2.6567 -0.1980
 7693TIP3   OH244493   3.827   5.926   0.863  0.4891 -0.5040  0.0967
 7693TIP3    H144494   3.770   5.890   0.932 -0.2748  1.9452  0.7786
 7693TIP3    H244495   3.881   5.991   0.907 -1.8714  3.0783 -2.0265
 7694TIP3   OH244496   0.363   3.832  16.022  0.4755 -0.0391 -0.1914
 7694TIP3    H144497   0.339   3.755  15.971  1.5681 -2.0201  2.1479
 7694TIP3    H244498   0.301   3.832  16.095  0.3058  1.4868 -0.3207
 7695TIP3   OH244499   1.438   6.544  12.850 -0.0458  0.1942  0.1777
 7695TIP3    H144500   1.443   6.639  12.848  1.6655  0.1127 -2.1876
 7695TIP3    H244501   1.507   6.518  12.912 -0.4368  0.4865  0.7367
 7696TIP3   OH244502   3.101   6.203  14.581  0.3640  0.3664  0.0279
 7696TIP3    H144503   3.123   6.152  14.658  0.0611 -1.3985 -1.0124
 7696TIP3    H244504   3.074   6.288  14.615 -0.4345 -0.6097  1.9072
 7697TIP3   OH244505   6.673   6.512   6.008 -0.3537  0.3867 -0.0032
 7697TIP3    H144506   6.749   6.458   6.033 -0.0022  0.0437 -1.7739
 7697TIP3    H244507   6.648   6.556   6.089  2.1182  0.9839  0.4749
 7698TIP3   OH244508   2.285   3.671   5.573  0.1531 -0.4695  0.0886
 7698TIP3    H144509   2.360   3.615   5.594  0.1615 -0.9545 -1.1489
 7698TIP3    H244510   2.323   3.755   5.550  0.1811 -0.1219  1.3836
 7699TIP3   OH244511   2.626   0.397   5.770  0.7025  0.8883  0.4859
 7699TIP3    H144512   2.657   0.332   5.706  0.6870  0.3179  1.0483
 7699TIP3    H244513   2.531   0.390   5.767  0.7315 -0.2833  1.7150
 7700TIP3   OH244514   0.410   5.706  13.159  0.3340 -0.2339 -0.0258
 7700TIP3    H144515   0.498   5.693  13.194  1.1836  0.4380 -1.8398
 7700TIP3    H244516   0.398   5.635  13.097 -0.2459 -0.0839 -0.0881
 7701TIP3   OH244517   5.927   2.740   4.925  0.7198 -0.2369 -0.2637
 7701TIP3    H144518   5.927   2.793   4.846 -1.4752  1.3821  0.7954
 7701TIP3    H244519   5.977   2.791   4.989 -2.5209  1.2627  1.1675
 7702TIP3   OH244520   1.626   3.871  16.371  0.1273 -0.0387  0.3685
 7702TIP3    H144521   1.639   3.938  16.439 -0.9230 -0.5848  1.1261
 7702TIP3    H244522   1.653   3.789  16.412  1.8982 -0.0181 -0.7327
 7703TIP3   OH244523   2.735   4.014  15.141  0.1268 -0.0197 -0.0147
 7703TIP3    H144524   2.663   3.956  15.116  1.3372 -0.9678 -1.4213
 7703TIP3    H244525   2.801   3.955  15.177  1.0431  0.5705 -0.6952
 7704TIP3   OH244526   3.559   6.159  12.410  0.6315  0.9631 -0.3173
 7704TIP3    H144527   3.514   6.075  12.407 -0.0817  1.3635 -1.0295
 7704TIP3    H244528   3.635   6.144  12.466  0.8071 -0.3024 -0.8773
 7705TIP3   OH244529   1.796   4.921   2.425 -0.4627 -0.1081  0.0256
 7705TIP3    H144530   1.881   4.935   2.466 -0.2722 -0.8675 -0.0961
 7705TIP3    H244531   1.789   4.825   2.417 -0.7089  0.0065 -1.2484
 7706TIP3   OH244532   6.766   1.591   2.403 -0.5266  0.5439 -0.4014
 7706TIP3    H144533   6.853   1.570   2.438 -0.9390 -1.3523 -0.4594
 7706TIP3    H244534   6.708   1.525   2.441 -0.8080 -2.4230 -5.5299
 7707TIP3   OH244535   4.241   2.076  12.006 -0.5747 -0.4473  0.2995
 7707TIP3    H144536   4.330   2.074  12.041 -0.2804  0.5255 -0.3843
 7707TIP3    H244537   4.199   2.149  12.052 -1.7001 -2.2426  2.2179
 7708TIP3   OH244538   2.180   5.438   3.162 -0.0524 -1.0801  0.6538
 7708TIP3    H144539   2.271   5.411   3.153  0.7098  1.6274 -0.0980
 7708TIP3    H244540   2.163   5.490   3.084 -1.1744  1.3383  2.4664
 7709TIP3   OH244541   1.797   6.084   4.091  0.2505  0.3633 -0.1296
 7709TIP3    H144542   1.771   6.167   4.130 -0.0155  0.6133 -0.8347
 7709TIP3    H244543   1.809   6.103   3.999  1.2410 -0.1475 -0.1126
 7710TIP3   OH244544   4.061   2.476  12.309  0.4934 -0.0369 -0.1593
 7710TIP3    H144545   4.087   2.565  12.285  1.0742  0.1167  0.9818
 7710TIP3    H244546   4.140   2.438  12.349 -0.0028 -0.7798  0.1313
 7711TIP3   OH244547   0.092   3.349   3.853 -0.2047 -0.5447  0.2477
 7711TIP3    H144548   0.010   3.302   3.865 -1.2083  1.6587  2.4712
 7711TIP3    H244549   0.084   3.391   3.767 -1.0903 -0.9381  0.1316
 7712TIP3   OH244550   6.337   4.340  14.938  0.1961  0.4228  0.1760
 7712TIP3    H144551   6.362   4.431  14.922  0.0165  0.4122 -0.1502
 7712TIP3    H244552   6.285   4.315  14.862 -2.3694  1.0008  1.6822
 7713TIP3   OH244553   1.322   6.129  17.209 -0.1577 -0.4888 -0.4339
 7713TIP3    H144554   1.295   6.037  17.208  0.2545 -0.6175 -3.1785
 7713TIP3    H244555   1.364   6.143  17.124  2.5424  1.4494  1.1172
 7714TIP3   OH244556   1.957   0.813  10.997  0.2252 -0.6676  0.2038
 7714TIP3    H144557   2.034   0.868  10.980 -1.3000  1.5937  0.4517
 7714TIP3    H244558   1.949   0.759  10.918  0.8731  0.5455 -0.7124
 7715TIP3   OH244559   4.996   2.089  16.791 -0.7567 -0.2340 -0.2249
 7715TIP3    H144560   5.013   1.998  16.764 -0.7885 -0.1286 -0.6013
 7715TIP3    H244561   5.081   2.133  16.784 -0.3145 -0.6860  1.7852
 7716TIP3   OH244562   5.520   2.501  12.854  0.3606  0.0366 -0.7881
 7716TIP3    H144563   5.546   2.534  12.940  1.4679 -2.9731  0.1112
 7716TIP3    H244564   5.525   2.577  12.796  1.5193  1.6835  1.4082
 7717TIP3   OH244565   3.955   2.272   4.630  0.0949  0.2907 -0.5136
 7717TIP3    H144566   3.905   2.315   4.700  0.8756  0.5891 -0.1306
 7717TIP3    H244567   4.034   2.241   4.674  0.3835  0.0913 -1.1792
 7718TIP3   OH244568   3.373   2.414   3.554 -0.4825 -0.4369  0.1902
 7718TIP3    H144569   3.424   2.360   3.614  1.6793  1.8607  0.5149
 7718TIP3    H244570   3.383   2.370   3.469  2.7677  0.3876  0.0937
 7719TIP3   OH244571   1.817   2.793   2.271 -0.6825 -0.3638 -0.0752
 7719TIP3    H144572   1.790   2.723   2.211 -0.9949 -1.0791  0.8884
 7719TIP3    H244573   1.792   2.761   2.357 -0.4236  0.7541  0.4181
 7720TIP3   OH244574   3.680   4.815   4.693 -0.3111  0.0723  0.2936
 7720TIP3    H144575   3.647   4.762   4.620 -0.3799 -1.0802  1.1409
 7720TIP3    H244576   3.764   4.849   4.662  0.8388 -2.4349  0.5794
 7721TIP3   OH244577   6.092   6.308   4.201  0.1862 -0.0417  0.0877
 7721TIP3    H144578   6.067   6.395   4.231  1.0125 -0.0973  0.9644
 7721TIP3    H244579   6.183   6.317   4.173  0.1044 -0.4989 -0.3331
 7722TIP3   OH244580   5.047   3.339  16.029  0.0474  0.2232  0.6016
 7722TIP3    H144581   5.071   3.413  15.973  1.8984 -0.0563  0.9968
 7722TIP3    H244582   5.095   3.265  15.993 -2.5770 -1.0457 -0.4010
 7723TIP3   OH244583   6.553   3.310   1.093  0.5836 -0.4960  0.0863
 7723TIP3    H144584   6.549   3.261   1.011  0.2989 -1.5806  0.7401
 7723TIP3    H244585   6.582   3.246   1.158 -3.1423 -0.7022  1.6427
 7724TIP3   OH244586   4.128   2.324  16.734 -0.6101 -0.1090 -0.8616
 7724TIP3    H144587   4.041   2.284  16.738 -0.5305 -0.2887 -0.9297
 7724TIP3    H244588   4.146   2.334  16.641  0.2044 -1.7499 -0.8964
 7725TIP3   OH244589   5.613   0.928  12.213  0.1703  0.2134  0.2249
 7725TIP3    H144590   5.537   0.978  12.184  1.3079  1.2359 -1.0309
 7725TIP3    H244591   5.673   0.929  12.139  2.0728  0.7343  1.7081
 7726TIP3   OH244592   4.696   6.592  13.647 -0.2075 -0.1146  0.9096
 7726TIP3    H144593   4.762   6.524  13.650 -0.7916 -0.9476 -2.5313
 7726TIP3    H244594   4.690   6.615  13.554 -2.4952  2.1625  1.5598
 7727TIP3   OH244595   5.457   3.532  13.515  0.4910  0.4693 -0.0085
 7727TIP3    H144596   5.508   3.567  13.588  1.7858 -0.7292 -0.3257
 7727TIP3    H244597   5.402   3.464  13.554  0.9681  0.0353 -0.0776
 7728TIP3   OH244598   6.140   3.202  17.048  0.5023 -0.2905 -0.4551
 7728TIP3    H144599   6.093   3.120  17.036 -0.7753  0.4885 -0.8340
 7728TIP3    H244600   6.211   3.198  16.984  0.0827 -0.8333 -0.8921
 7729TIP3   OH244601   2.865   5.565   3.924 -0.1419 -0.0635 -0.1352
 7729TIP3    H144602   2.804   5.634   3.900 -0.2873 -0.8059 -2.0119
 7729TIP3    H244603   2.904   5.538   3.840  0.7092 -1.4930  0.7078
 7730TIP3   OH244604   5.293   6.561   5.571 -0.1784 -0.2928 -0.0967
 7730TIP3    H144605   5.217   6.542   5.625 -2.1125  0.7758 -2.3805
 7730TIP3    H244606   5.351   6.611   5.629 -1.6697 -0.1829  1.3513
 7731TIP3   OH244607   2.624   1.173  16.621  0.4900 -0.3616 -0.0270
 7731TIP3    H144608   2.545   1.216  16.586  0.9230  0.6131  0.1714
 7731TIP3    H244609   2.656   1.234  16.687  1.7715 -0.4657 -0.5491
 7732TIP3   OH244610   6.644   6.089   6.317 -0.0941 -0.3674  0.5736
 7732TIP3    H144611   6.732   6.120   6.337 -0.0403  0.5328 -1.0014
 7732TIP3    H244612   6.651   5.993   6.320  0.9370 -0.3025  0.4588
 7733TIP3   OH244613   6.553   6.250   0.186  0.9160 -0.4021  0.0515
 7733TIP3    H144614   6.606   6.277   0.261 -0.2484  1.5834  0.1871
 7733TIP3    H244615   6.470   6.222   0.225 -0.0231  1.4924 -0.5178
 7734TIP3   OH244616   6.221   4.728  13.390 -0.3422 -0.1349  0.6025
 7734TIP3    H144617   6.303   4.693  13.424 -0.4132 -0.7000  0.1967
 7734TIP3    H244618   6.245   4.813  13.352  0.7576 -1.8103 -2.7001
 7735TIP3   OH244619   5.322   2.661   1.912  0.2863  0.1893  0.1262
 7735TIP3    H144620   5.353   2.698   1.830  0.1074  0.5740  0.2290
 7735TIP3    H244621   5.231   2.690   1.918  0.1974 -0.1228  0.2927
 7736TIP3   OH244622   1.068   2.783   2.583 -0.1692  0.1889 -0.2246
 7736TIP3    H144623   1.124   2.705   2.587 -1.9082 -1.0030  2.4250
 7736TIP3    H244624   1.129   2.857   2.585  1.3771 -1.0921  1.6645
 7737TIP3   OH244625   5.309   1.632   0.106  0.3728  0.0156  0.2939
 7737TIP3    H144626   5.307   1.539   0.131  0.7009 -0.3849 -1.1531
 7737TIP3    H244627   5.381   1.669   0.158  0.2819 -0.5452  0.8265
 7738TIP3   OH244628   3.025   1.982  16.985  0.1224 -0.2437 -0.3115
 7738TIP3    H144629   2.979   1.975  17.068 -2.1937  0.7093 -1.4672
 7738TIP3    H244630   3.112   1.946  17.002 -0.0972  0.5357  2.6761
 7739TIP3   OH244631   5.034   2.180   2.057  0.3607  0.1980 -0.1937
 7739TIP3    H144632   5.071   2.262   2.024  1.5491 -0.1984  0.0995
 7739TIP3    H244633   5.090   2.112   2.018 -0.1018 -0.4256  0.2196
 7740TIP3   OH244634   2.588   1.638   0.192  0.4707  0.5512  0.5584
 7740TIP3    H144635   2.636   1.605   0.116  1.4165  0.5448  1.1433
 7740TIP3    H244636   2.545   1.717   0.161  0.4820  0.3015 -0.1048
 7741TIP3   OH244637   4.037   4.424  15.248  0.1693 -0.2304 -0.4847
 7741TIP3    H144638   4.062   4.348  15.300  1.1268  0.0159 -0.5725
 7741TIP3    H244639   4.110   4.486  15.259 -0.5636  0.6365 -0.4724
 7742TIP3   OH244640   2.963   3.994   0.722  0.1541  0.4012  0.0272
 7742TIP3    H144641   2.986   4.014   0.813 -0.0656  0.8591 -0.0158
 7742TIP3    H244642   2.877   4.035   0.710  0.1974  0.3647 -0.3962
 7743TIP3   OH244643   0.406   6.485  13.708 -0.0339  0.2760  0.4417
 7743TIP3    H144644   0.331   6.453  13.758 -0.3125 -0.4845 -0.4501
 7743TIP3    H244645   0.433   6.410  13.655  1.3790  0.5349  0.7814
 7744TIP3   OH244646   1.259   6.732  13.408  0.1264  0.2405  0.3928
 7744TIP3    H144647   1.182   6.745  13.463  0.4845 -1.5374  1.3432
 7744TIP3    H244648   1.235   6.770  13.324 -1.1323  1.2718  1.1945
 7745TIP3   OH244649   5.256   6.586  16.067 -0.4265  0.4109  0.1362
 7745TIP3    H144650   5.239   6.680  16.072  1.1741  0.6803  0.8616
 7745TIP3    H244651   5.319   6.578  15.995  1.1082  0.1489  1.5060
 7746TIP3   OH244652   5.211   2.951  15.780  0.2837 -0.1166 -0.2212
 7746TIP3    H144653   5.284   3.004  15.748 -0.0222  0.5288  0.1262
 7746TIP3    H244654   5.145   2.957  15.712  0.6122 -0.8355 -0.6106
 7747TIP3   OH244655   2.376   2.513   5.608 -0.0706  0.1804  0.7000
 7747TIP3    H144656   2.469   2.532   5.611  0.1159 -0.4136 -1.0457
 7747TIP3    H244657   2.358   2.470   5.692  1.2389  0.1718  0.9870
 7748TIP3   OH244658   2.071   3.687  10.751 -0.2082  0.0516 -0.3609
 7748TIP3    H144659   1.976   3.689  10.765 -0.3497  1.5629 -1.4398
 7748TIP3    H244660   2.085   3.609  10.696 -1.0584  0.8625 -1.7540
 7749TIP3   OH244661   5.894   6.613  15.727 -0.4174  0.1290 -0.1405
 7749TIP3    H144662   5.946   6.553  15.780 -2.4642 -0.1975  1.6010
 7749TIP3    H244663   5.941   6.621  15.645  1.3155 -1.6826  0.6480
 7750TIP3   OH244664   1.432   2.639  10.379  0.0912  0.0536 -0.0634
 7750TIP3    H144665   1.496   2.683  10.435 -0.8282  0.4220  0.7129
 7750TIP3    H244666   1.383   2.582  10.438 -1.5113  1.1352 -0.2950
 7751TIP3   OH244667   3.314   6.024  13.404  0.0726  0.0302 -0.8666
 7751TIP3    H144668   3.338   5.939  13.368 -1.6597 -1.6647  1.7805
 7751TIP3    H244669   3.377   6.039  13.474 -0.0918  0.5410 -0.8290
 7752TIP3   OH244670   6.502   3.941  11.817 -0.4838 -0.2643  0.2946
 7752TIP3    H144671   6.568   4.008  11.834 -0.5921  0.0830 -0.6036
 7752TIP3    H244672   6.421   3.990  11.807 -0.5098 -0.5009 -0.6834
 7753TIP3   OH244673   0.263   4.933   5.023  0.4971 -0.1284  0.1104
 7753TIP3    H144674   0.253   4.935   5.118 -0.0796  4.1783  0.0431
 7753TIP3    H244675   0.346   4.978   5.006  1.1371 -1.8049 -1.4121
 7754TIP3   OH244676   3.334   2.638   1.122  0.0730 -0.0401  0.6808
 7754TIP3    H144677   3.415   2.676   1.088  0.4669 -1.4014  0.0496
 7754TIP3    H244678   3.351   2.624   1.215  1.7166 -3.1155 -0.0037
 7755TIP3   OH244679   4.082   2.672   5.944  0.0024 -0.6160  0.1979
 7755TIP3    H144680   4.138   2.660   6.021  0.7283  1.4122  0.0204
 7755TIP3    H244681   4.108   2.602   5.884 -1.3128 -2.8643  2.1935
 7756TIP3   OH244682   3.258   2.411   2.182  0.0120 -0.3679  0.5349
 7756TIP3    H144683   3.249   2.421   2.277 -0.8655 -0.2936  0.4465
 7756TIP3    H244684   3.249   2.317   2.167 -2.0901 -0.1391  0.2982
 7757TIP3   OH244685   4.569   6.183  15.823 -0.9639  0.9179 -0.3416
 7757TIP3    H144686   4.473   6.192  15.824 -0.9851  1.0277 -2.3289
 7757TIP3    H244687   4.589   6.143  15.738  0.8789  2.2956 -0.5814
 7758TIP3   OH244688   3.190   6.076  13.000  0.3781  0.4441  0.0619
 7758TIP3    H144689   3.152   6.102  12.916 -1.3356  1.2892  1.0793
 7758TIP3    H244690   3.128   6.107  13.066  0.9282 -1.5502  1.5843
 7759TIP3   OH244691   5.442   0.984  11.773 -0.0842 -0.2653  0.4280
 7759TIP3    H144692   5.471   0.980  11.864  0.8755 -0.6926  0.1114
 7759TIP3    H244693   5.462   0.897  11.737 -0.2771 -0.0396 -0.2378
 7760TIP3   OH244694   0.168   0.082  11.884  0.3115  0.0489 -0.4967
 7760TIP3    H144695   0.191   0.170  11.915  0.7404  0.3154 -1.5293
 7760TIP3    H244696   0.115   0.045  11.954  0.8976  0.7884  0.3603
 7761TIP3   OH244697   4.031   1.273   0.395  0.0836  0.0224  0.5910
 7761TIP3    H144698   4.031   1.201   0.331  3.2151 -0.1271  0.7154
 7761TIP3    H244699   4.034   1.352   0.342  0.2788 -0.0433  0.5020
 7762TIP3   OH244700   3.816   5.157  15.682  0.4751  0.2328 -0.1581
 7762TIP3    H144701   3.729   5.124  15.659  1.4479 -1.0762 -2.0679
 7762TIP3    H244702   3.863   5.160  15.599  2.0318  1.6805  0.7434
 7763TIP3   OH244703   2.403   6.149  13.650 -0.4319  0.0845 -0.1694
 7763TIP3    H144704   2.358   6.233  13.635  0.8285  0.6282 -1.0027
 7763TIP3    H244705   2.355   6.109  13.722 -0.2609  2.1172  1.1229
 7764TIP3   OH244706   5.663   3.688  15.188 -0.0273  0.0973  0.3605
 7764TIP3    H144707   5.625   3.724  15.268 -0.5812 -0.2595  0.2639
 7764TIP3    H244708   5.615   3.606  15.174  1.3277 -0.7717  0.6762
 7765TIP3   OH244709   0.338   5.313   1.644 -0.3015 -0.3946  0.3551
 7765TIP3    H144710   0.388   5.294   1.564 -2.1836 -0.0190 -0.9511
 7765TIP3    H244711   0.307   5.403   1.633 -0.2686 -0.2055  1.6945
 7766TIP3   OH244712   1.413   5.627  11.832 -0.7801 -0.2941  0.0441
 7766TIP3    H144713   1.378   5.602  11.917  0.8694 -3.7993 -0.2088
 7766TIP3    H244714   1.339   5.620  11.772 -1.3022 -0.5071  0.7113
 7767TIP3   OH244715   1.732   3.800  16.728 -0.6305  0.1208 -0.0452
 7767TIP3    H144716   1.684   3.761  16.801  0.0552 -1.1770 -0.2777
 7767TIP3    H244717   1.821   3.810  16.760 -0.1366 -1.1994 -0.9455
 7768TIP3   OH244718   2.007   1.863  11.662  0.2578 -0.2073  0.2191
 7768TIP3    H144719   2.015   1.815  11.580  0.5093  1.0750 -0.5161
 7768TIP3    H244720   1.959   1.803  11.720  0.9047 -1.4924 -0.5447
 7769TIP3   OH244721   4.927   1.039   4.426  0.5740 -0.9467  0.0351
 7769TIP3    H144722   4.935   1.096   4.349 -2.8164  0.4760  0.6291
 7769TIP3    H244723   4.869   0.969   4.397 -2.4821  0.7307  1.7864
 7770TIP3   OH244724   3.981   0.061   0.843  0.0757 -0.1464 -0.4037
 7770TIP3    H144725   3.899   0.025   0.877  0.1826  0.3880  0.4268
 7770TIP3    H244726   3.955   0.145   0.804  0.3247  0.2835  0.3627
 7771TIP3   OH244727   1.935   1.792   2.874 -0.3063 -0.7241  0.3135
 7771TIP3    H144728   1.971   1.880   2.865  0.4626 -0.8377  2.0042
 7771TIP3    H244729   1.850   1.796   2.830 -0.2298  0.8258  0.2775
 7772TIP3   OH244730   5.478   6.686   4.694  0.5678  0.0016 -0.2746
 7772TIP3    H144731   5.428   6.625   4.748  0.5195 -0.1104 -0.4481
 7772TIP3    H244732   5.415   6.751   4.665  0.1195 -1.2367 -2.1195
 7773TIP3   OH244733   5.563   1.678  12.109 -0.3099  0.4205 -0.2216
 7773TIP3    H144734   5.522   1.598  12.142 -0.0579  0.7831  0.9935
 7773TIP3    H244735   5.493   1.724  12.064 -1.6548  1.7247  3.0528
 7774TIP3   OH244736   1.534   0.064   5.153 -0.0370  0.2005  0.0585
 7774TIP3    H144737   1.568   0.147   5.119  0.7698 -0.4375 -0.6960
 7774TIP3    H244738   1.514   0.083   5.245  0.1527  1.2236 -0.1019
 7775TIP3   OH244739   2.671   4.374  12.290 -0.5503  0.2409 -0.7493
 7775TIP3    H144740   2.601   4.309  12.300 -1.1326  0.7643 -1.4038
 7775TIP3    H244741   2.750   4.330  12.323 -1.3275 -0.0775  0.7451
 7776TIP3   OH244742   5.506   5.706   6.303  0.0797 -0.4128  0.2813
 7776TIP3    H144743   5.569   5.715   6.232  1.2076 -3.2551  0.8695
 7776TIP3    H244744   5.421   5.722   6.262  0.9738  1.4063 -0.9402
 7777TIP3   OH244745   1.374   4.259   3.911  0.1008  0.1311  0.5213
 7777TIP3    H144746   1.460   4.219   3.916  0.2725  0.2957 -0.9630
 7777TIP3    H244747   1.378   4.333   3.972  1.3634  0.7716 -0.3149
 7778TIP3   OH244748   2.530   6.441   0.058  0.1746 -0.3704  0.3824
 7778TIP3    H144749   2.471   6.457  -0.015 -0.5283 -0.8506  0.8401
 7778TIP3    H244750   2.537   6.525   0.104  0.8736  0.0152 -0.4142
 7779TIP3   OH244751   2.165   2.059   2.893 -0.8165 -0.1430 -0.4037
 7779TIP3    H144752   2.190   1.995   2.958  1.6236  1.9157  0.7806
 7779TIP3    H244753   2.079   2.091   2.921  1.2531  2.5279  3.3516
 7780TIP3   OH244754   5.600   3.669  12.055 -0.0106 -0.1254 -0.0699
 7780TIP3    H144755   5.609   3.750  12.106 -0.7324 -0.0956  0.0172
 7780TIP3    H244756   5.569   3.604  12.118  0.2245 -0.3830 -0.2184
 7781TIP3   OH244757   1.484   2.470   3.426 -0.0684  0.3780 -0.1446
 7781TIP3    H144758   1.438   2.462   3.510  1.1288 -0.4577  0.4349
 7781TIP3    H244759   1.449   2.551   3.388  0.6348  1.6992  1.9482
 7782TIP3   OH244760   5.611   0.958   5.333  0.4453  0.6472  0.4881
 7782TIP3    H144761   5.666   0.938   5.256  0.5832  1.4595  0.3745
 7782TIP3    H244762   5.568   1.041   5.311 -2.0359 -0.7335 -0.0789
 7783TIP3   OH244763   4.196   2.059  14.286  0.0237 -0.5729 -1.0251
 7783TIP3    H144764   4.232   2.017  14.208 -2.1106  1.2647 -3.0438
 7783TIP3    H244765   4.114   2.012  14.303 -1.2252  1.2524 -1.9319
 7784TIP3   OH244766   0.769   3.258  13.781 -0.1906  0.4628  0.4157
 7784TIP3    H144767   0.769   3.317  13.706  0.8578 -0.8544 -0.6466
 7784TIP3    H244768   0.677   3.237  13.794 -0.4541  1.3212  0.0047
 7785TIP3   OH244769   0.822   5.049  12.906 -0.1308 -0.0081  0.3118
 7785TIP3    H144770   0.735   5.018  12.881 -0.3581  0.3570  0.6386
 7785TIP3    H244771   0.805   5.127  12.959  0.3644 -0.3391  0.9716
 7786TIP3   OH244772   1.394   2.866  17.238  0.0235  0.5186 -0.5551
 7786TIP3    H144773   1.357   2.913  17.313  1.1914  0.6994 -0.0789
 7786TIP3    H244774   1.324   2.808  17.209  0.0145 -0.6005  1.5775
 7787TIP3   OH244775   3.123   5.639  16.196 -0.2979  0.1870  0.0313
 7787TIP3    H144776   3.207   5.656  16.153  1.2005 -0.5400  2.6219
 7787TIP3    H244777   3.077   5.580  16.135  0.1678  2.1891 -2.3646
 7788TIP3   OH244778   1.005   3.998   4.007 -0.5713 -0.8029  0.6967
 7788TIP3    H144779   1.041   4.086   3.994 -0.0122 -1.0191  0.7630
 7788TIP3    H244780   1.019   3.953   3.924  1.9632 -1.8135  1.6055
 7789TIP3   OH244781   1.951   5.657  15.149  0.8843 -0.2876 -0.0511
 7789TIP3    H144782   1.919   5.570  15.126  0.1968 -0.4407  1.3589
 7789TIP3    H244783   1.947   5.658  15.245 -1.1414  2.0180 -0.1064
 7790TIP3   OH244784   5.250   6.194   3.424  0.1449 -0.4056  0.1613
 7790TIP3    H144785   5.337   6.226   3.400 -0.0674  0.0977  0.0516
 7790TIP3    H244786   5.211   6.165   3.341 -0.3660  0.7855 -0.0231
 7791TIP3   OH244787   1.553   2.306  13.658 -0.5121 -0.0192  0.0425
 7791TIP3    H144788   1.589   2.349  13.736  3.3576 -1.3864 -0.8613
 7791TIP3    H244789   1.578   2.214  13.669 -2.0222 -0.6476 -1.6863
 7792TIP3   OH244790   3.484   2.181   4.037 -0.0762  0.1429 -0.3436
 7792TIP3    H144791   3.465   2.151   4.126 -0.0114 -0.9580 -0.7005
 7792TIP3    H244792   3.562   2.236   4.046  0.6823 -0.9969  0.0919
 7793TIP3   OH244793   0.852   6.119   1.391 -0.0875  0.5911  0.9334
 7793TIP3    H144794   0.798   6.134   1.313 -0.2788 -0.2359  0.9011
 7793TIP3    H244795   0.789   6.095   1.459  0.3647 -2.1820  0.4324
 7794TIP3   OH244796   1.888   2.787   0.212 -0.2796 -0.7372 -0.0505
 7794TIP3    H144797   1.835   2.735   0.273  1.6968 -0.6843  1.7579
 7794TIP3    H244798   1.952   2.831   0.268  1.9996 -1.2181 -2.2302
 7795TIP3   OH244799   6.749   0.046  14.276 -0.5956  0.4843 -0.2282
 7795TIP3    H144800   6.687   0.118  14.273 -0.3194  0.7175 -0.3130
 7795TIP3    H244801   6.824   0.076  14.225 -1.7772 -1.0920 -3.0712
 7796TIP3   OH244802   4.624   3.151  13.990  0.0734  0.2378 -0.8382
 7796TIP3    H144803   4.710   3.108  13.982 -0.1873 -0.0558 -2.2064
 7796TIP3    H244804   4.565   3.095  13.939 -1.2579 -0.3985  1.3129
 7797TIP3   OH244805   1.926   3.338   1.086  0.0429 -0.9595  0.2773
 7797TIP3    H144806   1.886   3.424   1.097 -0.2194 -1.0541  0.0753
 7797TIP3    H244807   1.990   3.332   1.157  0.6224 -0.2847 -0.1924
 7798TIP3   OH244808   6.425   0.790  11.832  0.1859 -0.2064  0.0903
 7798TIP3    H144809   6.349   0.791  11.891 -0.6745 -2.2700 -0.9227
 7798TIP3    H244810   6.499   0.768  11.889 -0.3637 -0.4965  0.7046
 7799TIP3   OH244811   4.692   1.532  10.518 -0.2824 -0.2289  0.3105
 7799TIP3    H144812   4.632   1.596  10.555  1.1329  1.1588  0.2201
 7799TIP3    H244813   4.767   1.583  10.488  0.8544 -1.9170  0.2150
 7800TIP3   OH244814   0.363   3.604  12.133 -0.5041 -0.0657 -0.0815
 7800TIP3    H144815   0.320   3.519  12.142  0.8343 -0.8173 -0.5531
 7800TIP3    H244816   0.425   3.591  12.061  0.3391  1.0409  0.4402
 7801TIP3   OH244817   5.143   1.342  13.737 -0.2146 -0.2078 -0.3941
 7801TIP3    H144818   5.072   1.407  13.740 -1.1980 -1.1772 -2.1115
 7801TIP3    H244819   5.212   1.385  13.687  0.2803  0.5730  0.9144
 7802TIP3   OH244820   2.795   1.869   2.753 -0.6349 -0.8565 -0.2627
 7802TIP3    H144821   2.710   1.832   2.777 -0.1026 -1.2691  1.0441
 7802TIP3    H244822   2.842   1.876   2.836  0.5890 -0.5968 -0.9703
 7803TIP3   OH244823   0.253   0.607   0.887 -0.0952 -0.0390  0.0519
 7803TIP3    H144824   0.279   0.520   0.857  1.2908  0.2037  0.4822
 7803TIP3    H244825   0.286   0.612   0.977 -1.0400  0.5643  0.3800
 7804TIP3   OH244826   6.479   5.255  14.713 -0.0678 -0.6245 -0.3690
 7804TIP3    H144827   6.471   5.345  14.682 -0.7358 -0.1540  1.1136
 7804TIP3    H244828   6.407   5.245  14.776  0.9655 -1.6927  0.6670
 7805TIP3   OH244829   6.697   5.073  14.179  0.5135  0.8558  0.1311
 7805TIP3    H144830   6.746   4.995  14.155  0.4757  0.8774 -0.0131
 7805TIP3    H244831   6.742   5.145  14.134  0.4619  0.8998  0.1505
 7806TIP3   OH244832   3.980   2.258   1.907  0.3875 -0.1884 -0.0939
 7806TIP3    H144833   3.989   2.350   1.932  1.4921  0.1064 -1.4556
 7806TIP3    H244834   4.063   2.218   1.933  0.0087 -0.7431  0.2613
 7807TIP3   OH244835   5.293   3.969   2.839  0.2371 -0.4754  0.1043
 7807TIP3    H144836   5.238   3.948   2.763  0.3072 -0.1237 -0.0495
 7807TIP3    H244837   5.325   3.885   2.870 -1.8726 -0.8507  1.3205
 7808TIP3   OH244838   0.758   5.671   4.763  0.1877  0.1337 -0.3372
 7808TIP3    H144839   0.764   5.597   4.822 -1.9607 -0.0965 -0.3636
 7808TIP3    H244840   0.740   5.632   4.677  0.0526  0.6434 -0.5425
 7809TIP3   OH244841   0.563   5.534   2.307 -0.3191 -0.6318 -0.0307
 7809TIP3    H144842   0.638   5.554   2.251  0.1091 -1.0300  0.4003
 7809TIP3    H244843   0.538   5.445   2.283 -0.9299 -0.3401 -0.4844
 7810TIP3   OH244844   3.296   0.104   1.853  0.7406  0.0332  0.1680
 7810TIP3    H144845   3.311   0.029   1.795  1.4381 -0.0133  0.3966
 7810TIP3    H244846   3.265   0.174   1.795  0.0080 -0.4538 -0.0313
 7811TIP3   OH244847   4.599   1.359  13.117  0.4110 -0.4698  0.5012
 7811TIP3    H144848   4.510   1.363  13.084 -0.5775 -0.4759  3.0585
 7811TIP3    H244849   4.637   1.283  13.073 -1.2460 -1.2201  0.3181
 7812TIP3   OH244850   5.943   1.434   3.551  0.3314  0.1966  0.0997
 7812TIP3    H144851   5.925   1.380   3.474  1.5603 -0.5403  0.3067
 7812TIP3    H244852   5.938   1.372   3.625  1.7437  0.3661  0.3412
 7813TIP3   OH244853   2.098   6.148   4.740 -0.4869  0.3164 -0.0289
 7813TIP3    H144854   2.003   6.148   4.734 -0.5973  0.8592  1.4290
 7813TIP3    H244855   2.123   6.239   4.727 -0.1936  0.2119 -0.1944
 7814TIP3   OH244856   1.020   1.787   0.552  0.0765  0.6371  0.0228
 7814TIP3    H144857   1.028   1.770   0.646  0.1396  1.3745  0.1535
 7814TIP3    H244858   1.099   1.750   0.514 -0.8905 -1.4852 -0.0048
 7815TIP3   OH244859   4.951   5.236   5.390  0.0302  0.5245  0.7379
 7815TIP3    H144860   4.898   5.257   5.313  0.6121  0.4790  0.3211
 7815TIP3    H244861   5.041   5.235   5.358  0.0570 -2.4710  0.7623
 7816TIP3   OH244862   6.320   6.066  14.564  0.1794 -0.5055  0.2730
 7816TIP3    H144863   6.366   6.041  14.644 -0.7580 -1.1003  0.6321
 7816TIP3    H244864   6.390   6.092  14.504  0.7915  1.7631  1.8982
 7817TIP3   OH244865   4.567   4.206  12.433 -0.1589 -0.1433 -0.1408
 7817TIP3    H144866   4.572   4.302  12.429 -3.0676  0.0470 -0.2294
 7817TIP3    H244867   4.563   4.179  12.341  1.7442 -0.4553 -0.1529
 7818TIP3   OH244868   5.980   1.689   3.683 -0.6235 -0.3843 -0.8176
 7818TIP3    H144869   5.942   1.609   3.646  0.9555 -1.4248 -0.2249
 7818TIP3    H244870   5.928   1.706   3.762 -0.2270 -1.4844 -0.3107
 7819TIP3   OH244871   0.714   4.355  12.446 -0.1584 -0.2189 -0.3174
 7819TIP3    H144872   0.684   4.270  12.479  0.1472  0.2632  1.2530
 7819TIP3    H244873   0.744   4.402  12.524  2.4481  0.2204 -1.5019
 7820TIP3   OH244874   3.727   3.467   1.190 -0.5546  0.2953  0.0041
 7820TIP3    H144875   3.666   3.408   1.147 -1.0979  0.4125  0.6050
 7820TIP3    H244876   3.813   3.429   1.173 -0.7954  0.0813 -0.7737
 7821TIP3   OH244877   4.201   6.122  16.223  0.5972 -0.5504  0.1765
 7821TIP3    H144878   4.120   6.071  16.225  0.8560 -0.9326  0.9145
 7821TIP3    H244879   4.268   6.059  16.195  0.6206 -0.2063 -0.5546
 7822TIP3   OH244880   4.014   3.744  14.942 -0.4990 -0.1403  0.4408
 7822TIP3    H144881   3.987   3.688  14.869 -1.8332  0.9098  0.1028
 7822TIP3    H244882   4.102   3.714  14.964 -0.1720 -0.6522 -1.4363
 7823TIP3   OH244883   2.629   4.507  16.227 -0.2200 -0.5032  0.0086
 7823TIP3    H144884   2.668   4.588  16.196 -0.2734  0.1522  1.6233
 7823TIP3    H244885   2.679   4.438  16.183  0.0597  0.3834 -1.0894
 7824TIP3   OH244886   0.608   3.410  12.972 -0.4069 -0.1498 -0.0564
 7824TIP3    H144887   0.542   3.430  13.039 -0.8582 -0.5379 -0.3800
 7824TIP3    H244888   0.636   3.320  12.992  0.2672  0.1328  0.2823
 7825TIP3   OH244889   6.182   4.202   0.536 -0.5498  0.0632 -0.0168
 7825TIP3    H144890   6.238   4.265   0.491  0.6930 -1.3345 -0.4676
 7825TIP3    H244891   6.229   4.181   0.616 -0.4671 -1.0361 -0.3419
 7826TIP3   OH244892   5.071   5.231   5.053 -0.3897 -0.2872 -0.5857
 7826TIP3    H144893   5.152   5.266   5.016 -1.2162  0.6928 -1.4777
 7826TIP3    H244894   5.099   5.185   5.132  0.9073  1.0134 -0.2724
 7827TIP3   OH244895   3.791   5.701   3.846  0.1997  0.2013  0.5546
 7827TIP3    H144896   3.882   5.673   3.838  0.0809  0.0380 -0.2304
 7827TIP3    H244897   3.746   5.626   3.886  0.7951  1.0309  2.8675
 7828TIP3   OH244898   6.609   0.681   0.396  0.4860  0.0962 -0.2685
 7828TIP3    H144899   6.692   0.729   0.399  0.7671 -0.4195  0.3240
 7828TIP3    H244900   6.563   0.709   0.475  0.1891  0.2192 -0.4881
 7829TIP3   OH244901   5.197   1.118  10.440 -0.4470 -0.1630 -0.2930
 7829TIP3    H144902   5.128   1.154  10.384 -0.5006 -1.8716 -1.3546
 7829TIP3    H244903   5.157   1.040  10.479  0.3663 -0.2766  0.3049
 7830TIP3   OH244904   1.426   6.387  12.208 -0.1514  0.0994  0.1920
 7830TIP3    H144905   1.507   6.438  12.206  1.4333 -2.1618  3.2681
 7830TIP3    H244906   1.370   6.434  12.270 -1.2877  1.6329 -1.8953
 7831TIP3   OH244907   2.802   4.553  11.026 -0.2620  0.0124  0.1642
 7831TIP3    H144908   2.849   4.534  10.944  1.4337  1.2673  0.8304
 7831TIP3    H244909   2.780   4.466  11.061  0.5499 -0.5729 -0.7319
 7832TIP3   OH244910   5.152   2.014   2.820 -0.1775  0.3213 -0.5244
 7832TIP3    H144911   5.122   2.097   2.858  2.3670  1.9473 -1.9338
 7832TIP3    H244912   5.072   1.968   2.796 -1.7302  1.0019  3.0587
 7833TIP3   OH244913   3.147   0.988  15.845 -0.0610 -0.7723 -0.4986
 7833TIP3    H144914   3.086   0.914  15.854  0.7196 -1.5683 -1.6892
 7833TIP3    H244915   3.122   1.030  15.763 -0.9219  0.7127  0.4853
 7834TIP3   OH244916   3.739   6.454  15.638  0.0238 -0.9301 -0.2479
 7834TIP3    H144917   3.727   6.530  15.695  0.6285 -0.6561 -0.4726
 7834TIP3    H244918   3.818   6.475  15.588 -0.9257 -0.8020 -1.7469
 7835TIP3   OH244919   6.206   0.357  13.813  0.0758 -0.0312 -0.0110
 7835TIP3    H144920   6.161   0.365  13.897  1.1973 -1.5090  0.7566
 7835TIP3    H244921   6.146   0.307  13.758 -0.2517  0.1204  0.2033
 7836TIP3   OH244922   4.352   4.530  15.124 -0.5902 -0.5200 -0.2797
 7836TIP3    H144923   4.352   4.462  15.192 -1.4232 -1.5930 -1.3392
 7836TIP3    H244924   4.306   4.491  15.050  0.4967  0.5549 -1.5651
 7837TIP3   OH244925   5.961   5.504   4.617  0.3604  0.1060  0.3394
 7837TIP3    H144926   5.893   5.570   4.601 -1.5744 -2.1782 -1.2096
 7837TIP3    H244927   5.952   5.483   4.710 -1.5682 -0.6742  0.0032
 7838TIP3   OH244928   3.734   1.203  17.169 -0.6184  0.3107  0.1158
 7838TIP3    H144929   3.822   1.200  17.206  0.4440 -1.7428 -2.4700
 7838TIP3    H244930   3.683   1.144  17.224 -0.0039  0.1975  0.5723
 7839TIP3   OH244931   0.809   6.002   5.657  0.1637  0.1998 -0.2748
 7839TIP3    H144932   0.811   6.079   5.713  3.6685  0.5620 -0.8162
 7839TIP3    H244933   0.803   5.928   5.718 -0.3320  0.7573  0.3630
 7840TIP3   OH244934   0.687   2.844  10.885  0.3367  0.4490 -0.2360
 7840TIP3    H144935   0.736   2.763  10.895 -0.2271  0.3274  1.9357
 7840TIP3    H244936   0.741   2.911  10.927  0.4118  1.0466 -1.2644
 7841TIP3   OH244937   3.075   0.722   4.967 -0.6038 -0.0140 -0.6425
 7841TIP3    H144938   3.088   0.661   5.039 -1.0407  0.4569 -0.1518
 7841TIP3    H244939   3.142   0.700   4.903  0.4338  0.2070  0.3541
 7842TIP3   OH244940   4.714   3.360  17.206  0.3908 -0.4722  0.5483
 7842TIP3    H144941   4.638   3.343  17.261 -0.5890  1.4347 -0.1755
 7842TIP3    H244942   4.779   3.295  17.234 -0.4233 -0.1664  3.2825
 7843TIP3   OH244943   0.942   4.190  12.870 -0.5254  0.3373  0.3415
 7843TIP3    H144944   0.990   4.266  12.838 -1.1714  0.4496 -0.3850
 7843TIP3    H244945   0.993   4.158  12.945 -0.8969  2.1997  1.4010
 7844TIP3   OH244946   2.787   2.118   3.090  0.3339  0.1807 -0.0404
 7844TIP3    H144947   2.796   2.112   3.185  1.3472  0.4609 -0.1167
 7844TIP3    H244948   2.692   2.121   3.075  0.2059  2.6100  1.1046
 7845TIP3   OH244949   5.933   4.097  11.466 -0.1697 -0.2008 -0.3713
 7845TIP3    H144950   5.916   4.055  11.550 -3.1981  2.3159  0.3630
 7845TIP3    H244951   5.850   4.089  11.418  0.8305  0.3629 -2.2574
 7846TIP3   OH244952   0.187   0.228  12.486 -0.1784  0.2975 -0.0053
 7846TIP3    H144953   0.184   0.199  12.395 -0.2228 -0.7181  0.3162
 7846TIP3    H244954   0.230   0.314  12.482  0.0850  0.1296 -0.9434
 7847TIP3   OH244955   3.526   1.219  12.055 -0.5356 -0.0733 -0.1717
 7847TIP3    H144956   3.526   1.315  12.052 -0.8099 -0.0027  1.5558
 7847TIP3    H244957   3.479   1.197  12.135  1.8347 -1.5818  0.8658
 7848TIP3   OH244958   6.575   5.473  14.539 -0.3962  0.0538  0.6707
 7848TIP3    H144959   6.498   5.529  14.531 -0.8104 -0.3400  1.8295
 7848TIP3    H244960   6.599   5.452  14.449 -1.7461  0.0313  0.3115
 7849TIP3   OH244961   0.067   4.376  12.427  0.2877 -0.0149  0.1585
 7849TIP3    H144962  -0.025   4.400  12.432  0.5775  1.1641 -0.0555
 7849TIP3    H244963   0.069   4.284  12.452 -0.9524 -0.0608  0.1148
 7850TIP3   OH244964   0.055   5.479  11.705  0.1836 -0.4343  0.0396
 7850TIP3    H144965   0.101   5.550  11.750  1.3695  0.0812 -1.9614
 7850TIP3    H244966   0.122   5.412  11.691 -0.3029 -0.8106 -0.5065
 7851TIP3   OH244967   1.541   1.173  14.084 -0.5680  0.2232 -0.0119
 7851TIP3    H144968   1.450   1.145  14.087 -0.5438  0.1844  0.3845
 7851TIP3    H244969   1.541   1.253  14.032 -1.0992  1.2711  1.5498
 7852TIP3   OH244970   1.206   3.487  16.554  0.0301  0.1102 -0.1364
 7852TIP3    H144971   1.138   3.454  16.612  1.2271  0.3682  1.4487
 7852TIP3    H244972   1.184   3.579  16.542 -1.7253 -0.5577 -2.2923
 7853TIP3   OH244973   1.113   4.877  14.195 -0.1923  0.6323 -0.1414
 7853TIP3    H144974   1.058   4.955  14.190  1.8026  2.3880  3.3478
 7853TIP3    H244975   1.202   4.911  14.209  1.3488 -2.1961 -2.5299
 7854TIP3   OH244976   6.000   5.493  12.676  0.0373  0.5294 -0.1981
 7854TIP3    H144977   6.006   5.588  12.693  1.8848  0.6432 -1.2877
 7854TIP3    H244978   6.044   5.453  12.751 -0.1230  0.5723 -0.0825
 7855TIP3   OH244979   0.758   5.686   2.997  0.6846 -0.2908 -0.1126
 7855TIP3    H144980   0.667   5.714   3.007  0.7550  0.4042 -1.4327
 7855TIP3    H244981   0.752   5.594   2.974  0.3208 -0.2545 -0.1661
 7856TIP3   OH244982   5.254   3.138  15.050  0.0651  0.3332  0.1387
 7856TIP3    H144983   5.302   3.158  15.130  1.8947  0.4947 -0.9937
 7856TIP3    H244984   5.318   3.098  14.991 -1.4961 -0.7482 -0.8877
 7857TIP3   OH244985   0.115   3.410  14.083  0.4418 -0.1193 -0.3245
 7857TIP3    H144986   0.140   3.320  14.062  1.1481  0.4833 -2.1379
 7857TIP3    H244987   0.029   3.421  14.042  1.7957  1.0431 -2.9304
 7858TIP3   OH244988   3.143   0.999  12.379  0.2277 -0.5027 -0.8345
 7858TIP3    H144989   3.100   1.022  12.460  0.3214  0.4354 -1.0504
 7858TIP3    H244990   3.149   0.903  12.381 -1.8898 -0.6557 -0.8333
 7859TIP3   OH244991   4.187   4.492   0.368 -0.0328  0.1880  0.3431
 7859TIP3    H144992   4.245   4.494   0.292  0.5311 -0.8212  0.7402
 7859TIP3    H244993   4.245   4.478   0.443 -0.7441 -0.4584  0.7861
 7860TIP3   OH244994   4.511   1.441  15.817  0.3039 -0.3652  0.5459
 7860TIP3    H144995   4.443   1.508  15.826  0.6511  0.2087 -0.9379
 7860TIP3    H244996   4.537   1.445  15.725  0.4063 -2.4866  0.4567
 7861TIP3   OH244997   5.640   2.879  12.300  0.1034 -0.3708 -0.1494
 7861TIP3    H144998   5.605   2.801  12.257  0.1303 -0.2644 -0.3654
 7861TIP3    H244999   5.705   2.913  12.238 -2.6325  2.0457 -1.8594
 7862TIP3   OH245000   4.663   5.516   0.571  0.0817  0.3384  0.4588
 7862TIP3    H145001   4.735   5.512   0.633  0.5651  2.7694  0.1300
 7862TIP3    H245002   4.585   5.526   0.625  0.4740  2.1439  0.7442
 7863TIP3   OH245003   5.576   2.705  11.780 -0.1252  0.0280 -0.1630
 7863TIP3    H145004   5.663   2.682  11.746 -0.1581 -0.2118 -0.0802
 7863TIP3    H245005   5.527   2.624  11.778 -0.4133  0.2066 -0.3976
 7864TIP3   OH245006   0.626   5.883  17.015 -0.2192  0.7436 -0.1619
 7864TIP3    H145007   0.536   5.892  16.984  0.2090  2.6765 -0.8721
 7864TIP3    H245008   0.636   5.951  17.082 -0.1075 -1.2433  1.9400
 7865TIP3   OH245009   5.056   3.482  14.634 -0.8381  0.5453 -0.0821
 7865TIP3    H145010   5.124   3.428  14.674 -0.7765  1.4745  1.0895
 7865TIP3    H245011   5.097   3.516  14.554 -1.5853 -2.7944 -1.9739
 7866TIP3   OH245012   1.427   6.133   4.802  0.2383 -0.2001  0.1638
 7866TIP3    H145013   1.405   6.119   4.709  1.7070 -0.0679 -0.2248
 7866TIP3    H245014   1.519   6.107   4.808  1.1158  2.8841  0.8680
 7867TIP3   OH245015   0.709   2.366  12.871  0.2644 -0.4102  1.1178
 7867TIP3    H145016   0.769   2.368  12.796 -1.0658  0.6087  0.0623
 7867TIP3    H245017   0.698   2.272  12.890  0.5193 -0.6801 -0.0426
 7868TIP3   OH245018   5.139   5.609   1.845 -0.0891  0.2381 -0.2065
 7868TIP3    H145019   5.147   5.599   1.940 -0.1613 -3.2559 -0.5034
 7868TIP3    H245020   5.229   5.603   1.814  0.1057  3.0228 -0.2703
 7869TIP3   OH245021   4.698   3.740  10.767  0.1309  0.2207 -0.0735
 7869TIP3    H145022   4.756   3.701  10.833 -1.6048 -1.4425  0.5142
 7869TIP3    H245023   4.722   3.696  10.686 -0.9016 -1.1490  0.3407
 7870TIP3   OH245024   2.993   2.474   4.898  0.1751  0.1609 -0.5541
 7870TIP3    H145025   2.943   2.472   4.980 -1.6099  0.0999 -1.6181
 7870TIP3    H245026   2.952   2.407   4.843  1.6478 -0.1210 -1.3406
 7871TIP3   OH245027   5.337   4.841   2.515 -0.2719 -0.6382 -0.1793
 7871TIP3    H145028   5.404   4.889   2.565  0.2938 -0.9965 -0.5909
 7871TIP3    H245029   5.262   4.901   2.513  0.1057 -0.1464  0.1031
 7872TIP3   OH245030   0.202   3.179  16.836  0.1095 -0.0243 -0.0795
 7872TIP3    H145031   0.155   3.098  16.856 -1.3578  0.1589 -2.6760
 7872TIP3    H245032   0.192   3.191  16.742  0.7548  2.9122  0.1733
 7873TIP3   OH245033   0.053   0.697   6.396 -0.2360  0.7126 -0.2405
 7873TIP3    H145034   0.109   0.700   6.318 -0.5448  1.6766 -0.4350
 7873TIP3    H245035  -0.023   0.645   6.369  0.0627  0.3042 -0.3056
 7874TIP3   OH245036   6.324   6.681  10.906 -0.0987 -0.1143  0.3586
 7874TIP3    H145037   6.404   6.661  10.858  0.5052  0.5489  1.0685
 7874TIP3    H245038   6.282   6.751  10.856 -1.3533 -1.9142 -1.1965
 7875TIP3   OH245039   1.078   3.694  11.521 -0.3834 -0.4644 -0.0874
 7875TIP3    H145040   1.167   3.667  11.496 -0.2992 -1.0485  0.8128
 7875TIP3    H245041   1.087   3.784  11.550 -0.2974 -0.1287 -1.1222
 7876TIP3   OH245042   4.690   3.336   0.995  0.4008  0.0909 -0.3894
 7876TIP3    H145043   4.752   3.267   0.973  0.9865  0.6464 -0.5155
 7876TIP3    H245044   4.608   3.310   0.952  0.4033 -0.8990  0.2011
 7877TIP3   OH245045   5.689   5.742  11.932  0.7938  0.3457  0.0309
 7877TIP3    H145046   5.675   5.711  12.021  0.1700  2.4154  0.6728
 7877TIP3    H245047   5.639   5.681  11.877  0.6506 -0.5418  1.1285
 7878TIP3   OH245048   3.165   5.732  15.486  0.3748  0.2944  0.0055
 7878TIP3    H145049   3.129   5.808  15.438 -1.7152 -0.4754  0.3263
 7878TIP3    H245050   3.180   5.667  15.418 -1.6937 -0.4547  0.2382
 7879TIP3   OH245051   2.248   2.077  14.916 -0.0666 -0.0574  0.2663
 7879TIP3    H145052   2.196   2.145  14.873  0.3425  0.7702  1.0413
 7879TIP3    H245053   2.213   2.072  15.004 -0.8423 -1.6811 -0.1253
 7880TIP3   OH245054   0.072   0.384   1.283 -0.1502  0.1010  0.2792
 7880TIP3    H145055   0.031   0.462   1.244  0.3521 -0.3011 -1.0751
 7880TIP3    H245056   0.074   0.403   1.377 -1.5288  1.0219  0.1418
 7881TIP3   OH245057   0.513   0.822  12.742  0.0233 -0.3630 -0.3652
 7881TIP3    H145058   0.434   0.815  12.688 -2.2180 -1.5025  2.8881
 7881TIP3    H245059   0.565   0.745  12.718 -0.6043 -0.4577 -1.4457
 7882TIP3   OH245060   2.327   1.848   3.577  0.3522  0.0612 -0.0292
 7882TIP3    H145061   2.250   1.888   3.536  1.2147  1.8195  0.0073
 7882TIP3    H245062   2.293   1.804   3.655 -0.5143  1.5728  0.4673
 7883TIP3   OH245063   1.706   0.706   4.320  0.4580 -0.5998 -0.1651
 7883TIP3    H145064   1.780   0.748   4.276  0.6040  0.8873  1.4430
 7883TIP3    H245065   1.747   0.649   4.385  0.2377 -2.5272 -1.6793
 7884TIP3   OH245066   1.265   0.945   3.128  0.0227  0.1482  0.3111
 7884TIP3    H145067   1.203   0.875   3.148 -0.1259  0.1742 -0.0414
 7884TIP3    H245068   1.315   0.958   3.208 -1.3174  1.0426  1.0230
 7885TIP3   OH245069   5.811   0.234   0.744  0.1199 -0.3648 -0.4318
 7885TIP3    H145070   5.804   0.324   0.711 -1.7736 -0.8839 -1.5091
 7885TIP3    H245071   5.882   0.196   0.693 -0.1964  0.0119 -1.1576
 7886TIP3   OH245072   2.676   2.022  12.044  0.4201  0.0206 -0.1311
 7886TIP3    H145073   2.663   2.041  11.951 -2.6886  0.4331  0.3519
 7886TIP3    H245074   2.607   2.070  12.089  0.5063 -1.9532  2.2253
 7887TIP3   OH245075   2.616   5.444  14.136  0.5961 -0.4121  0.2096
 7887TIP3    H145076   2.634   5.497  14.214  1.0412 -1.1158  0.5953
 7887TIP3    H245077   2.620   5.506  14.063  0.5619  0.1820  0.7087
 7888TIP3   OH245078   1.933   4.206   4.729 -0.5388  0.4817 -0.2784
 7888TIP3    H145079   1.927   4.179   4.638 -2.4860 -1.0131  0.2720
 7888TIP3    H245080   1.930   4.302   4.726  0.5641  0.4730 -1.8408
 7889TIP3   OH245081   4.287   4.608  12.338 -0.0470 -0.7049  0.0866
 7889TIP3    H145082   4.274   4.587  12.430  0.4464 -0.7586  0.1499
 7889TIP3    H245083   4.202   4.638  12.307 -0.6368 -2.2377  0.1513
 7890TIP3   OH245084   1.013   1.542  13.431 -0.3657  0.0950  0.3089
 7890TIP3    H145085   0.917   1.539  13.424 -0.2893 -0.7564 -0.4449
 7890TIP3    H245086   1.039   1.611  13.371 -0.5054  0.2989  0.4850
 7891TIP3   OH245087   5.529   4.649  12.082  0.3689 -0.5073  0.2936
 7891TIP3    H145088   5.433   4.656  12.078  0.2448 -1.6507  1.2338
 7891TIP3    H245089   5.558   4.738  12.103 -0.3872  0.1699 -1.3879
 7892TIP3   OH245090   3.224   1.122  16.478  0.0452 -0.2162  0.0446
 7892TIP3    H145091   3.259   1.140  16.565 -1.8430  0.3169  0.7089
 7892TIP3    H245092   3.175   1.041  16.488 -0.9805  0.3539 -0.2866
 7893TIP3   OH245093   0.346   2.608  13.274  0.0542  0.0744  0.4668
 7893TIP3    H145094   0.358   2.556  13.194 -0.8151  0.1187  0.2961
 7893TIP3    H245095   0.385   2.693  13.253 -0.7997  0.3255 -0.1892
 7894TIP3   OH245096   5.317   3.428  14.245 -0.2124 -0.1965 -0.2819
 7894TIP3    H145097   5.342   3.446  14.336 -0.8062 -3.4543  0.5855
 7894TIP3    H245098   5.395   3.388  14.206 -0.6338 -0.7073 -0.6102
 7895TIP3   OH245099   0.854   2.419  16.818  0.2284  0.2393  0.7172
 7895TIP3    H145100   0.778   2.376  16.779  1.3116  0.2244 -1.4786
 7895TIP3    H245101   0.926   2.358  16.802  1.1407  1.3331  0.6401
 7896TIP3   OH245102   6.232   6.538  13.670  0.0824  0.1456 -0.0684
 7896TIP3    H145103   6.262   6.469  13.729  0.3449  0.2595 -0.0690
 7896TIP3    H245104   6.137   6.541  13.683 -0.2344 -1.6390 -1.5964
 7897TIP3   OH245105   5.957   3.485  15.433  0.4653  0.0514  0.1899
 7897TIP3    H145106   5.908   3.407  15.457 -0.8553  0.5173 -0.9461
 7897TIP3    H245107   5.902   3.558  15.462  1.4664  0.5792  0.8094
 7898TIP3   OH245108   6.713   0.582  15.749 -0.0106 -0.1000  0.0944
 7898TIP3    H145109   6.793   0.600  15.798  0.0086 -0.1794  0.0935
 7898TIP3    H245110   6.649   0.643  15.784  0.6274  1.5136 -1.4179
 7899TIP3   OH245111   4.497   4.280  15.020 -0.1811  0.2920  0.3475
 7899TIP3    H145112   4.536   4.319  15.098 -0.0241  0.9130 -0.0361
 7899TIP3    H245113   4.486   4.353  14.960 -3.3269  0.4204  0.9944
 7900TIP3   OH245114   4.415   1.751  12.671  0.4393 -0.5937  0.0788
 7900TIP3    H145115   4.448   1.804  12.744  3.0924 -1.4858 -0.4117
 7900TIP3    H245116   4.338   1.798  12.640 -0.9118 -0.3096  3.6159
 7901TIP3   OH245117   1.279   1.681  17.138 -1.1516 -0.6029 -0.1004
 7901TIP3    H145118   1.214   1.612  17.126 -0.9623 -0.5487 -1.5625
 7901TIP3    H245119   1.309   1.701  17.049  0.7388 -0.5050  0.5476
 7902TIP3   OH245120   4.236   3.834  12.747 -0.0307  0.0058 -0.0799
 7902TIP3    H145121   4.296   3.898  12.710  2.1181 -0.8099  1.7949
 7902TIP3    H245122   4.196   3.879  12.822  1.1953 -0.6681  1.0076
 7903TIP3   OH245123   0.048   0.975   2.763 -0.3009 -0.2388  0.2546
 7903TIP3    H145124   0.088   0.973   2.676 -0.9906 -1.2788 -0.0538
 7903TIP3    H245125   0.121   0.957   2.823  0.1743  0.4823 -0.1041
 7904TIP3   OH245126   6.665   0.915   1.600 -0.2394  0.3444 -0.7125
 7904TIP3    H145127   6.613   0.899   1.679  0.1052 -0.2664 -0.6056
 7904TIP3    H245128   6.682   1.009   1.601  0.1256  0.2775  0.1739
 7905TIP3   OH245129   3.267   3.649  11.692 -0.4382  0.1942  0.2637
 7905TIP3    H145130   3.247   3.702  11.769 -0.9051  0.8034 -0.2641
 7905TIP3    H245131   3.345   3.689  11.654 -1.2291  0.9767 -0.5592
 7906TIP3   OH245132   2.764   4.534   1.137 -0.4514  0.0678  0.0265
 7906TIP3    H145133   2.699   4.602   1.151  0.0121  0.8305 -1.3965
 7906TIP3    H245134   2.848   4.580   1.134  0.0006 -0.7157  0.3191
 7907TIP3   OH245135   4.397   2.821  11.379 -0.5848 -0.0230 -0.1446
 7907TIP3    H145136   4.377   2.888  11.314 -2.2074 -2.4297 -2.2191
 7907TIP3    H245137   4.471   2.773  11.342 -0.8608 -0.7668  0.2541
 7908TIP3   OH245138   5.659   0.084   2.855  0.0526 -0.1638 -0.2360
 7908TIP3    H145139   5.719   0.081   2.781  0.1044 -2.7699 -0.1219
 7908TIP3    H245140   5.595   0.152   2.832  1.5222  0.8252 -1.4997
 7909TIP3   OH245141   3.734   0.854  13.615  0.2066  0.7915 -0.1042
 7909TIP3    H145142   3.766   0.915  13.682  3.5052 -0.5766 -0.3492
 7909TIP3    H245143   3.722   0.771  13.663 -0.6181  0.6393 -0.5598
 7910TIP3   OH245144   1.325   6.718   4.132 -0.7372  0.3242 -0.5057
 7910TIP3    H145145   1.345   6.720   4.038 -1.0088 -0.0339 -0.5724
 7910TIP3    H245146   1.389   6.656   4.169 -2.6884 -2.0361 -0.9583
 7911TIP3   OH245147   2.404   1.536  15.327  0.1060 -0.3085 -0.3467
 7911TIP3    H145148   2.459   1.503  15.257  1.1344  1.0281 -0.2056
 7911TIP3    H245149   2.412   1.472  15.398  2.1709  0.2923 -0.0156
 7912TIP3   OH245150   1.431   3.671   5.422  0.0313 -0.2194 -0.1232
 7912TIP3    H145151   1.345   3.709   5.406 -0.3069 -1.1542 -0.5428
 7912TIP3    H245152   1.440   3.672   5.518 -0.1371  0.5305 -0.1079
 7913TIP3   OH245153   5.678   5.836  16.116 -0.0238 -0.8709 -0.3851
 7913TIP3    H145154   5.727   5.775  16.061  0.8042 -1.0007  0.4698
 7913TIP3    H245155   5.626   5.780  16.174  1.2955 -0.7893  0.8980
 7914TIP3   OH245156   3.261   6.409   2.784 -0.4896 -0.1723  0.1982
 7914TIP3    H145157   3.278   6.471   2.855  0.0537 -1.0278  0.8440
 7914TIP3    H245158   3.199   6.453   2.726 -0.3579  0.8296  0.8197
 7915TIP3   OH245159   2.397   2.816   2.461 -0.1632  0.4469 -0.0671
 7915TIP3    H145160   2.333   2.766   2.409 -0.1430  0.9879 -0.6223
 7915TIP3    H245161   2.387   2.784   2.550 -0.7505  0.0610 -0.2738
 7916TIP3   OH245162   6.087   1.425   0.250 -0.4685 -0.0469  0.1811
 7916TIP3    H145163   6.011   1.482   0.243 -0.0701  0.4586 -0.1400
 7916TIP3    H245164   6.133   1.436   0.166 -0.2414 -0.6269  0.2257
 7917TIP3   OH245165   4.087   0.214   5.764 -0.8404  0.0249 -0.0547
 7917TIP3    H145166   4.165   0.162   5.747 -0.3452  0.6853  0.1468
 7917TIP3    H245167   4.042   0.168   5.835  0.1160  0.4127  0.8162
 7918TIP3   OH245168   4.448   2.577  15.975  0.5804  0.4264  0.4874
 7918TIP3    H145169   4.492   2.520  16.038  0.3734 -0.6373 -0.2999
 7918TIP3    H245170   4.417   2.517  15.907  2.2874  1.7242 -1.5000
 7919TIP3   OH245171   1.426   5.317  13.591  0.4636 -0.5702 -0.0187
 7919TIP3    H145172   1.513   5.318  13.630  1.0052 -0.8926 -1.1896
 7919TIP3    H245173   1.371   5.364  13.654  1.6976  0.5908  0.2160
 7920TIP3   OH245174   4.587   0.203  13.987 -0.1495 -0.2481 -0.3440
 7920TIP3    H145175   4.646   0.141  14.029 -0.5805 -1.3461 -1.3345
 7920TIP3    H245176   4.499   0.171  14.007 -0.3655 -0.6336 -1.8180
 7921TIP3   OH245177   1.676   3.426  13.937 -0.4136 -0.1199  0.2053
 7921TIP3    H145178   1.726   3.355  13.897 -2.6922 -0.0090 -3.0073
 7921TIP3    H245179   1.589   3.419  13.899 -1.1524  3.4233  1.0599
 7922TIP3   OH245180   2.603   3.948   3.570 -0.4622  0.2225  0.3979
 7922TIP3    H145181   2.586   3.855   3.581 -1.2091  0.3672  0.5258
 7922TIP3    H245182   2.640   3.976   3.654  0.9612 -0.2146 -0.0793
 7923TIP3   OH245183   6.530   1.618   5.954 -0.4360 -0.2369  0.5778
 7923TIP3    H145184   6.513   1.527   5.931  1.3398 -0.3627 -0.2418
 7923TIP3    H245185   6.488   1.669   5.885 -0.0077 -0.4622  0.1575
 7924TIP3   OH245186   5.188   0.584   3.353 -0.3655 -0.4967  0.2985
 7924TIP3    H145187   5.174   0.490   3.340  1.3670 -0.7488  0.1167
 7924TIP3    H245188   5.263   0.605   3.296 -0.8085  1.0186  0.2427
 7925TIP3   OH245189   3.452   0.240  12.507 -0.0989  0.3588 -0.1870
 7925TIP3    H145190   3.410   0.292  12.575  2.1885  0.4787  1.1730
 7925TIP3    H245191   3.382   0.183  12.473 -1.5470  1.1754  1.3855
 7926TIP3   OH245192   5.408   1.912   0.565 -0.2768  0.0462 -0.3167
 7926TIP3    H145193   5.368   1.827   0.583  0.9607 -0.0832  1.8870
 7926TIP3    H245194   5.480   1.892   0.505 -1.4979 -0.1286 -1.7483
 7927TIP3   OH245195   5.601   1.783  13.025  0.2582  0.3148  0.0699
 7927TIP3    H145196   5.537   1.723  12.988  0.5786 -1.0351  1.6620
 7927TIP3    H245197   5.615   1.849  12.957  0.6863 -1.9942 -2.1141
 7928TIP3   OH245198   1.277   6.048   4.569 -0.0732 -0.8983  0.5590
 7928TIP3    H145199   1.287   6.061   4.475 -2.9394 -1.4316  0.1239
 7928TIP3    H245200   1.316   5.962   4.586 -1.2047 -1.6263 -0.4725
 7929TIP3   OH245201   0.828   5.086   0.957 -0.3120  0.0637 -0.0040
 7929TIP3    H145202   0.813   5.174   0.992 -2.8167 -1.0781  1.9508
 7929TIP3    H245203   0.848   5.032   1.034 -1.1554 -1.5494 -0.8761
 7930TIP3   OH245204   5.774   3.353   1.326  0.3094 -0.1178 -0.3379
 7930TIP3    H145205   5.765   3.351   1.421 -0.2464  2.4740 -0.2973
 7930TIP3    H245206   5.820   3.435   1.308  2.3478 -1.6026 -2.1894
 7931TIP3   OH245207   4.129   1.823  12.000 -0.0761  0.1596 -0.0274
 7931TIP3    H145208   4.181   1.761  12.052 -1.6646 -0.8036  0.4695
 7931TIP3    H245209   4.165   1.909  12.022  0.8462 -0.4272  0.8195
 7932TIP3   OH245210   4.396   4.253   5.357  0.4146  0.7346  0.2886
 7932TIP3    H145211   4.485   4.219   5.348 -0.3465 -1.1515 -0.3913
 7932TIP3    H245212   4.379   4.297   5.273 -0.5308 -1.9829 -1.0001
 7933TIP3   OH245213   4.622   2.404   1.520  0.8162 -0.4811  0.0595
 7933TIP3    H145214   4.675   2.328   1.544  0.4584 -0.0360  2.4315
 7933TIP3    H245215   4.535   2.369   1.504  0.6175 -0.5874  1.2966
 7934TIP3   OH245216   1.857   2.626  15.355  0.1046  0.2669  0.4487
 7934TIP3    H145217   1.770   2.634  15.316  0.5104 -1.2931 -0.8225
 7934TIP3    H245218   1.854   2.542  15.403  1.1331 -0.1655 -0.2222
 7935TIP3   OH245219   0.328   1.907  15.113  0.4897  0.8437  0.4571
 7935TIP3    H145220   0.233   1.923  15.109  0.6280  1.3624 -1.1683
 7935TIP3    H245221   0.336   1.814  15.132 -0.3653  0.3055 -1.7032
 7936TIP3   OH245222   2.241   0.677  14.288 -0.5964  0.1330 -0.3162
 7936TIP3    H145223   2.226   0.771  14.283 -1.0659  0.0618 -0.2197
 7936TIP3    H245224   2.161   0.637  14.254 -0.7899 -0.2387  0.5512
 7937TIP3   OH245225   4.391   2.136   2.328  0.1305 -0.0068  0.1211
 7937TIP3    H145226   4.436   2.054   2.312 -1.6188 -0.6979 -1.5199
 7937TIP3    H245227   4.361   2.130   2.419 -0.0122 -1.2215  0.0039
 7938TIP3   OH245228   5.292   1.773  17.080 -0.0151 -0.1096 -0.6220
 7938TIP3    H145229   5.272   1.726  17.161  1.3305 -2.4473 -1.5891
 7938TIP3    H245230   5.380   1.809  17.094 -0.8330  1.7397 -0.0830
 7939TIP3   OH245231   4.741   0.961   5.469 -0.3447  0.6630  0.1590
 7939TIP3    H145232   4.713   0.936   5.381 -0.3581 -0.2638  0.4128
 7939TIP3    H245233   4.738   1.056   5.470  0.6003  0.7113 -1.1499
 7940TIP3   OH245234   6.452   4.898  12.964 -0.3406  0.5362  0.7778
 7940TIP3    H145235   6.377   4.852  12.927 -0.2299  0.3658  0.7617
 7940TIP3    H245236   6.461   4.977  12.911 -0.1977  0.3055  0.4534
 7941TIP3   OH245237   0.601   0.463  11.797  0.1555 -0.3680  0.2713
 7941TIP3    H145238   0.692   0.448  11.823  0.7688  2.1900 -0.2253
 7941TIP3    H245239   0.595   0.426  11.708  0.9676  0.2044 -0.0307
 7942TIP3   OH245240   5.573   1.297   0.582  0.0945 -0.0214 -0.5022
 7942TIP3    H145241   5.599   1.216   0.537  1.3499  0.7843 -1.2570
 7942TIP3    H245242   5.522   1.345   0.517 -1.7190 -0.7418  0.3534
 7943TIP3   OH245243   6.411   6.062  13.887  0.9037  0.1146  0.3596
 7943TIP3    H145244   6.480   6.002  13.858  1.3018 -0.3679  2.2459
 7943TIP3    H245245   6.342   6.006  13.920  1.3500  0.6603  2.3014
 7944TIP3   OH245246   1.441   2.244  14.661 -0.3661 -0.0964 -0.4090
 7944TIP3    H145247   1.350   2.225  14.681 -0.6227  0.5253 -0.9798
 7944TIP3    H245248   1.490   2.177  14.709 -1.1166 -0.4625 -0.1393
 7945TIP3   OH245249   0.809   2.791  11.516 -0.3519 -0.3051 -0.7072
 7945TIP3    H145250   0.727   2.796  11.467 -1.1232 -0.3902  0.5477
 7945TIP3    H245251   0.782   2.797  11.608  0.9627 -1.2889 -0.2424
 7946TIP3   OH245252   2.729   3.666  15.975 -0.2397  0.2750 -0.4189
 7946TIP3    H145253   2.807   3.634  15.930  0.8741  0.8450  1.0641
 7946TIP3    H245254   2.684   3.587  16.004  1.5670 -0.0580  1.6596
 7947TIP3   OH245255   2.045   2.240  11.638  0.5580 -0.0571  0.0653
 7947TIP3    H145256   2.038   2.333  11.662  0.8643  0.1044 -0.4817
 7947TIP3    H245257   1.955   2.215  11.615  0.5176  0.1612 -0.0173
 7948TIP3   OH245258   1.854   6.241  12.476  0.2318  0.1322  0.2895
 7948TIP3    H145259   1.892   6.295  12.546  3.6697 -2.3387  0.4571
 7948TIP3    H245260   1.917   6.247  12.404 -1.1456 -0.7442 -1.0201
 7949TIP3   OH245261   2.497   0.032  11.561 -0.8379  0.2099 -0.1506
 7949TIP3    H145262   2.501  -0.061  11.538  0.1609 -0.1047  1.1748
 7949TIP3    H245263   2.409   0.045  11.595 -1.3163 -0.0133 -1.2997
 7950TIP3   OH245264   1.191   2.318   0.594 -0.0017 -0.2323  0.4815
 7950TIP3    H145265   1.209   2.225   0.606  1.2159  0.0945  1.3159
 7950TIP3    H245266   1.259   2.362   0.645 -0.1226  1.1250 -0.5059
 7951TIP3   OH245267   2.810   2.399  15.802 -0.4204  0.7110 -0.8419
 7951TIP3    H145268   2.888   2.405  15.858 -0.2681  0.8786 -1.0663
 7951TIP3    H245269   2.771   2.486  15.807 -1.5883  0.1133  0.6732
 7952TIP3   OH245270   5.012   4.301  15.560  0.3650  0.3537  0.1742
 7952TIP3    H145271   5.012   4.326  15.652  1.0174 -0.5612  0.4221
 7952TIP3    H245272   5.101   4.317  15.530  0.6739 -1.2336  0.2174
 7953TIP3   OH245273   0.100   0.190   4.850 -0.0934 -0.5703  0.4619
 7953TIP3    H145274   0.014   0.150   4.858  0.8186 -2.4162  1.1865
 7953TIP3    H245275   0.122   0.217   4.939  0.1081 -0.1431  0.2830
 7954TIP3   OH245276   0.924   6.692  13.457 -0.3077 -0.9144 -0.2279
 7954TIP3    H145277   0.864   6.760  13.428  0.0818 -0.2546  0.4938
 7954TIP3    H245278   0.939   6.710  13.550 -1.4059 -2.8857  0.3720
 7955TIP3   OH245279   4.526   6.013   5.579 -0.2219 -0.1562 -0.4235
 7955TIP3    H145280   4.457   5.986   5.640 -0.0072  2.1419  0.8830
 7955TIP3    H245281   4.539   5.936   5.523 -2.0993 -1.4862  0.8790
 7956TIP3   OH245282   0.497   4.909  15.116  0.6817 -0.3000  0.1859
 7956TIP3    H145283   0.422   4.955  15.077  0.0354 -0.5157  1.1544
 7956TIP3    H245284   0.560   4.901  15.045 -0.4295 -0.5787 -0.7754
 7957TIP3   OH245285   1.323   2.078   4.148  0.1466 -0.0570  0.0256
 7957TIP3    H145286   1.418   2.092   4.150  0.1082  0.2193  2.7605
 7957TIP3    H245287   1.313   1.984   4.132  1.0312 -0.7037  2.8786
 7958TIP3   OH245288   0.434   6.141  12.063  0.9051  0.2861  0.2499
 7958TIP3    H145289   0.368   6.145  11.993 -1.3934  0.2188  2.3408
 7958TIP3    H245290   0.434   6.050  12.091  1.4181  0.4258  0.7154
 7959TIP3   OH245291   0.648   1.569   6.196 -0.2436  0.1032 -0.2736
 7959TIP3    H145292   0.729   1.574   6.145 -1.1277  0.3917 -1.7026
 7959TIP3    H245293   0.623   1.477   6.192  0.2028 -0.0493  0.4692
 7960TIP3   OH245294   3.121   4.984  13.536 -0.6928  0.6085  0.6507
 7960TIP3    H145295   3.030   4.986  13.508 -0.2164 -0.2844 -1.0439
 7960TIP3    H245296   3.163   5.056  13.489 -0.0828 -0.3135 -0.2364
 7961TIP3   OH245297   2.776   3.988   3.299  0.3232 -0.2023 -0.0486
 7961TIP3    H145298   2.800   4.030   3.382 -0.1977  0.7151 -0.3560
 7961TIP3    H245299   2.746   4.060   3.244  1.3805 -0.7001 -1.3033
 7962TIP3   OH245300   6.026   1.722  13.419 -0.2689 -0.0483  0.4375
 7962TIP3    H145301   6.072   1.767  13.348 -2.3555  0.8477 -0.3918
 7962TIP3    H245302   5.997   1.793  13.477 -1.3345 -0.5146  0.4838
 7963TIP3   OH245303   5.202   0.442  15.403  0.0964 -0.6947 -0.4722
 7963TIP3    H145304   5.282   0.402  15.369  0.4059  0.7174 -1.4369
 7963TIP3    H245305   5.228   0.530  15.429 -1.5741  0.5306 -2.7845
 7964TIP3   OH245306   6.194   0.411   4.966 -0.1484  0.2286 -0.1984
 7964TIP3    H145307   6.105   0.409   5.001 -0.1338  1.9572 -0.0389
 7964TIP3    H245308   6.184   0.444   4.877  0.2998  0.1648 -0.2729
 7965TIP3   OH245309   1.058   3.665   4.212 -0.4360 -0.2141 -0.4862
 7965TIP3    H145310   0.981   3.610   4.224 -0.6265  0.1511 -0.0285
 7965TIP3    H245311   1.035   3.748   4.254  0.8245 -0.6379  1.1009
 7966TIP3   OH245312   4.156   3.442   0.741 -0.0823  0.2119  0.0829
 7966TIP3    H145313   4.133   3.369   0.797 -0.8205  1.2575  1.1636
 7966TIP3    H245314   4.183   3.402   0.658  0.8414 -1.3279  1.1136
 7967TIP3   OH245315   5.794   2.967  14.894 -0.0503  0.1035 -0.2340
 7967TIP3    H145316   5.882   2.992  14.923 -0.3533 -0.0540  0.8553
 7967TIP3    H245317   5.769   3.035  14.832  1.1923 -0.3264 -1.2439
 7968TIP3   OH245318   6.655   6.693   4.276  0.0003  0.2704 -0.0335
 7968TIP3    H145319   6.588   6.754   4.246 -1.0435 -0.6664  0.3737
 7968TIP3    H245320   6.706   6.743   4.341 -0.7545  0.7559  0.1921
 7969TIP3   OH245321   3.575   2.988   3.938 -0.3544  0.2495  0.0413
 7969TIP3    H145322   3.509   2.938   3.985 -0.5854 -0.7823 -1.3703
 7969TIP3    H245323   3.578   2.949   3.851  2.8484 -0.4306  0.3953
 7970TIP3   OH245324   6.058   6.626  13.996  0.6311  0.1515 -0.1877
 7970TIP3    H145325   6.137   6.657  13.951  1.5005 -0.8132  0.6680
 7970TIP3    H245326   5.998   6.603  13.924  1.2941  0.4606 -0.8508
 7971TIP3   OH245327   6.361   5.097  11.546 -0.3709  0.2321  0.6144
 7971TIP3    H145328   6.346   5.044  11.624  0.6410  1.0017  1.3407
 7971TIP3    H245329   6.443   5.063  11.509  0.1263  1.0886  0.9208
 7972TIP3   OH245330   0.227   6.147   2.196  0.3201  0.3591 -0.8162
 7972TIP3    H145331   0.260   6.064   2.160  0.3662 -0.0391  0.1301
 7972TIP3    H245332   0.232   6.208   2.123 -0.5431 -0.6946 -1.7758
 7973TIP3   OH245333   0.688   5.635  15.497  0.0505 -0.5933  0.2845
 7973TIP3    H145334   0.758   5.570  15.492  0.2293 -0.4524  0.8861
 7973TIP3    H245335   0.624   5.597  15.557  0.3104 -0.0793  0.9018
 7974TIP3   OH245336   4.891   5.331   4.574 -0.2006  0.3466  0.1221
 7974TIP3    H145337   4.914   5.377   4.654 -0.1227  1.6613 -0.6414
 7974TIP3    H245338   4.893   5.239   4.598  1.3376  0.6558  1.2380
 7975TIP3   OH245339   3.569   3.212  15.532 -0.0587  0.4984 -0.1625
 7975TIP3    H145340   3.561   3.127  15.489  0.6546  0.4539 -0.2034
 7975TIP3    H245341   3.491   3.260  15.503 -0.5637 -0.2018  0.0134
 7976TIP3   OH245342   2.141   2.109   1.042 -0.1405  0.0242  0.3249
 7976TIP3    H145343   2.217   2.090   0.986  0.2684 -0.6281  1.0941
 7976TIP3    H245344   2.149   2.202   1.063 -1.0175  0.6090 -1.7697
 7977TIP3   OH245345   4.656   0.422  13.481 -0.0523 -0.6553  0.4736
 7977TIP3    H145346   4.685   0.385  13.565 -0.6629 -1.1714  0.4637
 7977TIP3    H245347   4.611   0.503  13.505  1.6073  0.2969  0.4652
 7978TIP3   OH245348   1.570   5.294   5.962 -0.6287 -0.5384  0.7526
 7978TIP3    H145349   1.579   5.382   5.999 -0.4570 -0.6855  1.0581
 7978TIP3    H245350   1.616   5.237   6.023  1.7940 -0.4691 -0.9201
 7979TIP3   OH245351   3.614   4.260   3.916  0.2961  0.1206  0.5605
 7979TIP3    H145352   3.588   4.223   4.001  0.1574 -0.0824  0.4303
 7979TIP3    H245353   3.601   4.354   3.926 -1.3829 -0.0542  0.1901
 7980TIP3   OH245354   3.447   6.573  12.410  0.2925  0.2888  0.1294
 7980TIP3    H145355   3.426   6.494  12.459 -1.0903  0.6029  0.0765
 7980TIP3    H245356   3.462   6.543  12.321 -0.1062  0.0708  0.1357
 7981TIP3   OH245357   3.137   0.284   4.275 -0.2626 -0.1512  0.6194
 7981TIP3    H145358   3.203   0.302   4.208  2.1577  2.8430  3.6082
 7981TIP3    H245359   3.175   0.213   4.327 -1.3483 -1.2910 -0.1269
 7982TIP3   OH245360   4.385   5.199   3.999  0.5398 -0.2483  0.0863
 7982TIP3    H145361   4.440   5.222   3.924 -0.0178 -1.0145 -0.5719
 7982TIP3    H245362   4.445   5.158   4.061  1.1976  1.3334  0.5150
 7983TIP3   OH245363   5.551   5.686  12.164  0.1985 -0.3748  0.4257
 7983TIP3    H145364   5.586   5.612  12.213 -1.4710 -0.8425  0.9478
 7983TIP3    H245365   5.485   5.724  12.223 -2.6644 -1.6338 -1.8614
 7984TIP3   OH245366   3.609   2.926   4.271  1.1980 -0.3486  0.3995
 7984TIP3    H145367   3.528   2.905   4.224 -0.7229 -0.3159  3.5511
 7984TIP3    H245368   3.589   3.007   4.318  2.7931 -0.7560  1.8296
 7985TIP3   OH245369   1.276   6.457  12.621  0.1379  0.4091  0.1121
 7985TIP3    H145370   1.205   6.430  12.678 -1.8730  4.2917 -0.3897
 7985TIP3    H245371   1.345   6.485  12.681 -0.1129 -0.0311  0.6143
 7986TIP3   OH245372   2.564   5.153   1.934  0.3593 -0.6396  0.0235
 7986TIP3    H145373   2.622   5.169   2.008  0.5337 -1.1084 -0.0106
 7986TIP3    H245374   2.540   5.061   1.942 -0.2490 -0.4915 -0.0551
 7987TIP3   OH245375   5.572   6.060   2.958  0.3827  0.1400 -0.1737
 7987TIP3    H145376   5.589   6.152   2.979  1.0673 -0.1623  0.6000
 7987TIP3    H245377   5.499   6.063   2.896 -0.6550  1.1280  1.0772
 7988TIP3   OH245378   2.012   4.083   0.491 -0.2514 -0.3078  0.8088
 7988TIP3    H145379   2.062   4.163   0.474 -1.0813 -0.0846 -0.6200
 7988TIP3    H245380   1.961   4.103   0.570  1.1175 -0.1791  1.6800
 7989TIP3   OH245381   2.270   2.323   0.306  0.3071 -0.3649 -0.0185
 7989TIP3    H145382   2.253   2.263   0.379  0.4098  0.6052  0.8016
 7989TIP3    H245383   2.359   2.301   0.277  0.3412 -0.6123  0.2753
 7990TIP3   OH245384   2.115   2.708  16.530 -0.3590 -0.8850 -0.4368
 7990TIP3    H145385   2.203   2.745  16.531 -1.7597  2.5683  1.6918
 7990TIP3    H245386   2.083   2.724  16.441 -0.2210  1.3067 -0.1042
 7991TIP3   OH245387   0.816   0.792  15.004  0.5612 -0.3787 -0.3591
 7991TIP3    H145388   0.765   0.734  15.060  2.4072 -2.2035 -0.4973
 7991TIP3    H245389   0.895   0.813  15.054  1.2534 -0.3273 -1.4309
 7992TIP3   OH245390   5.187   5.344  12.163 -0.2690  0.2440  0.1007
 7992TIP3    H145391   5.137   5.426  12.169  0.3108  0.6263 -0.2856
 7992TIP3    H245392   5.270   5.370  12.124 -0.5934 -0.7523 -1.2547
 7993TIP3   OH245393   1.655   6.255  14.493 -0.0102 -0.2080  0.7041
 7993TIP3    H145394   1.603   6.324  14.451  3.0683  2.7722  1.5763
 7993TIP3    H245395   1.673   6.192  14.422  0.4585  1.9254 -1.1267
 7994TIP3   OH245396   4.090   6.626  15.429  0.0089  0.6926 -0.3730
 7994TIP3    H145397   4.132   6.713  15.430  1.2354  0.0934  1.4046
 7994TIP3    H245398   4.001   6.642  15.459 -0.0352  1.4690 -0.9002
 7995TIP3   OH245399   3.472   5.477   5.683  0.1104 -0.1114 -0.4213
 7995TIP3    H145400   3.416   5.400   5.694  0.5790 -0.2823  0.8739
 7995TIP3    H245401   3.471   5.520   5.768  4.3015 -1.7606  0.6124
 7996TIP3   OH245402   5.948   5.657   5.473 -0.5592 -0.5945 -0.5997
 7996TIP3    H145403   6.005   5.714   5.525  1.2174 -2.8809  0.0338
 7996TIP3    H245404   5.875   5.714   5.447  0.4408  1.5904  1.1723
 7997TIP3   OH245405   2.805   3.854   0.534  0.2423 -0.8606  0.1274
 7997TIP3    H145406   2.784   3.818   0.620 -1.3248  1.1090  0.5849
 7997TIP3    H245407   2.901   3.845   0.528  0.1213 -3.2037  1.0434
 7998TIP3   OH245408   1.467   5.751   3.475 -0.0858 -0.5458 -0.1497
 7998TIP3    H145409   1.429   5.825   3.523  1.8347  0.1720  0.2950
 7998TIP3    H245410   1.561   5.770   3.473  0.2531 -2.3091 -1.2034
 7999TIP3   OH245411   0.795   5.803  13.551  0.1501 -0.9092  0.1937
 7999TIP3    H145412   0.810   5.781  13.459  1.6409 -3.5669  1.0117
 7999TIP3    H245413   0.880   5.833  13.583 -0.4218  0.2358  0.6722
 8000TIP3   OH245414   0.551   0.830  13.224  0.2249 -0.3552 -0.0481
 8000TIP3    H145415   0.465   0.791  13.205 -0.8132  1.3433  1.0658
 8000TIP3    H245416   0.577   0.871  13.142 -0.8362  0.5972  0.0787
 8001TIP3   OH245417   0.347   4.830   2.390  0.3658 -0.1302  0.0622
 8001TIP3    H145418   0.268   4.839   2.445  0.5451  2.2873 -0.0020
 8001TIP3    H245419   0.414   4.877   2.438  0.6652  1.5813 -1.9692
 8002TIP3   OH245420   6.201   0.324  16.291 -0.3344 -0.2591  0.3437
 8002TIP3    H145421   6.264   0.383  16.332  0.8668 -0.9177 -0.4994
 8002TIP3    H245422   6.193   0.252  16.353 -0.8910  0.2229  0.8311
 8003TIP3   OH245423   3.638   0.353   1.957  0.2391  0.1128 -0.2385
 8003TIP3    H145424   3.589   0.410   1.899  2.4017  1.8507 -0.4424
 8003TIP3    H245425   3.704   0.312   1.901  1.5622  0.8825  0.7132
 8004TIP3   OH245426   3.872   0.764   0.726  0.0278 -0.3662 -0.0510
 8004TIP3    H145427   3.910   0.730   0.808  0.9095  1.2334  0.2148
 8004TIP3    H245428   3.779   0.775   0.746  0.3310  0.5308  0.9260
 8005TIP3   OH245429   1.654   0.436  13.747  0.4497  0.4675 -0.2106
 8005TIP3    H145430   1.748   0.454  13.755  0.6745 -0.4321 -0.7712
 8005TIP3    H245431   1.613   0.522  13.754  1.2797  0.8247  0.5190
 8006TIP3   OH245432   6.669   5.555  12.694  0.3607 -0.2123 -0.3605
 8006TIP3    H145433   6.600   5.515  12.746 -0.1902  0.3481 -0.6614
 8006TIP3    H245434   6.630   5.634  12.657  1.3413  0.4382 -0.0397
 8007TIP3   OH245435   2.398   3.034  14.931 -0.0564 -0.1520 -0.3744
 8007TIP3    H145436   2.367   2.977  15.001 -1.4513 -0.3701 -1.1341
 8007TIP3    H245437   2.327   3.097  14.918  1.2839  1.4949  0.1490
 8008TIP3   OH245438   2.307   4.097   2.741 -0.4408 -0.4870 -0.1992
 8008TIP3    H145439   2.352   4.171   2.782 -0.3862 -0.1072 -0.9409
 8008TIP3    H245440   2.363   4.021   2.760  1.5776  0.2747 -2.7816
 8009TIP3   OH245441   3.318   1.095   2.323  0.1531  0.6728  0.2885
 8009TIP3    H145442   3.410   1.116   2.304  0.5006 -0.4420  0.7303
 8009TIP3    H245443   3.294   1.032   2.256 -0.0192  0.2794  0.7199
 8010TIP3   OH245444   0.117   2.817  16.490 -0.6483 -0.1107  0.0706
 8010TIP3    H145445   0.022   2.819  16.482 -0.6602  1.1696  0.4588
 8010TIP3    H245446   0.147   2.897  16.448  0.0484  0.9645  2.5179
 8011TIP3   OH245447   5.679   4.469   2.711 -0.1999 -0.1473  0.6132
 8011TIP3    H145448   5.666   4.463   2.806  0.3729 -2.2001  0.5716
 8011TIP3    H245449   5.665   4.562   2.692 -1.3535  0.1157  2.5464
 8012TIP3   OH245450   2.214   5.343  12.685 -0.0994 -0.3513  0.6033
 8012TIP3    H145451   2.197   5.336  12.779  3.2580  0.0272  1.3335
 8012TIP3    H245452   2.254   5.430  12.675 -0.9013 -0.1884 -1.2503
 8013TIP3   OH245453   5.835   5.103  14.041 -0.1647 -0.5369 -0.2458
 8013TIP3    H145454   5.798   5.096  14.128  2.4110 -0.4263  0.9100
 8013TIP3    H245455   5.816   5.019  13.999 -1.0027 -0.7655  0.5829
 8014TIP3   OH245456   4.488   0.185  14.475 -0.2965  0.1261 -0.1955
 8014TIP3    H145457   4.419   0.184  14.408  1.0468  1.9374 -1.6605
 8014TIP3    H245458   4.441   0.206  14.556 -1.4894  1.5862 -1.2168
 8015TIP3   OH245459   0.998   0.755   4.156  0.2429 -0.0944 -0.7303
 8015TIP3    H145460   0.993   0.805   4.237  0.3635  1.6770 -1.7894
 8015TIP3    H245461   1.092   0.750   4.137  0.1726  0.2464 -1.1965
 8016TIP3   OH245462   3.391   4.975   1.878 -0.0342 -0.4021 -0.1548
 8016TIP3    H145463   3.453   4.952   1.948  0.4584  3.1061  0.6793
 8016TIP3    H245464   3.305   4.966   1.918 -0.0712 -3.8309 -0.8603
 8017TIP3   OH245465   0.550   1.908   4.747 -0.4719 -0.3409  0.4200
 8017TIP3    H145466   0.525   1.986   4.796  0.8858  0.2736  0.1345
 8017TIP3    H245467   0.605   1.857   4.807 -0.3798 -0.5075  0.1957
 8018TIP3   OH245468   0.069   2.587  15.767 -0.6533 -0.1650 -0.4284
 8018TIP3    H145469   0.089   2.663  15.711  1.5267 -1.6904 -1.7794
 8018TIP3    H245470   0.131   2.592  15.839 -0.7979 -0.4321 -0.2831
 8019TIP3   OH245471   5.832   5.410  16.143  0.4073  0.7887 -0.6735
 8019TIP3    H145472   5.876   5.446  16.220  1.1134 -0.1021 -0.6559
 8019TIP3    H245473   5.897   5.351  16.103 -0.4479  0.1614 -1.1534
 8020TIP3   OH245474   2.468   1.832   5.209 -0.3537  0.0293  0.2416
 8020TIP3    H145475   2.526   1.841   5.133 -0.5776 -2.3369 -0.2336
 8020TIP3    H245476   2.515   1.774   5.268 -0.0182  2.1366  2.1242
 8021TIP3   OH245477   3.302   6.661  14.722 -0.0634  0.0994 -0.0053
 8021TIP3    H145478   3.210   6.683  14.735 -0.1261 -0.2428  0.1396
 8021TIP3    H245479   3.301   6.587  14.661  0.1633  0.7686 -0.8312
 8022TIP3   OH245480   2.481   6.087   1.542 -0.1822  0.0793  0.4610
 8022TIP3    H145481   2.563   6.050   1.511  0.2034 -0.5199  2.1352
 8022TIP3    H245482   2.418   6.016   1.534 -0.0447 -0.1281  1.1798
 8023TIP3   OH245483   1.358   1.988  11.994 -0.6574  0.0487  0.0819
 8023TIP3    H145484   1.451   2.010  11.998 -0.5930 -0.1646 -0.2803
 8023TIP3    H245485   1.326   2.005  12.083 -0.4210  0.7697  0.0322
 8024TIP3   OH245486   1.246   3.898  13.618 -0.1583 -0.0077 -0.0606
 8024TIP3    H145487   1.200   3.980  13.636 -0.8723 -0.9746  2.7829
 8024TIP3    H245488   1.336   3.914  13.648  0.0811  0.2291 -0.9070
 8025TIP3   OH245489   4.611   3.113  11.255 -0.2325  0.1195  0.1959
 8025TIP3    H145490   4.614   3.081  11.164 -1.2518 -0.3131  0.3046
 8025TIP3    H245491   4.548   3.185  11.252  1.3782  1.5425  0.1314
 8026TIP3   OH245492   6.423   3.536  10.941  0.1035  0.8316 -0.1275
 8026TIP3    H145493   6.498   3.583  10.979  0.4854 -1.5258  2.1518
 8026TIP3    H245494   6.457   3.500  10.859  1.1319  0.7296  0.3327
 8027TIP3   OH245495   3.615   6.643  13.309 -0.1584  0.6635 -0.2928
 8027TIP3    H145496   3.637   6.731  13.276 -0.1757  0.4947 -0.7565
 8027TIP3    H245497   3.699   6.605  13.334 -0.4004  1.7810  2.3534
 8028TIP3   OH245498   0.409   4.048  16.531  0.0702  0.4470  0.2603
 8028TIP3    H145499   0.478   3.981  16.529  0.3681  0.7522 -2.7221
 8028TIP3    H245500   0.454   4.130  16.510 -0.8794  0.9532  0.1712
 8029TIP3   OH245501   0.665   1.024   1.336 -0.1991 -0.7310  0.5301
 8029TIP3    H145502   0.705   1.112   1.335 -0.8080 -0.4486  1.3135
 8029TIP3    H245503   0.723   0.972   1.279 -0.4042  0.4228 -0.7751
 8030TIP3   OH245504   0.760   1.225  17.040  0.5388 -0.6420  0.6988
 8030TIP3    H145505   0.760   1.321  17.035 -0.7946 -0.4178  4.0178
 8030TIP3    H245506   0.843   1.203  17.082  0.5767 -0.9430  0.4726
 8031TIP3   OH245507   1.237   2.234  11.912  0.0034  0.4636 -0.0527
 8031TIP3    H145508   1.155   2.198  11.880  0.2171  0.9066 -1.0985
 8031TIP3    H245509   1.297   2.159  11.912  0.1899  0.6049 -1.3412
 8032TIP3   OH245510   0.889   6.570   0.564 -0.1111  0.2435  1.4924
 8032TIP3    H145511   0.972   6.618   0.569  0.0492  0.5886 -2.8963
 8032TIP3    H245512   0.826   6.635   0.534 -1.4036 -0.6902  2.1381
 8033TIP3   OH245513   5.984   4.932  11.482 -0.4087  0.3857  0.3587
 8033TIP3    H145514   6.056   4.906  11.539  0.6606  1.3776 -0.5188
 8033TIP3    H245515   6.018   5.005  11.431 -1.5768 -0.0310 -1.0633
 8034TIP3   OH245516   5.309   2.745  17.062  0.2447 -0.1261  0.3285
 8034TIP3    H145517   5.400   2.716  17.061  0.4693  0.5663 -1.2500
 8034TIP3    H245518   5.259   2.667  17.036  0.7472  0.5278 -2.7654
 8035TIP3   OH245519   0.958   5.154   5.716 -0.2359  0.0966 -0.5771
 8035TIP3    H145520   0.990   5.138   5.805 -0.4297 -1.5037 -0.7877
 8035TIP3    H245521   0.913   5.239   5.722  2.1097  1.3390  0.2077
 8036TIP3   OH245522   3.808   0.629  15.367 -0.0518  0.1296  0.1706
 8036TIP3    H145523   3.812   0.600  15.276  2.0936  2.2795 -0.4932
 8036TIP3    H245524   3.738   0.694  15.369 -1.7086 -1.6146  0.6309
 8037TIP3   OH245525   1.067   2.041   1.914 -0.1338  0.0106  0.3968
 8037TIP3    H145526   0.979   2.004   1.904  0.0983  0.1068 -2.4451
 8037TIP3    H245527   1.123   1.965   1.929 -0.3258 -0.3352 -0.6040
 8038TIP3   OH245528   3.901   6.287   5.583 -0.3569  0.0503 -0.5293
 8038TIP3    H145529   3.935   6.263   5.669 -1.5516  0.6424  0.1272
 8038TIP3    H245530   3.945   6.370   5.562 -1.3416  0.7961  0.2989
 8039TIP3   OH245531   5.321   4.081  15.590 -0.2273 -0.3020 -0.2421
 8039TIP3    H145532   5.311   4.032  15.508  0.0263 -0.3667 -0.2335
 8039TIP3    H245533   5.284   4.024  15.657 -0.2015 -0.3585 -0.2753
 8040TIP3   OH245534   4.346   3.397   5.989  0.3795 -0.3957 -0.1136
 8040TIP3    H145535   4.253   3.419   5.983  0.7972  1.9147  1.1832
 8040TIP3    H245536   4.350   3.323   6.049 -0.5130  0.5587  1.1657
 8041TIP3   OH245537   6.142   5.200  11.417 -0.2010 -0.0245  0.0336
 8041TIP3    H145538   6.153   5.128  11.355 -1.6075  0.2523 -0.5537
 8041TIP3    H245539   6.221   5.198  11.470  1.0650 -0.2105 -1.8370
 8042TIP3   OH245540   5.204   3.527   0.400  0.3456 -1.0019 -0.0407
 8042TIP3    H145541   5.131   3.588   0.409  1.9244  1.0186 -0.6120
 8042TIP3    H245542   5.198   3.495   0.310 -0.7207 -2.0038  0.3842
 8043TIP3   OH245543   0.958   6.406  13.468 -0.5764 -0.0738 -0.7289
 8043TIP3    H145544   0.881   6.408  13.524  0.8202  1.4710  1.2384
 8043TIP3    H245545   0.981   6.498  13.454  0.9389 -0.4977 -1.2260
 8044TIP3   OH245546   0.378   6.279  11.199 -0.1286 -0.1805 -0.6088
 8044TIP3    H145547   0.470   6.259  11.218 -0.6690 -0.3532  1.9898
 8044TIP3    H245548   0.364   6.367  11.234 -1.0548 -0.3090 -0.6369
 8045TIP3   OH245549   0.461   3.772   1.020  0.2950  0.0853  0.3119
 8045TIP3    H145550   0.541   3.746   0.974  0.6804  1.2787  0.3027
 8045TIP3    H245551   0.458   3.715   1.097 -0.1109 -1.6156 -0.9189
 8046TIP3   OH245552   5.859   5.357  13.222 -0.1080 -0.4664  0.3206
 8046TIP3    H145553   5.952   5.369  13.203  0.1347  0.2596  1.8461
 8046TIP3    H245554   5.857   5.285  13.286 -0.7148 -1.4352 -0.7764
 8047TIP3   OH245555   1.757   1.129   4.077 -0.6164  0.1761  0.0024
 8047TIP3    H145556   1.788   1.085   4.156 -0.4226 -0.4725 -0.4335
 8047TIP3    H245557   1.712   1.061   4.028  0.5994  0.2097 -1.1770
 8048TIP3   OH245558   6.040   2.094  15.967  0.0980 -0.4319  0.1342
 8048TIP3    H145559   5.983   2.101  15.890  0.2216 -1.2851 -0.0354
 8048TIP3    H245560   6.126   2.120  15.935  0.2224 -1.1287 -0.1046
 8049TIP3   OH245561   5.563   2.092  12.180 -0.0472  0.4160 -0.8685
 8049TIP3    H145562   5.657   2.090  12.197 -0.2705 -1.8020  0.4489
 8049TIP3    H245563   5.551   2.042  12.099 -0.2112 -0.9189 -0.0541
 8050TIP3   OH245564   1.974   4.077   3.839  0.1938 -0.6969  0.4768
 8050TIP3    H145565   2.002   4.015   3.907 -0.3916 -1.4750  0.0071
 8050TIP3    H245566   1.972   4.025   3.759 -1.2575 -0.3053  0.2528
 8051TIP3   OH245567   3.216   1.736   3.589 -0.0872 -0.5335 -0.5024
 8051TIP3    H145568   3.211   1.748   3.684  1.2543 -0.3173 -0.4481
 8051TIP3    H245569   3.213   1.641   3.577 -2.3115 -0.4937 -0.3858
 8052TIP3   OH245570   2.364   4.396   3.986  0.8732 -0.2991 -0.3062
 8052TIP3    H145571   2.294   4.355   3.935  1.1263 -0.0803 -0.8297
 8052TIP3    H245572   2.445   4.362   3.948  1.0577 -0.4634  0.2257
 8053TIP3   OH245573   1.480   1.524  12.658 -0.0327  0.4742 -0.2608
 8053TIP3    H145574   1.408   1.483  12.706  0.2905  1.9570  1.5434
 8053TIP3    H245575   1.553   1.462  12.667  0.1833  0.9494  1.6801
 8054TIP3   OH245576   6.670   1.815   2.515  0.2324 -0.1566  0.0393
 8054TIP3    H145577   6.702   1.753   2.449  0.0349 -0.2477  0.0260
 8054TIP3    H245578   6.584   1.779   2.541 -0.5659  0.9268 -1.0650
 8055TIP3   OH245579   1.289   1.698  11.908 -0.1042 -0.1378  0.1609
 8055TIP3    H145580   1.254   1.787  11.904 -0.6048 -0.3760 -0.9067
 8055TIP3    H245581   1.304   1.683  12.001 -1.0632  0.6613  0.4620
 8056TIP3   OH245582   2.789   3.695  13.510  0.2395 -0.1263 -0.8076
 8056TIP3    H145583   2.800   3.790  13.515 -1.5444  0.0269  0.8518
 8056TIP3    H245584   2.852   3.660  13.573 -0.6380  0.1114  0.2285
 8057TIP3   OH245585   4.276   1.275  11.195  0.1934  0.2851  0.0959
 8057TIP3    H145586   4.185   1.285  11.168  0.1773 -1.1352 -0.4018
 8057TIP3    H245587   4.276   1.199  11.253  1.0933  0.1654 -0.0493
 8058TIP3   OH245588   0.520   0.847   0.327 -0.3852  0.5757  0.7433
 8058TIP3    H145589   0.533   0.887   0.413 -0.1192  2.1542 -0.0108
 8058TIP3    H245590   0.535   0.918   0.265  1.4535 -1.0212 -0.6947
 8059TIP3   OH245591   2.536   0.113  14.436 -0.3530  0.8940  0.3224
 8059TIP3    H145592   2.604   0.046  14.427 -1.2514  0.0058  0.0038
 8059TIP3    H245593   2.501   0.099  14.525 -1.6281 -0.1247 -0.3216
 8060TIP3   OH245594   4.525   2.459  16.889 -0.3351 -0.0583 -0.2487
 8060TIP3    H145595   4.468   2.497  16.956  0.4877  0.9618 -0.1165
 8060TIP3    H245596   4.515   2.364  16.901 -1.1498  0.1141  0.5037
 8061TIP3   OH245597   2.879   4.091  16.556 -0.6594 -0.6225 -0.3773
 8061TIP3    H145598   2.875   4.080  16.651 -0.9299  0.9665 -0.1873
 8061TIP3    H245599   2.847   4.181  16.541 -1.9538 -1.3373 -2.0738
 8062TIP3   OH245600   4.612   4.817  11.881 -0.4755  0.1718 -0.2652
 8062TIP3    H145601   4.519   4.830  11.858 -0.6100 -0.4478 -0.0700
 8062TIP3    H245602   4.645   4.906  11.894 -0.4419  0.5518 -2.6834
 8063TIP3   OH245603   5.747   3.411  12.493  0.7311  0.2430  0.4527
 8063TIP3    H145604   5.750   3.494  12.542  1.0433 -0.6228  1.9477
 8063TIP3    H245605   5.806   3.353  12.542 -0.8481 -1.4039  0.4563
 8064TIP3   OH245606   2.297   6.222   3.900  0.0474 -0.0043  0.1957
 8064TIP3    H145607   2.230   6.282   3.870  0.8569  0.7197 -0.2032
 8064TIP3    H245608   2.249   6.149   3.939 -0.9944 -0.2062 -1.4277
 8065TIP3   OH245609   6.500   4.008   5.168 -0.7902  0.6676  0.4945
 8065TIP3    H145610   6.449   3.998   5.087 -0.2427 -0.2622  0.2659
 8065TIP3    H245611   6.448   3.962   5.234 -0.9476  0.9386  0.5660
 8066TIP3   OH245612   0.535   0.747   4.725  0.0057  0.4264 -0.4490
 8066TIP3    H145613   0.462   0.790   4.770  0.6844 -0.1349  1.2007
 8066TIP3    H245614   0.493   0.703   4.650 -1.0948  1.5434 -0.5092
 8067TIP3   OH245615   6.742   6.280   3.603  0.0638  0.1132  0.0766
 8067TIP3    H145616   6.786   6.330   3.535  0.1825  0.0383  0.0984
 8067TIP3    H245617   6.779   6.192   3.597  0.6083  0.2918  0.7171
 8068TIP3   OH245618   5.830   1.485  13.986 -0.4428  0.6727  0.1252
 8068TIP3    H145619   5.810   1.391  13.982  0.6637  0.3516  1.6169
 8068TIP3    H245620   5.754   1.523  14.029 -0.2333  0.2353  0.8976
 8069TIP3   OH245621   6.279   5.394  13.363 -0.2572 -0.0466  0.5285
 8069TIP3    H145622   6.324   5.384  13.447 -0.9360 -0.3003  0.8647
 8069TIP3    H245623   6.349   5.419  13.301  0.6398 -1.9681  0.7203
 8070TIP3   OH245624   6.181   5.183   4.348  0.1102 -0.3915 -0.4925
 8070TIP3    H145625   6.138   5.261   4.384 -1.0536 -1.8210  1.2507
 8070TIP3    H245626   6.235   5.217   4.276 -0.6784  1.9700 -0.0073
 8071TIP3   OH245627   6.014   0.311   0.952  0.0422 -0.5590  0.3508
 8071TIP3    H145628   6.040   0.224   0.981 -0.4780 -1.8676 -2.8992
 8071TIP3    H245629   5.922   0.301   0.926 -0.2667  1.1697  0.7445
 8072TIP3   OH245630   0.498   2.142   5.312 -0.1407 -0.1074 -0.0703
 8072TIP3    H145631   0.498   2.156   5.217 -1.8948  0.7195  0.0445
 8072TIP3    H245632   0.465   2.223   5.349  0.4657 -0.4501  1.2574
 8073TIP3   OH245633   5.759   4.599   4.829 -0.2942  0.1751 -0.0556
 8073TIP3    H145634   5.684   4.581   4.772 -0.4086  1.5815 -0.3667
 8073TIP3    H245635   5.760   4.694   4.838 -0.3307 -0.0363  2.3853
 8074TIP3   OH245636   4.561   4.471   1.702  0.7016  0.4934 -0.0773
 8074TIP3    H145637   4.613   4.538   1.748 -0.8140  1.0191  0.9011
 8074TIP3    H245638   4.593   4.473   1.612  3.5539 -0.3550  0.8578
 8075TIP3   OH245639   3.316   1.798   5.809  0.0816  0.1817  0.2435
 8075TIP3    H145640   3.287   1.742   5.737  0.8281 -0.2299  0.2606
 8075TIP3    H245641   3.396   1.756   5.842 -0.7563 -0.1525  1.9086
 8076TIP3   OH245642   5.170   2.005  11.673 -0.0137 -0.1604  0.3280
 8076TIP3    H145643   5.143   2.081  11.724 -1.5629 -1.7594  1.9707
 8076TIP3    H245644   5.232   1.958  11.729  0.3664 -0.5188 -0.3732
 8077TIP3   OH245645   4.400   6.490   0.090  0.4951 -0.5382  0.0098
 8077TIP3    H145646   4.462   6.546   0.045  1.0879 -0.4297  0.9483
 8077TIP3    H245647   4.452   6.415   0.119 -0.0527 -1.0147 -0.2287
 8078TIP3   OH245648   6.188   0.835  12.735  0.4099 -0.1762 -0.6585
 8078TIP3    H145649   6.244   0.879  12.671 -1.8127  0.1701 -2.4373
 8078TIP3    H245650   6.161   0.754  12.692  0.3363 -0.8157  0.5641
 8079TIP3   OH245651   3.395   5.616   5.430  0.2078 -0.3630  0.2398
 8079TIP3    H145652   3.437   5.569   5.502  0.0652 -2.2337 -0.8642
 8079TIP3    H245653   3.325   5.667   5.471  1.0171 -0.3271  1.5864
 8080TIP3   OH245654   3.462   5.675   4.124 -0.0729  0.2151  0.5318
 8080TIP3    H145655   3.486   5.737   4.193 -0.5260  0.7780  0.2009
 8080TIP3    H245656   3.460   5.590   4.166 -0.3095  0.5522  1.2035
 8081TIP3   OH245657   1.555   6.403  11.077  0.1047 -0.3971  0.0143
 8081TIP3    H145658   1.539   6.336  11.011 -0.0158 -0.4677  0.1127
 8081TIP3    H245659   1.542   6.357  11.160 -2.8280  0.4190  0.0855
 8082TIP3   OH245660   1.141   2.385   3.798  0.4512  0.3582 -0.0669
 8082TIP3    H145661   1.164   2.451   3.863 -1.4253  2.1884 -1.1910
 8082TIP3    H245662   1.099   2.315   3.848  0.0880  1.2016  0.8205
 8083TIP3   OH245663   4.708   5.216  11.344 -0.3171  0.0424  0.1776
 8083TIP3    H145664   4.769   5.277  11.386 -1.4643  0.8191  0.7548
 8083TIP3    H245665   4.727   5.222  11.251  0.4764  0.2774  0.3519
 8084TIP3   OH245666   0.672   4.576  11.176  0.3247  0.6737 -0.2090
 8084TIP3    H145667   0.697   4.505  11.117 -0.1574  0.2225  0.1237
 8084TIP3    H245668   0.604   4.538  11.231 -1.7694  2.1252 -1.6948
 8085TIP3   OH245669   0.124   6.549   5.714 -0.1829 -0.1300  0.2046
 8085TIP3    H145670   0.197   6.508   5.760 -0.6904 -0.0618  1.0724
 8085TIP3    H245671   0.152   6.639   5.699 -0.6030  0.2506  1.6801
 8086TIP3   OH245672   4.138   0.892   2.030  0.2918 -1.0950 -0.2613
 8086TIP3    H145673   4.141   0.837   2.108  1.5613  0.6923  0.9623
 8086TIP3    H245674   4.219   0.870   1.983  0.3961 -0.8705 -0.1848
 8087TIP3   OH245675   5.301   2.459  12.295  0.4290  0.1883  0.4984
 8087TIP3    H145676   5.305   2.489  12.386 -0.7609  0.5955  0.4319
 8087TIP3    H245677   5.274   2.536  12.246  1.1545 -0.0109 -0.2202
 8088TIP3   OH245678   6.534   4.955   4.298 -0.5656 -0.1506  0.3506
 8088TIP3    H145679   6.507   5.024   4.360 -1.1223  0.7599 -0.8882
 8088TIP3    H245680   6.462   4.951   4.235  0.8923  0.3022 -1.3630
 8089TIP3   OH245681   1.061   1.765  16.699  0.3777 -0.1479 -0.3310
 8089TIP3    H145682   1.132   1.770  16.636  0.7630  1.6273  0.2306
 8089TIP3    H245683   1.092   1.812  16.775 -0.2940 -1.8252  1.0114
 8090TIP3   OH245684   1.516   3.624   0.331  0.2684  0.6754 -0.4109
 8090TIP3    H145685   1.430   3.665   0.335 -0.1059 -0.1103 -0.3157
 8090TIP3    H245686   1.514   3.558   0.400  0.9754  0.7092 -0.3548
 8091TIP3   OH245687   0.250   5.705   3.407 -0.2280 -0.6876  0.6534
 8091TIP3    H145688   0.253   5.653   3.327 -0.7066  1.3183 -0.7164
 8091TIP3    H245689   0.341   5.725   3.426 -0.3130  2.4051 -1.8526
 8092TIP3   OH245690   2.632   2.882   3.098 -0.0395 -0.2890  0.0852
 8092TIP3    H145691   2.660   2.892   3.189  0.3384 -1.7264  0.1385
 8092TIP3    H245692   2.702   2.922   3.047  0.7791 -1.3704  0.3448
 8093TIP3   OH245693   4.195   2.917  16.254 -0.4703  0.3577 -0.4815
 8093TIP3    H145694   4.253   2.869  16.194 -0.8346  1.1522 -1.4766
 8093TIP3    H245695   4.216   3.009  16.239  1.8703  0.4681  3.0855
 8094TIP3   OH245696   3.985   5.911  14.049  0.2215  0.4813 -0.3470
 8094TIP3    H145697   4.052   5.846  14.029 -1.2239 -1.3626  0.6174
 8094TIP3    H245698   3.956   5.943  13.963 -0.0883 -1.2557 -0.9110
 8095TIP3   OH245699   0.255   0.685  12.971 -0.1640 -0.2678  0.1098
 8095TIP3    H145700   0.302   0.734  12.905 -1.8022 -0.2251 -1.0576
 8095TIP3    H245701   0.187   0.744  13.002 -1.7921 -1.5562 -0.8970
 8096TIP3   OH245702   5.045   6.175  11.547 -0.1131 -0.4850  0.0803
 8096TIP3    H145703   5.123   6.176  11.602 -1.4388 -0.9718  2.0356
 8096TIP3    H245704   5.070   6.226  11.470  2.9408 -2.7999 -0.5555
 8097TIP3   OH245705   4.825   1.974  16.521 -0.8059 -0.1346 -0.3853
 8097TIP3    H145706   4.884   1.927  16.580 -1.2926 -0.9440 -0.5365
 8097TIP3    H245707   4.783   2.040  16.576 -2.2755 -1.7741  0.5053
 8098TIP3   OH245708   3.946   1.626   1.585 -0.2123  0.3014 -0.3472
 8098TIP3    H145709   4.029   1.673   1.574 -0.0544  0.6379  2.0692
 8098TIP3    H245710   3.961   1.541   1.544  0.6346  1.1213 -1.7527
 8099TIP3   OH245711   6.536   2.317   3.253  0.3325 -0.1986 -0.2730
 8099TIP3    H145712   6.576   2.319   3.166  0.7682 -0.0503 -0.0710
 8099TIP3    H245713   6.569   2.237   3.293 -1.5199 -1.3639 -1.0105
 8100TIP3   OH245714   3.157   1.999   3.921 -0.3182  0.6403 -0.2498
 8100TIP3    H145715   3.164   2.007   4.016 -0.1640  0.1351 -0.2212
 8100TIP3    H245716   3.238   2.038   3.888 -0.0994  0.2738 -0.1508
 8101TIP3   OH245717   0.807   2.345   1.071  0.3188 -0.1828  0.0618
 8101TIP3    H145718   0.848   2.287   1.135 -2.4452 -2.5338 -0.1755
 8101TIP3    H245719   0.754   2.286   1.016 -0.8895  2.3180 -1.5561
 8102TIP3   OH245720   3.941   0.948  16.876 -0.3453 -0.1665 -0.0899
 8102TIP3    H145721   3.937   0.970  16.783  0.6989  0.0738 -0.0771
 8102TIP3    H245722   3.857   0.978  16.911  0.4519  2.5344 -0.3492
 8103TIP3   OH245723   4.167   1.935   2.386  0.0767  0.0164 -0.0242
 8103TIP3    H145724   4.091   1.979   2.348  0.6382  0.0976 -1.0680
 8103TIP3    H245725   4.230   1.929   2.314  1.6861  1.3842  1.2177
 8104TIP3   OH245726   5.778   0.817  12.913 -0.5105  0.0760 -0.0703
 8104TIP3    H145727   5.700   0.771  12.881 -0.8590  0.8036 -0.2840
 8104TIP3    H245728   5.792   0.887  12.850  1.2617 -0.9929 -0.9189
 8105TIP3   OH245729   0.126   1.602  13.451 -0.4169  0.2148  0.2419
 8105TIP3    H145730   0.201   1.586  13.509 -0.2096 -0.6081 -0.2493
 8105TIP3    H245731   0.116   1.520  13.402 -1.8254  0.2162  0.5129
 8106TIP3   OH245732   2.762   0.538  12.947  0.0224  0.1578  0.2045
 8106TIP3    H145733   2.767   0.613  13.006 -0.0955  1.2723 -1.1795
 8106TIP3    H245734   2.715   0.570  12.871  1.5410 -0.8069 -1.1728
 8107TIP3   OH245735   5.789   4.391  15.464  0.3950 -0.3062  0.0810
 8107TIP3    H145736   5.834   4.415  15.545 -0.5660  0.9672  0.2498
 8107TIP3    H245737   5.859   4.357  15.408  1.2045 -0.4496  1.1460
 8108TIP3   OH245738   1.332   5.017  13.628 -0.3770 -0.2755 -0.2249
 8108TIP3    H145739   1.380   5.066  13.695 -1.3078  0.3002  0.0321
 8108TIP3    H245740   1.322   5.079  13.556  0.6268 -0.8968 -0.9130
 8109TIP3   OH245741   2.231   4.774   0.077  0.3070 -1.1009 -0.0077
 8109TIP3    H145742   2.193   4.830   0.009  0.1589 -0.7289  0.3804
 8109TIP3    H245743   2.186   4.799   0.157  0.9309 -1.0875  0.3474
 8110TIP3   OH245744   3.090   1.199   3.411 -0.8997 -0.6745  0.7878
 8110TIP3    H145745   3.118   1.138   3.479 -0.6350 -1.0846  0.3145
 8110TIP3    H245746   3.152   1.185   3.340 -1.4578 -0.5835  0.2812
 8111TIP3   OH245747   2.701   1.483   5.916  0.0920  0.0814  0.1183
 8111TIP3    H145748   2.735   1.538   5.987  0.2204  0.6299 -0.3632
 8111TIP3    H245749   2.647   1.418   5.961  1.2718 -0.4176  0.8260
 8112TIP3   OH245750   2.472   1.664   4.361 -0.1183  0.5099  0.3901
 8112TIP3    H145751   2.519   1.654   4.444 -0.8713  1.7279  0.9744
 8112TIP3    H245752   2.429   1.749   4.368  1.1969  1.3928 -1.9718
 8113TIP3   OH245753   1.996   1.276   4.612 -0.7901  0.0916 -0.6524
 8113TIP3    H145754   1.996   1.315   4.524 -0.3314 -0.2312 -0.7999
 8113TIP3    H245755   2.075   1.309   4.653  0.0372 -1.3215 -1.0727
 8114TIP3   OH245756   0.997   1.185  17.213 -0.0775  0.2300 -0.1394
 8114TIP3    H145757   0.970   1.096  17.191  0.4647  0.0324 -0.0130
 8114TIP3    H245758   0.971   1.197  17.304 -0.3898  0.2937 -0.2349
 8115TIP3   OH245759   2.950   6.403  13.388 -0.4299  0.0445  0.8708
 8115TIP3    H145760   2.954   6.310  13.367  1.0441  0.0800  0.9050
 8115TIP3    H245761   3.041   6.426  13.409 -0.6089  1.6911 -0.0644
 8116TIP3   OH245762   6.699   1.295  13.295 -0.2089 -0.2962 -0.5311
 8116TIP3    H145763   6.768   1.292  13.229  1.2078  0.6608  0.8438
 8116TIP3    H245764   6.700   1.207  13.334  1.2218  0.1113  0.4166
 8117TIP3   OH245765   6.320   5.401   6.263  0.6949  0.0947 -0.1167
 8117TIP3    H145766   6.379   5.327   6.252  0.0672 -0.4321 -0.0233
 8117TIP3    H245767   6.238   5.373   6.222  0.4184  0.6960  0.0079
 8118TIP3   OH245768   6.541   4.336  16.521 -0.7672 -0.1546 -0.1650
 8118TIP3    H145769   6.509   4.426  16.527 -0.3142 -0.0153  0.2140
 8118TIP3    H245770   6.466   4.282  16.545 -0.4028  0.2079  1.9378
 8119TIP3   OH245771   0.108   2.195  12.103 -0.0695  0.3141 -0.3059
 8119TIP3    H145772   0.013   2.203  12.106 -0.2251 -1.1644 -0.6894
 8119TIP3    H245773   0.128   2.123  12.164  0.7827  0.4797 -0.3727
 8120TIP3   OH245774   1.411   3.062   0.804  0.3611  0.2207  0.3433
 8120TIP3    H145775   1.481   3.096   0.749  1.1590  0.3969  1.4607
 8120TIP3    H245776   1.437   2.972   0.824 -0.0086  0.0998  0.2893
 8121TIP3   OH245777   0.058   3.253   0.539 -0.4072 -0.2990  0.3131
 8121TIP3    H145778   0.112   3.229   0.614  0.9775 -1.5542 -1.0582
 8121TIP3    H245779   0.115   3.308   0.485 -0.3848 -1.8422 -1.2730
 8122TIP3   OH245780   0.760   2.657   0.716  0.1938  0.3131 -0.7057
 8122TIP3    H145781   0.685   2.606   0.686 -0.0727 -0.3634  1.0678
 8122TIP3    H245782   0.736   2.687   0.804  2.1168 -0.1912  0.0252
 8123TIP3   OH245783   3.737   1.290   4.024  0.3946  0.3898  0.4622
 8123TIP3    H145784   3.786   1.292   4.106  1.5428 -0.6084 -0.1882
 8123TIP3    H245785   3.804   1.293   3.956 -0.5017  0.1306 -0.4454
 8124TIP3   OH245786   1.254   3.185  17.054 -0.0085 -0.2702 -0.4311
 8124TIP3    H145787   1.315   3.138  16.999  0.3672  1.0637 -1.1698
 8124TIP3    H245788   1.207   3.117  17.102  1.4530 -1.3294 -0.4851
 8125TIP3   OH245789   0.699   5.514   6.404 -0.4540  0.3294  0.2186
 8125TIP3    H145790   0.782   5.516   6.357  0.6539  1.2895  2.1709
 8125TIP3    H245791   0.707   5.439   6.463 -1.1992  0.1046  0.0401
 8126TIP3   OH245792   1.524   4.703   2.074  0.8408 -0.1419 -0.9922
 8126TIP3    H145793   1.451   4.752   2.111  2.0066  0.3815  0.7167
 8126TIP3    H245794   1.548   4.751   1.995 -0.0431  0.2450 -1.0237
 8127TIP3   OH245795   1.014   4.674   0.306  0.5421 -0.0300 -0.0117
 8127TIP3    H145796   0.985   4.603   0.248  0.1530 -0.6209  0.8868
 8127TIP3    H245797   0.986   4.754   0.262  2.1676 -0.3604 -1.7104
 8128TIP3   OH245798   5.747   2.065  14.824 -0.4048  0.3216 -0.0052
 8128TIP3    H145799   5.804   2.141  14.837  1.2114 -1.0833  1.3238
 8128TIP3    H245800   5.807   1.991  14.817 -1.9753 -0.8794 -1.0616
 8129TIP3   OH245801   0.895   6.457  16.741  0.5857  0.3100  0.3935
 8129TIP3    H145802   0.883   6.445  16.647  1.8632  1.3091  0.1021
 8129TIP3    H245803   0.931   6.374  16.772 -2.9476 -1.2320  0.5838
 8130TIP3   OH245804   6.100   1.106  11.481  0.2015 -0.1877 -0.3595
 8130TIP3    H145805   6.070   1.016  11.470 -0.9660  0.4746 -3.0993
 8130TIP3    H245806   6.022   1.154  11.508  0.6770  0.1346  0.4599
 8131TIP3   OH245807   3.721   0.410   5.685  0.4734 -0.0939  0.1041
 8131TIP3    H145808   3.702   0.467   5.610 -1.9287 -2.1610 -0.9347
 8131TIP3    H245809   3.708   0.467   5.761  0.2615  1.3247 -0.9669
 8132TIP3   OH245810   4.608   3.683   4.060  0.3069 -0.3384 -0.1984
 8132TIP3    H145811   4.640   3.746   4.125  0.9223 -1.4704  0.6114
 8132TIP3    H245812   4.609   3.732   3.978 -3.1347  1.9809  1.0343
 8133TIP3   OH245813   3.824   2.811  11.608 -0.4492 -0.1024  0.5095
 8133TIP3    H145814   3.802   2.896  11.645  1.1994  0.7576 -0.4530
 8133TIP3    H245815   3.866   2.764  11.679 -0.3568  0.2976  0.7191
 8134TIP3   OH245816   1.881   0.381  15.550 -0.2987  0.3306  0.2240
 8134TIP3    H145817   1.933   0.441  15.496 -1.5814 -0.2387 -1.6960
 8134TIP3    H245818   1.839   0.323  15.487 -2.3774  0.0612  1.8225
 8135TIP3   OH245819   2.742   2.157   5.812 -0.7176  0.0138 -0.6557
 8135TIP3    H145820   2.833   2.127   5.807 -1.1535 -1.2085 -1.5858
 8135TIP3    H245821   2.722   2.188   5.724 -0.5596  2.2586  0.0839
 8136TIP3   OH245822   3.962   0.523  15.713  0.2766 -0.0263  0.1678
 8136TIP3    H145823   3.871   0.552  15.710  0.6264  0.9659 -2.1571
 8136TIP3    H245824   4.004   0.571  15.642  2.2121 -1.8155  0.0654
 8137TIP3   OH245825   0.842   2.912  15.567 -0.1913 -0.1313 -0.4669
 8137TIP3    H145826   0.813   2.822  15.585  2.0696 -0.5958  1.0001
 8137TIP3    H245827   0.794   2.965  15.631 -1.8631 -0.2244 -1.6236
 8138TIP3   OH245828   4.232   4.808  13.330 -0.7468  0.6247  0.0509
 8138TIP3    H145829   4.306   4.861  13.359  0.3094  0.3313 -2.0218
 8138TIP3    H245830   4.236   4.812  13.235 -2.5394 -0.6048 -0.0943
 8139TIP3   OH245831   4.130   4.573  11.483  0.0837  0.7436 -0.4134
 8139TIP3    H145832   4.104   4.611  11.400 -0.7415 -0.1686 -0.5877
 8139TIP3    H245833   4.145   4.480  11.463  0.0934  0.5659  0.4043
 8140TIP3   OH245834   5.352   4.290   1.390  0.0908  0.0975  0.3177
 8140TIP3    H145835   5.404   4.370   1.400 -1.5800  1.6245 -2.5249
 8140TIP3    H245836   5.416   4.220   1.382  1.7267  1.8218 -2.1514
 8141TIP3   OH245837   1.173   3.363   1.340 -0.2191 -0.2554  0.5952
 8141TIP3    H145838   1.201   3.408   1.260  0.0943 -0.5875  0.5138
 8141TIP3    H245839   1.082   3.339   1.323  0.1942 -1.3443 -0.1215
 8142TIP3   OH245840   3.139   1.593  15.836  0.0306  0.0031  0.0498
 8142TIP3    H145841   3.179   1.641  15.909  0.3946 -0.9823  0.5031
 8142TIP3    H245842   3.063   1.550  15.874  0.7959 -1.3364  0.0896
 8143TIP3   OH245843   4.719   1.435  12.468  0.4165 -0.8321  0.9653
 8143TIP3    H145844   4.674   1.460  12.549  0.1561  0.6140  0.3819
 8143TIP3    H245845   4.753   1.347  12.486  0.1781 -0.6113  2.5713
 8144TIP3   OH245846   0.379   4.163   3.945 -0.4776 -0.4600 -0.4311
 8144TIP3    H145847   0.314   4.229   3.918  0.3803  0.4840 -0.1818
 8144TIP3    H245848   0.456   4.181   3.891  0.0013 -0.8382  0.1172
 8145TIP3   OH245849   5.889   3.988   2.011  0.5803  0.2104 -0.5894
 8145TIP3    H145850   5.868   3.979   1.918  0.1785 -1.0659 -0.3769
 8145TIP3    H245851   5.848   3.913   2.052  2.6790 -0.4688  0.3160
 8146TIP3   OH245852   2.686   3.932  11.859 -0.5541  0.6884  0.4968
 8146TIP3    H145853   2.694   4.022  11.828  0.1008 -0.0859 -1.6589
 8146TIP3    H245854   2.594   3.925  11.887 -1.3654  1.2609 -1.8853
 8147TIP3   OH245855   0.580   1.829   5.703  0.1955 -0.3820  0.6112
 8147TIP3    H145856   0.669   1.806   5.729  1.0880  2.1717  0.0438
 8147TIP3    H245857   0.592   1.878   5.621 -1.7460 -0.1038  0.4852
 8148TIP3   OH245858   1.313   1.506  16.708 -0.0499 -0.5976 -0.4080
 8148TIP3    H145859   1.306   1.453  16.787  0.0225  0.8891  0.6167
 8148TIP3    H245860   1.228   1.496  16.665 -0.6539 -0.2016  0.6641
 8149TIP3   OH245861   3.233   5.534   0.964  0.0779 -0.4111 -0.0529
 8149TIP3    H145862   3.253   5.561   0.874 -1.6610  0.0964 -0.3030
 8149TIP3    H245863   3.149   5.490   0.958 -0.3027  0.0814  1.4032
 8150TIP3   OH245864   1.567   2.142  11.388  0.3412 -0.4803  0.3677
 8150TIP3    H145865   1.588   2.105  11.302  2.1754 -0.9863  1.0052
 8150TIP3    H245866   1.553   2.065  11.443  1.0706 -0.1838  0.9674
 8151TIP3   OH245867   0.607   5.669   1.238  0.1005 -0.0582 -0.4631
 8151TIP3    H145868   0.679   5.628   1.286  1.3316  1.1900 -1.2109
 8151TIP3    H245869   0.643   5.686   1.151 -1.2800  0.0784 -1.0146
 8152TIP3   OH245870   0.530   0.243  15.209  0.1976 -0.0679 -0.4653
 8152TIP3    H145871   0.593   0.293  15.157  1.1063 -0.5054  0.2209
 8152TIP3    H245872   0.572   0.231  15.294 -0.1786 -1.6832 -0.4993
 8153TIP3   OH245873   2.282   2.386   3.337  0.1245 -0.6246 -0.3071
 8153TIP3    H145874   2.302   2.350   3.250 -0.1650 -2.0657  0.2201
 8153TIP3    H245875   2.302   2.315   3.398 -2.0269 -0.4726  0.6149
 8154TIP3   OH245876   2.493   2.020  13.156  0.3176  0.1739 -0.0113
 8154TIP3    H145877   2.518   1.993  13.244 -0.6372 -1.5386 -0.2622
 8154TIP3    H245878   2.535   1.957  13.098 -0.0671  0.5743 -0.7328
 8155TIP3   OH245879   3.403   1.049   2.850 -0.6261 -0.0407  0.0016
 8155TIP3    H145880   3.443   1.071   2.934  1.6172  1.7573 -1.4769
 8155TIP3    H245881   3.336   1.117   2.838 -0.8176 -0.1857  0.2398
 8156TIP3   OH245882   3.631   6.187   2.156 -0.0653  0.1316  0.0742
 8156TIP3    H145883   3.543   6.214   2.180 -0.4856 -1.7040  0.7189
 8156TIP3    H245884   3.618   6.113   2.097  1.0385  0.9921 -1.2938
 8157TIP3   OH245885   3.411   3.677   6.320  0.2251  0.2445  0.0378
 8157TIP3    H145886   3.429   3.597   6.270 -1.3548  0.8803 -1.6447
 8157TIP3    H245887   3.316   3.677   6.331  0.4148  0.8490  1.8489
 8158TIP3   OH245888   1.430   6.280   2.057 -0.0934  0.0872  0.6058
 8158TIP3    H145889   1.505   6.226   2.081  0.3636  0.1003 -0.7621
 8158TIP3    H245890   1.411   6.330   2.136  1.3181  0.0637  0.9775
 8159TIP3   OH245891   5.906   1.566   3.249  0.3251  0.1561  0.1656
 8159TIP3    H145892   5.993   1.536   3.278  0.0485 -1.0126 -0.2120
 8159TIP3    H245893   5.867   1.602   3.329  1.5917  1.7432  0.0926
 8160TIP3   OH245894   2.095   5.505  12.994 -0.0433 -0.3515  0.0477
 8160TIP3    H145895   2.100   5.575  12.928 -0.1335 -0.6334 -0.2603
 8160TIP3    H245896   2.157   5.532  13.062 -2.3289  1.6061  1.4502
 8161TIP3   OH245897   0.068   6.197   4.648  0.2263  0.1661  0.3051
 8161TIP3    H145898   0.001   6.218   4.713  0.1773 -1.7299  0.9042
 8161TIP3    H245899   0.133   6.146   4.696  0.2947 -1.1000 -1.0771
 8162TIP3   OH245900   5.092   4.148   2.909 -0.3046  0.5267 -0.0247
 8162TIP3    H145901   5.092   4.167   3.003  0.5696 -0.1552  0.1204
 8162TIP3    H245902   5.173   4.099   2.895  0.4564  2.1452 -1.4408
 8163TIP3   OH245903   3.794   3.590  10.771 -0.1358 -0.0066 -0.1894
 8163TIP3    H145904   3.820   3.594  10.679  0.0228 -1.8920 -0.2478
 8163TIP3    H245905   3.719   3.530  10.772  0.5064 -0.8257  1.0172
 8164TIP3   OH245906   5.802   2.407  11.957  0.0326 -0.5438 -0.0204
 8164TIP3    H145907   5.844   2.418  12.042  0.4079 -0.6372 -0.1910
 8164TIP3    H245908   5.851   2.336  11.915  0.5773  0.2587 -0.7577
 8165TIP3   OH245909   0.241   6.500  10.813  0.9253 -0.1076 -0.2813
 8165TIP3    H145910   0.322   6.453  10.798  0.5731 -0.6211 -0.6011
 8165TIP3    H245911   0.186   6.479  10.737 -0.2775 -1.4273  0.9157
 8166TIP3   OH245912   5.952   5.784   1.626 -0.2802 -0.1128  0.3223
 8166TIP3    H145913   5.970   5.872   1.660 -0.4444  1.1195 -2.5877
 8166TIP3    H245914   6.036   5.739   1.629 -0.2216  0.0897  1.9540
 8167TIP3   OH245915   0.250   4.376   4.466  0.0043 -0.7547  0.2437
 8167TIP3    H145916   0.216   4.315   4.401  1.6175 -0.8106 -0.5856
 8167TIP3    H245917   0.192   4.366   4.542 -1.9782 -0.5829 -1.2372
 8168TIP3   OH245918   3.799   1.323   5.095 -0.3975  0.2067 -0.4575
 8168TIP3    H145919   3.758   1.359   5.016 -0.7811 -0.2554 -0.4756
 8168TIP3    H245920   3.892   1.321   5.075 -0.3417  1.4222 -0.3579
 8169TIP3   OH245921   3.090   2.534  15.558 -0.1070  0.5011  0.0410
 8169TIP3    H145922   3.103   2.563  15.648 -1.1546 -0.6454  0.5752
 8169TIP3    H245923   3.179   2.517  15.525  0.2202 -0.0512  1.1871
 8170TIP3   OH245924   3.927   5.483   2.261  0.7539 -0.8073 -0.0637
 8170TIP3    H145925   3.972   5.502   2.344  0.8345 -0.1611 -0.2582
 8170TIP3    H245926   3.918   5.388   2.261 -0.2634 -0.7271  1.2239
 8171TIP3   OH245927   3.627   1.799   1.020  0.4051 -0.2449  0.1711
 8171TIP3    H145928   3.544   1.802   1.068  0.8959 -1.0958  1.0950
 8171TIP3    H245929   3.694   1.811   1.087  1.0676 -0.5314 -0.4363
 8172TIP3   OH245930   5.405   0.535   4.655 -0.6780  0.5108  0.5174
 8172TIP3    H145931   5.358   0.607   4.697  1.5540  1.8564  0.8081
 8172TIP3    H245932   5.436   0.481   4.728 -0.1403  0.7036  0.4378
 8173TIP3   OH245933   2.861   3.913   6.760  0.0545  0.6146  0.0368
 8173TIP3    H145934   2.840   4.007   6.752 -0.0819  0.6052  0.2587
 8173TIP3    H245935   2.924   3.896   6.691 -0.7447  0.6291 -0.7128
 8174TIP3   OH245936   5.420   3.193   2.426  0.3426  0.5259  0.2772
 8174TIP3    H145937   5.340   3.187   2.478  0.7234 -0.4572  0.7691
 8174TIP3    H245938   5.471   3.262   2.467  0.3421  0.2168  0.7970
 8175TIP3   OH245939   5.844   4.343  12.645  0.1881 -0.1024 -0.0938
 8175TIP3    H145940   5.921   4.397  12.626  1.1633 -1.7019 -0.7525
 8175TIP3    H245941   5.777   4.375  12.584  1.1473 -0.4676 -1.3647
 8176TIP3   OH245942   3.669   3.758  15.373  0.3186 -0.5967 -0.0679
 8176TIP3    H145943   3.605   3.829  15.372 -0.3262 -1.1567  0.8889
 8176TIP3    H245944   3.735   3.785  15.308 -1.8609 -0.9640 -2.5008
 8177TIP3   OH245945   6.131   1.583   0.835 -0.2223  0.4328  0.1348
 8177TIP3    H145946   6.159   1.636   0.909  0.8200  0.3088 -0.1647
 8177TIP3    H245947   6.053   1.537   0.867 -1.7073  2.8173  0.0890
 8178TIP3   OH245948   2.448   3.335   2.935 -0.1401 -0.5808 -0.2223
 8178TIP3    H145949   2.374   3.350   2.995 -0.1419  1.0937 -0.6024
 8178TIP3    H245950   2.410   3.288   2.861 -1.0386  1.0765 -0.8372
 8179TIP3   OH245951   4.341   4.788   5.782  0.0712 -0.3578  0.1922
 8179TIP3    H145952   4.293   4.709   5.757 -2.4119  1.2684 -0.4050
 8179TIP3    H245953   4.406   4.800   5.713 -0.5705 -1.0333 -0.5434
 8180TIP3   OH245954   1.113   1.431  17.156 -0.5840  1.0317  0.2147
 8180TIP3    H145955   1.095   1.444  17.063  2.5271 -1.1310 -0.7647
 8180TIP3    H245956   1.063   1.354  17.181 -1.1523  1.4162  0.2853
 8181TIP3   OH245957   0.119   2.224  16.931 -0.4246 -0.0480  0.4019
 8181TIP3    H145958   0.174   2.257  16.860  0.8643 -0.7693  1.0453
 8181TIP3    H245959   0.087   2.303  16.975 -0.3846  0.3853 -0.3283
 8182TIP3   OH245960   3.334   2.560  11.629 -0.1328 -0.0998  0.5307
 8182TIP3    H145961   3.373   2.647  11.643 -0.6398  0.1999  0.0959
 8182TIP3    H245962   3.279   2.571  11.552 -1.4955 -0.3976  1.4570
 8183TIP3   OH245963   4.150   3.003   2.603 -0.1478  0.0407 -0.2996
 8183TIP3    H145964   4.211   2.934   2.628  0.3314  0.5616 -0.0047
 8183TIP3    H245965   4.205   3.080   2.590 -0.7961  0.6525  0.4772
 8184TIP3   OH245966   4.423   4.838  14.782  0.1564  0.1229 -0.2295
 8184TIP3    H145967   4.345   4.885  14.811 -0.1692 -1.1740  1.0604
 8184TIP3    H245968   4.395   4.791  14.703 -0.2477 -0.0404  0.0143
 8185TIP3   OH245969   3.923   4.361   6.160  0.2413 -0.3568  0.8029
 8185TIP3    H145970   3.978   4.288   6.187  3.1713  2.2638  2.2679
 8185TIP3    H245971   3.857   4.368   6.229  1.2272 -0.3197  1.7508
 8186TIP3   OH245972   3.365   5.424   3.949  0.8497  0.2323 -0.2390
 8186TIP3    H145973   3.439   5.417   4.010 -0.2043  0.7390  1.1220
 8186TIP3    H245974   3.397   5.384   3.868  2.8316  1.0190  0.1267
 8187TIP3   OH245975   3.895   4.644   4.936  0.3298  0.4458  0.1568
 8187TIP3    H145976   3.903   4.549   4.946 -0.2594  0.0004 -3.0343
 8187TIP3    H245977   3.910   4.659   4.842  2.8631  3.7775  1.0379
 8188TIP3   OH245978   2.296   1.583   2.118  0.0935  0.0066 -0.5551
 8188TIP3    H145979   2.311   1.563   2.210 -3.5994 -0.5064  0.0278
 8188TIP3    H245980   2.322   1.504   2.071  0.4958 -0.3074  0.1912
 8189TIP3   OH245981   1.090   5.517   1.285 -0.2235 -0.1896  0.5116
 8189TIP3    H145982   1.162   5.454   1.293  0.1083  0.2483  1.0179
 8189TIP3    H245983   1.132   5.602   1.299 -0.7709  0.1007  0.3874
 8190TIP3   OH245984   2.415   0.489  13.801 -0.1821  0.2059  0.3412
 8190TIP3    H145985   2.345   0.446  13.849  0.7478 -2.0393 -0.2469
 8190TIP3    H245986   2.458   0.545  13.866 -2.5129  1.6628  0.6824
 8191TIP3   OH245987   3.068   3.985   1.403 -0.1652  0.0290  0.2722
 8191TIP3    H145988   3.056   3.910   1.344 -1.6524 -0.5251  1.2721
 8191TIP3    H245989   3.078   4.060   1.344 -0.9952 -0.6188 -0.7073
 8192TIP3   OH245990   4.371   0.201   3.036 -0.1336  0.4796  0.5679
 8192TIP3    H145991   4.452   0.159   3.010  0.3977  0.3745  2.3571
 8192TIP3    H245992   4.394   0.294   3.046 -0.1229  0.3844  1.4783
 8193TIP3   OH245993   1.775   0.139   0.529  0.4172 -0.1565  0.0385
 8193TIP3    H145994   1.738   0.052   0.543  1.2578 -0.4274  0.5557
 8193TIP3    H245995   1.839   0.150   0.598 -0.6340  1.4194  0.8077
 8194TIP3   OH245996   3.430   0.113  14.630  0.2272 -0.7661  0.0315
 8194TIP3    H145997   3.422   0.021  14.653  1.5891 -0.7187  0.7725
 8194TIP3    H245998   3.510   0.142  14.673 -0.7962  1.0647  0.7917
 8195TIP3   OH245999   0.046   0.912   5.037 -0.7505 -0.3400  0.0416
 8195TIP3    H146000   0.064   0.818   5.028  1.9243  0.0829  0.7051
 8195TIP3    H246001   0.020   0.922   5.128 -0.3259 -0.3399  0.1652
 8196TIP3   OH246002   5.123   0.354   4.525  0.0030  0.3120 -0.2293
 8196TIP3    H146003   5.210   0.382   4.551 -1.0778  4.1146 -0.3691
 8196TIP3    H246004   5.125   0.352   4.429  0.6888 -2.3319 -0.1866
 8197TIP3   OH246005   2.883   6.249   3.976 -0.1557 -0.3273  0.2574
 8197TIP3    H146006   2.950   6.189   4.009  1.5545  0.2006 -2.1888
 8197TIP3    H246007   2.801   6.212   4.010  1.2934 -1.0613  3.1678
 8198TIP3   OH246008   1.255   5.464   4.322 -1.0275 -0.5687  0.3792
 8198TIP3    H146009   1.254   5.549   4.365 -0.5108 -0.4193  0.1013
 8198TIP3    H246010   1.316   5.411   4.374  2.2650  0.6607 -2.1350
 8199TIP3   OH246011   2.806   4.430  11.729 -0.1931 -0.1252 -0.1832
 8199TIP3    H146012   2.716   4.451  11.750 -0.4136 -0.6214 -0.6258
 8199TIP3    H246013   2.822   4.472  11.644 -0.9522 -2.5316 -1.5703
 8200TIP3   OH246014   2.612   5.207  13.785  0.2043 -0.2008 -0.3651
 8200TIP3    H146015   2.542   5.165  13.734  0.3380  0.1505 -0.8334
 8200TIP3    H246016   2.633   5.287  13.737  0.8312 -0.2313 -0.1442
 8201TIP3   OH246017   1.243   0.903  13.895  0.6667 -0.1507 -0.1138
 8201TIP3    H146018   1.298   0.835  13.856  0.5975 -0.4997  0.3812
 8201TIP3    H246019   1.156   0.888  13.858  0.3012 -1.3250  1.1727
 8202TIP3   OH246020   3.279   0.357   3.082  0.3978  0.3240 -0.2389
 8202TIP3    H146021   3.236   0.276   3.109  0.6912 -0.1824 -1.2817
 8202TIP3    H246022   3.220   0.396   3.017  0.6339  0.5561 -0.3187
 8203TIP3   OH246023   6.391   3.243   5.439 -0.1093  0.1524 -0.4032
 8203TIP3    H146024   6.403   3.328   5.483  1.2007 -0.0870 -0.2670
 8203TIP3    H246025   6.346   3.265   5.357 -3.4597  0.4962  1.4332
 8204TIP3   OH246026   6.090   4.605  15.463  0.3198 -0.0794  0.4257
 8204TIP3    H146027   6.125   4.658  15.535 -1.4241  0.9673  0.5291
 8204TIP3    H246028   6.051   4.668  15.403 -0.1919 -1.1150 -0.3506
 8205TIP3   OH246029   4.324   5.448  12.038 -0.0239  0.0897 -0.3117
 8205TIP3    H146030   4.312   5.433  12.132  0.0880  1.1271 -0.1248
 8205TIP3    H246031   4.388   5.519  12.033 -1.2618  1.1956 -1.1302
 8206TIP3   OH246032   2.666   1.124   2.163  0.6922  0.1987 -0.1908
 8206TIP3    H146033   2.676   1.111   2.069  2.0410 -0.6199  0.0511
 8206TIP3    H246034   2.746   1.088   2.201  0.0465  0.2814  1.2930
 8207TIP3   OH246035   0.599   3.717   2.158  0.1141 -0.0804  0.1262
 8207TIP3    H146036   0.518   3.672   2.182 -0.8342  0.3118 -2.1870
 8207TIP3    H246037   0.580   3.810   2.173  0.3517 -0.0391  0.1739
 8208TIP3   OH246038   5.592   6.129   1.581  0.3076 -0.2552  0.3551
 8208TIP3    H146039   5.679   6.110   1.546  1.4767  1.8926  1.9190
 8208TIP3    H246040   5.593   6.092   1.669 -0.2435  0.0329  0.4832
 8209TIP3   OH246041   6.154   4.147   1.229  0.7049 -0.1644 -0.0177
 8209TIP3    H146042   6.104   4.228   1.238  0.6925 -0.2882  1.0978
 8209TIP3    H246043   6.092   4.084   1.194  0.3003 -0.0880  0.5500
 8210TIP3   OH246044   1.793   5.826   4.177 -0.4700  0.1954 -0.2957
 8210TIP3    H146045   1.767   5.776   4.100  1.1848 -0.9598 -0.1255
 8210TIP3    H246046   1.797   5.916   4.147 -1.4423 -0.0251 -1.1322
 8211TIP3   OH246047   4.225   6.290  16.719 -0.1500 -0.1719 -0.3346
 8211TIP3    H146048   4.283   6.318  16.648  0.9053 -0.1910  0.5234
 8211TIP3    H246049   4.281   6.284  16.795 -0.0978 -5.7885 -0.6758
 8212TIP3   OH246050   6.170   6.270   1.048  0.4707  0.1280  0.4418
 8212TIP3    H146051   6.125   6.354   1.054  0.8097  0.4440 -1.1378
 8212TIP3    H246052   6.250   6.289   1.000  0.8827 -0.9699  0.6795
 8213TIP3   OH246053   6.628   1.589  17.029 -0.1766 -0.1557  0.5316
 8213TIP3    H146054   6.673   1.505  17.020  1.5974  0.5365  2.6330
 8213TIP3    H246055   6.662   1.627  17.110 -2.1257  1.8920  0.4593
 8214TIP3   OH246056   6.549   4.931   2.550  0.1279  0.6125 -0.4944
 8214TIP3    H146057   6.526   4.899   2.638 -0.0190  2.2972  0.1034
 8214TIP3    H246058   6.493   4.880   2.491  0.0928 -0.4138  0.3936
 8215TIP3   OH246059   2.733   5.326  11.598  0.0815 -0.2065  0.7738
 8215TIP3    H146060   2.671   5.359  11.534 -0.2568  0.1755  1.2912
 8215TIP3    H246061   2.809   5.298  11.547 -0.6334 -0.9436  0.1187
 8216TIP3   OH246062   4.399   4.863  11.251  0.2753  0.4607  0.4331
 8216TIP3    H146063   4.342   4.844  11.326  0.2316 -0.1768  0.2403
 8216TIP3    H246064   4.372   4.800  11.184  0.4014  0.9406 -0.0776
 8217TIP3   OH246065   1.328   2.900  11.767 -0.1375 -0.0188 -0.9222
 8217TIP3    H146066   1.292   2.811  11.766  0.0308 -0.0785 -2.8006
 8217TIP3    H246067   1.413   2.891  11.723  0.6298  0.7737  0.3700
 8218TIP3   OH246068   6.301   3.727  16.004 -0.6423  0.0959 -0.1267
 8218TIP3    H146069   6.214   3.694  16.026  0.2639 -1.6592  0.8878
 8218TIP3    H246070   6.298   3.820  16.030 -1.8701 -0.1965  0.8448
 8219TIP3   OH246071   0.271   1.373   4.975 -0.0775 -0.5078  0.1726
 8219TIP3    H146072   0.298   1.281   4.984  4.3374  0.3249 -3.0347
 8219TIP3    H246073   0.231   1.377   4.888 -1.1037  0.4703  0.6825
 8220TIP3   OH246074   3.148   1.329   1.646 -0.9674 -0.2918 -0.3100
 8220TIP3    H146075   3.208   1.404   1.645 -1.7478  0.3398  0.1117
 8220TIP3    H246076   3.204   1.254   1.669 -0.9698  0.8709  3.7611
 8221TIP3   OH246077   2.587   6.384  13.057 -0.4216 -0.4274 -0.3346
 8221TIP3    H146078   2.537   6.312  13.019 -0.9070  0.0706 -0.6403
 8221TIP3    H246079   2.561   6.385  13.149 -1.4304  0.2091 -0.6187
 8222TIP3   OH246080   5.948   6.104   5.788 -0.3964 -0.5018  0.2232
 8222TIP3    H146081   5.909   6.180   5.745  1.2441 -0.2018 -0.7782
 8222TIP3    H246082   5.907   6.102   5.875  0.4327  2.2653  0.7339
 8223TIP3   OH246083   1.889   0.847  12.988  0.7876  0.2119  0.2805
 8223TIP3    H146084   1.809   0.888  13.022  0.6748  0.0524  0.2045
 8223TIP3    H246085   1.859   0.787  12.920  0.9632  0.0681  0.3288
 8224TIP3   OH246086   3.224   6.570   5.933 -0.1582 -0.0069  0.3333
 8224TIP3    H146087   3.316   6.561   5.908 -0.2518  1.1505 -0.4854
 8224TIP3    H246088   3.226   6.601   6.023  0.2664  0.5047  0.1495
 8225TIP3   OH246089   2.432   0.050   0.404 -0.8385 -0.1056 -0.1010
 8225TIP3    H146090   2.354   0.105   0.403 -0.2770  0.6961 -0.5532
 8225TIP3    H246091   2.443   0.026   0.496 -2.1587 -1.0187 -0.1625
 8226TIP3   OH246092   6.262   2.609  12.502  0.2887  0.2169 -0.3287
 8226TIP3    H146093   6.346   2.568  12.483  0.4668 -0.1565  1.2522
 8226TIP3    H246094   6.203   2.537  12.523 -0.1605  0.5553 -0.4083
 8227TIP3   OH246095   3.818   2.161   1.117  0.2643 -0.3181  0.0744
 8227TIP3    H146096   3.913   2.167   1.131  0.2436  0.0804  0.0266
 8227TIP3    H246097   3.797   2.070   1.138  0.4571 -0.0873  1.3501
 8228TIP3   OH246098   4.846   5.668  12.350 -0.0733 -0.9345  0.1394
 8228TIP3    H146099   4.900   5.655  12.428 -2.7689  1.2953  2.4848
 8228TIP3    H246100   4.787   5.593  12.349 -1.3553  0.0304  1.4254
 8229TIP3   OH246101   0.323   2.913   4.251 -0.2184 -0.0247  0.2307
 8229TIP3    H146102   0.317   2.832   4.201 -0.8784  0.9459 -1.3272
 8229TIP3    H246103   0.262   2.902   4.323 -0.9823 -0.5530 -0.4945
 8230TIP3   OH246104   2.511   2.924  13.902  0.7625 -0.0760 -0.1516
 8230TIP3    H146105   2.480   2.848  13.852  0.2187  0.0375  0.0141
 8230TIP3    H246106   2.600   2.939  13.869 -0.0823  0.8647 -2.1156
 8231TIP3   OH246107   0.588   3.434   0.368  0.0270 -0.0923  0.4639
 8231TIP3    H146108   0.536   3.363   0.406  0.8737  0.0233  1.8784
 8231TIP3    H246109   0.621   3.398   0.286  2.3827 -2.2073  2.2820
 8232TIP3   OH246110   1.892   5.070  14.010 -0.2146 -0.0590 -0.2009
 8232TIP3    H146111   1.871   5.152  14.055  0.1295  0.9738 -1.8914
 8232TIP3    H246112   1.901   5.006  14.081 -1.0767  1.2217  1.1027
 8233TIP3   OH246113   0.208   4.675  15.183 -0.2482  0.9783 -0.0346
 8233TIP3    H146114   0.176   4.763  15.167  1.5277  1.8471  1.0001
 8233TIP3    H246115   0.194   4.660  15.277 -0.9610 -0.0286 -0.2877
 8234TIP3   OH246116   6.721   5.115  12.415  0.1375  0.2074 -0.0136
 8234TIP3    H146117   6.788   5.152  12.357  1.9023 -0.8829  1.2656
 8234TIP3    H246118   6.736   5.021  12.412  0.3841  0.1301  2.3037
 8235TIP3   OH246119   1.596   2.526   6.195 -0.0224 -0.5346 -0.0769
 8235TIP3    H146120   1.517   2.578   6.209  0.6704  0.1406  1.4325
 8235TIP3    H246121   1.667   2.580   6.228  0.9366 -1.6726 -0.2201
 8236TIP3   OH246122   2.922   5.526   0.306 -0.0321  0.6152  0.2566
 8236TIP3    H146123   2.999   5.505   0.252 -2.1275 -1.3353 -2.1023
 8236TIP3    H246124   2.922   5.460   0.375 -0.6153 -0.5670 -0.8564
 8237TIP3   OH246125   3.093   0.579  15.339 -0.7804  0.0308 -0.2895
 8237TIP3    H146126   3.058   0.660  15.302  0.7522  0.3907 -1.0083
 8237TIP3    H246127   3.128   0.531  15.263  0.1509 -0.3609  0.3780
 8238TIP3   OH246128   5.062   2.176   4.202  0.6054  0.3399 -0.3269
 8238TIP3    H146129   5.134   2.119   4.174  0.1399 -1.0767  1.3090
 8238TIP3    H246130   5.037   2.143   4.288 -1.5346  1.2748 -0.5593
 8239TIP3   OH246131   3.240   6.594  14.401  0.1467 -0.0570  0.3509
 8239TIP3    H146132   3.280   6.681  14.405  0.8000 -0.3854  1.1862
 8239TIP3    H246133   3.298   6.539  14.453  0.5379 -1.3053 -1.3489
 8240TIP3   OH246134   0.437   0.719   1.717 -0.2855  0.0075  0.5693
 8240TIP3    H146135   0.451   0.711   1.811 -0.2868 -2.7343  0.3801
 8240TIP3    H246136   0.437   0.814   1.700 -1.8216  0.5962  3.5306
 8241TIP3   OH246137   1.755   5.049  13.134  0.3140  0.6686 -0.1112
 8241TIP3    H146138   1.698   5.032  13.209  1.4297 -1.1096  0.3602
 8241TIP3    H246139   1.797   4.965  13.116  0.0719  1.0798 -2.7460
 8242TIP3   OH246140   5.253   2.587   6.124  0.2126 -0.1917 -0.6175
 8242TIP3    H146141   5.214   2.568   6.039 -0.2897 -1.0417 -0.2105
 8242TIP3    H246142   5.179   2.597   6.183  0.5720 -0.8652 -0.0299
 8243TIP3   OH246143   2.936   4.821  15.445  0.2615 -0.7156 -0.1735
 8243TIP3    H146144   2.910   4.745  15.393  1.8838 -1.4965  0.1263
 8243TIP3    H246145   2.967   4.784  15.528 -1.2410  0.4442  0.9263
 8244TIP3   OH246146   1.987   4.848  16.781  0.5775 -0.2896 -0.0138
 8244TIP3    H146147   1.917   4.905  16.812 -0.5031 -1.6145  0.0029
 8244TIP3    H246148   1.946   4.792  16.715  1.9463 -0.1493 -1.0186
 8245TIP3   OH246149   0.309   5.470  13.823  0.3908  0.6441 -0.1333
 8245TIP3    H146150   0.258   5.406  13.772  1.7236  0.7075 -1.5575
 8245TIP3    H246151   0.298   5.441  13.914 -1.9500  0.4897 -0.4265
 8246TIP3   OH246152   0.481   1.975  13.555 -0.0469 -0.8161 -0.6146
 8246TIP3    H146153   0.517   1.886  13.548  0.0129 -0.8803  0.3975
 8246TIP3    H246154   0.532   2.016  13.625 -2.0786 -0.9792  1.0076
 8247TIP3   OH246155   2.619   2.490   1.071 -0.3819 -0.0989 -0.2229
 8247TIP3    H146156   2.679   2.522   1.003  0.4238 -0.3984  0.3427
 8247TIP3    H246157   2.622   2.557   1.139 -0.4033 -0.2997 -0.0251
 8248TIP3   OH246158   6.517   4.981  14.000  0.2374 -0.2229 -0.1504
 8248TIP3    H146159   6.489   4.912  14.060 -0.0383  0.8444  0.9782
 8248TIP3    H246160   6.585   5.028  14.048  0.8342 -0.0678 -1.1433
 8249TIP3   OH246161   3.037   1.741   1.637  0.1575  0.2578  0.0188
 8249TIP3    H146162   3.002   1.830   1.629 -1.4368 -0.3705 -0.2483
 8249TIP3    H246163   2.972   1.695   1.691  0.1015 -1.1936 -1.2661
 8250TIP3   OH246164   3.371   5.486   1.192  0.1060 -0.0948  0.1731
 8250TIP3    H146165   3.302   5.504   1.256 -1.3012 -1.6274 -0.8567
 8250TIP3    H246166   3.335   5.519   1.109 -0.3470 -2.7929 -0.7699
 8251TIP3   OH246167   4.549   1.470   2.175 -0.1513 -0.1015  0.3482
 8251TIP3    H146168   4.502   1.395   2.139 -2.7686  1.8422 -0.4533
 8251TIP3    H246169   4.491   1.503   2.245 -0.6922  3.1213 -1.5062
 8252TIP3   OH246170   4.860   5.115   4.192  1.0303  0.3698 -0.1384
 8252TIP3    H146171   4.921   5.151   4.257  0.7577 -0.4628  0.5931
 8252TIP3    H246172   4.916   5.069   4.130  1.0708 -1.5886  1.3088
 8253TIP3   OH246173   4.136   4.616   5.992 -0.0497 -0.4400  0.4218
 8253TIP3    H146174   4.067   4.575   5.940  1.8316 -0.5370 -2.0710
 8253TIP3    H246175   4.106   4.706   6.005 -0.8911 -0.6261 -0.1916
 8254TIP3   OH246176   3.168   4.212  14.881  0.0586 -0.2736  0.1442
 8254TIP3    H146177   3.163   4.234  14.788  1.9430  0.4919  0.1854
 8254TIP3    H246178   3.086   4.243  14.918 -0.7388 -0.6473 -1.2740
 8255TIP3   OH246179   1.005   6.415   2.034 -0.2313  0.2624  0.2094
 8255TIP3    H146180   1.028   6.418   2.126  0.1862  2.1175  0.0604
 8255TIP3    H246181   1.082   6.449   1.988 -0.6804 -0.0222 -0.7784
 8256TIP3   OH246182   2.094   4.638  14.827 -0.3482 -0.1617 -0.1336
 8256TIP3    H146183   2.183   4.648  14.794 -0.1922  0.3237  0.4306
 8256TIP3    H246184   2.044   4.606  14.752  0.1320  0.3448 -0.6706
 8257TIP3   OH246185   2.234   2.907  16.778 -0.3990  0.2863 -0.0144
 8257TIP3    H146186   2.217   2.974  16.711  0.4676  1.2752  0.7159
 8257TIP3    H246187   2.177   2.931  16.851 -0.5349 -0.1355  0.0176
 8258TIP3   OH246188   5.200   0.868  14.590  0.0892 -0.3368 -0.4405
 8258TIP3    H146189   5.161   0.928  14.653  0.5141 -0.5687  0.0435
 8258TIP3    H246190   5.282   0.840  14.630  0.4901 -0.2800 -1.2121
 8259TIP3   OH246191   3.353   4.780  11.718  0.5790 -0.6156 -0.2072
 8259TIP3    H146192   3.390   4.693  11.735 -0.0673 -0.8231  0.1374
 8259TIP3    H246193   3.259   4.765  11.708  0.7068 -0.2404 -2.1159
 8260TIP3   OH246194   3.044   0.131  11.392  0.1931  0.0523  0.0387
 8260TIP3    H146195   3.076   0.216  11.361 -0.8147  0.5286  0.3024
 8260TIP3    H246196   2.955   0.124  11.359 -0.3649 -0.0996  1.5176
 8261TIP3   OH246197   0.328   6.205   3.551 -0.1886  0.5839 -0.1778
 8261TIP3    H146198   0.357   6.183   3.463 -1.0734  1.3929 -0.6976
 8261TIP3    H246199   0.387   6.275   3.579  0.8873 -0.5281  0.3856
 8262TIP3   OH246200   0.620   2.639  11.782  0.1387  0.3373 -0.2083
 8262TIP3    H146201   0.643   2.730  11.767  0.5538  0.1865 -0.5047
 8262TIP3    H246202   0.644   2.623  11.873  0.5549  0.3863 -0.3034
 8263TIP3   OH246203   4.816   1.648   3.156 -0.1369 -0.4767 -0.8795
 8263TIP3    H146204   4.836   1.582   3.089 -1.8579 -0.2965 -1.5983
 8263TIP3    H246205   4.865   1.725   3.128 -0.9229 -0.3719 -1.9996
 8264TIP3   OH246206   2.989   1.465  12.449  0.2324  0.0919 -0.0672
 8264TIP3    H146207   3.076   1.474  12.410 -0.2120  1.1248 -0.8156
 8264TIP3    H246208   2.953   1.386  12.408  1.5254 -1.4292  1.6219
 8265TIP3   OH246209   1.634   5.482  12.047  0.3091  0.5657 -0.8496
 8265TIP3    H146210   1.623   5.567  12.005  0.1438  1.2785  0.6198
 8265TIP3    H246211   1.598   5.493  12.135 -2.7464 -1.9399 -1.6735
 8266TIP3   OH246212   4.377   6.716  15.157 -0.8901  0.0055 -0.1335
 8266TIP3    H146213   4.334   6.634  15.133  1.5091 -1.1339 -0.7654
 8266TIP3    H246214   4.409   6.701  15.246 -0.1341  0.1153 -0.3838
 8267TIP3   OH246215   3.505   3.393  13.187 -0.2524  0.3273  0.0622
 8267TIP3    H146216   3.446   3.320  13.208 -1.6508  1.4045 -0.0874
 8267TIP3    H246217   3.519   3.386  13.092 -0.4165  0.2902  0.0421
 8268TIP3   OH246218   6.540   5.712  16.144 -0.0505 -0.2611 -0.1377
 8268TIP3    H146219   6.613   5.766  16.113 -0.5311  0.5763  0.1796
 8268TIP3    H246220   6.581   5.632  16.175  0.6130 -0.3622 -1.2442
 8269TIP3   OH246221   1.729   6.441  13.658  0.0429 -0.6226 -0.0591
 8269TIP3    H146222   1.730   6.420  13.752  1.8129  1.5011  0.4413
 8269TIP3    H246223   1.820   6.459  13.637 -0.5156  0.0828 -1.9226
 8270TIP3   OH246224   3.239   5.050  12.135 -0.1805  0.0153  0.1794
 8270TIP3    H146225   3.309   5.039  12.200 -1.2772 -0.2656  1.3373
 8270TIP3    H246226   3.284   5.077  12.055  1.6812 -4.0565 -0.2438
 8271TIP3   OH246227   5.414   3.652  12.933 -0.2496 -0.0544 -0.0436
 8271TIP3    H146228   5.499   3.666  12.975 -0.6042 -1.3267  1.1307
 8271TIP3    H246229   5.396   3.735  12.888  1.2406  0.5006  0.3459
 8272TIP3   OH246230   0.408   1.627   5.654 -0.7011  0.2096 -0.0947
 8272TIP3    H146231   0.410   1.596   5.744  0.1898 -0.4681 -0.3292
 8272TIP3    H246232   0.470   1.700   5.652 -0.8101  0.3018 -0.1339
 8273TIP3   OH246233   0.662   0.937  12.301  0.1061  0.0394  0.0896
 8273TIP3    H146234   0.641   0.986  12.221 -3.3227 -0.4124  0.6657
 8273TIP3    H246235   0.682   0.849  12.270  2.1176  0.6828 -0.5425
 8274TIP3   OH246236   0.746   2.310  15.192  0.3182 -0.0123 -0.0693
 8274TIP3    H146237   0.674   2.307  15.130 -1.0564  1.1255  1.4397
 8274TIP3    H246238   0.823   2.282  15.141 -1.0713 -0.7483 -1.8083
 8275TIP3   OH246239   4.420   3.932  14.758 -0.4256  0.3611  0.3384
 8275TIP3    H146240   4.341   3.921  14.705 -0.3104  1.9659 -0.2096
 8275TIP3    H246241   4.483   3.871  14.720 -1.5428 -1.2699  1.0796
 8276TIP3   OH246242   2.603   6.598   4.512  0.1240  0.1743  0.2911
 8276TIP3    H146243   2.620   6.692   4.514  1.2230 -0.0257  0.5827
 8276TIP3    H246244   2.663   6.561   4.576 -0.8124 -0.6582  0.7001
 8277TIP3   OH246245   1.881   6.407   3.044  0.7183 -0.1679 -0.0075
 8277TIP3    H146246   1.822   6.332   3.052 -0.9147  0.7393 -2.6490
 8277TIP3    H246247   1.969   6.370   3.052 -0.0414 -2.5056 -1.8450
 8278TIP3   OH246248   5.613   0.835  17.160 -0.2621 -0.4060  0.0219
 8278TIP3    H146249   5.519   0.855  17.161 -0.1205  0.9017 -3.8873
 8278TIP3    H246250   5.649   0.894  17.094  2.7604 -3.2685 -1.0149
 8279TIP3   OH246251   4.829   6.787   0.743 -0.3771  1.0441 -0.3998
 8279TIP3    H146252   4.776   6.844   0.689 -1.1688  0.1272 -0.6090
 8279TIP3    H246253   4.765   6.739   0.797  0.1952 -0.3252 -0.9056
 8280TIP3   OH246254   0.795   5.767  14.440  0.3473  0.1735 -0.1112
 8280TIP3    H146255   0.803   5.689  14.386 -0.5305 -0.1265  0.1775
 8280TIP3    H246256   0.702   5.789  14.437  0.3616  0.4057  0.9348
 8281TIP3   OH246257   0.779   0.200  16.994  0.6032 -0.3143  0.3424
 8281TIP3    H146258   0.831   0.120  16.986  0.9036  0.1770 -3.7147
 8281TIP3    H246259   0.834   0.268  16.954 -2.2139  0.6654 -2.0276
 8282TIP3   OH246260   4.276   0.537   1.869 -0.5710 -0.4806 -0.2042
 8282TIP3    H146261   4.308   0.627   1.862 -1.5015 -0.1632 -0.3934
 8282TIP3    H246262   4.337   0.495   1.930 -0.6896  0.5348  0.6266
 8283TIP3   OH246263   0.919   1.243  11.175  0.2151 -0.3645  0.2416
 8283TIP3    H146264   0.939   1.275  11.087  0.0556  0.8773  0.6365
 8283TIP3    H246265   0.873   1.160  11.161  0.6894 -0.4569 -0.8231
 8284TIP3   OH246266   4.349   1.128  17.067  0.5547  0.6056  0.4429
 8284TIP3    H146267   4.359   1.040  17.031 -0.1107 -0.2320  2.2212
 8284TIP3    H246268   4.273   1.164  17.022  0.0778 -0.2184  0.5710
 8285TIP3   OH246269   6.544   0.484   5.611 -0.0079  0.1514  0.0875
 8285TIP3    H146270   6.490   0.535   5.672 -0.9388 -1.0245  0.2788
 8285TIP3    H246271   6.480   0.441   5.553  0.7709 -0.4296 -0.3480
 8286TIP3   OH246272   5.744   3.406  11.786 -0.1353  0.1233  0.2316
 8286TIP3    H146273   5.826   3.400  11.737 -0.2767 -0.9244  0.1039
 8286TIP3    H246274   5.699   3.482  11.750 -0.3659 -0.8132 -1.4754
 8287TIP3   OH246275   4.589   3.317  14.462 -0.4212  0.2452  0.1052
 8287TIP3    H146276   4.586   3.369  14.542  0.2038  0.0232  0.2750
 8287TIP3    H246277   4.674   3.273  14.465 -0.1768  0.6400 -0.9335
 8288TIP3   OH246278   5.646   3.393  17.037  0.1275  0.2204 -0.0202
 8288TIP3    H146279   5.727   3.427  16.999  2.3457 -3.5917  0.9692
 8288TIP3    H246280   5.648   3.420  17.128  0.2790  0.1534 -0.0042
 8289TIP3   OH246281   4.916   4.725  11.902 -0.1310  0.0596 -0.2648
 8289TIP3    H146282   4.827   4.741  11.870  0.0520  2.1124  0.1699
 8289TIP3    H246283   4.962   4.689  11.827 -0.8338  0.7922 -1.0676
 8290TIP3   OH246284   0.678   3.631  16.530 -0.0989  0.1338 -0.2360
 8290TIP3    H146285   0.611   3.609  16.594 -0.0566  1.1079  0.1537
 8290TIP3    H246286   0.755   3.656  16.582  0.2977 -0.1638 -0.6671
 8291TIP3   OH246287   0.807   4.852   5.274  0.0771  0.4179  0.0269
 8291TIP3    H146288   0.792   4.757   5.280 -0.3958  0.3581 -1.7659
 8291TIP3    H246289   0.892   4.866   5.315 -0.5465 -0.5805  1.6922
 8292TIP3   OH246290   3.294   4.559   1.146  0.0513 -0.4953  0.0812
 8292TIP3    H146291   3.326   4.475   1.178  1.1898 -0.1121 -0.0379
 8292TIP3    H246292   3.304   4.554   1.051  1.5545  0.3403  0.1763
 8293TIP3   OH246293   3.656   2.721  12.503 -0.7199  0.2156  0.0529
 8293TIP3    H146294   3.749   2.739  12.501 -0.8679  0.8792 -1.4461
 8293TIP3    H246295   3.644   2.645  12.447 -1.2069  0.8011 -0.6577
 8294TIP3   OH246296   1.748   0.290   4.870 -0.2430 -0.0029  0.2993
 8294TIP3    H146297   1.669   0.332   4.905 -1.0548 -0.8243 -0.5077
 8294TIP3    H246298   1.793   0.255   4.946  0.3609  2.1587  0.9807
 8295TIP3   OH246299   4.698   5.139  11.639 -0.3525 -0.0798 -0.0788
 8295TIP3    H146300   4.604   5.155  11.645 -0.0206  1.3351  1.5831
 8295TIP3    H246301   4.722   5.105  11.725  0.5734 -1.0278 -0.6900
 8296TIP3   OH246302   4.547   1.325   5.749 -0.2906  0.4727 -0.2691
 8296TIP3    H146303   4.531   1.277   5.667 -0.1394  0.2709 -0.1799
 8296TIP3    H246304   4.460   1.337   5.787 -0.0913 -2.3079  1.1777
 8297TIP3   OH246305   5.883   2.512   1.709 -0.4560 -0.0782  0.2034
 8297TIP3    H146306   5.823   2.465   1.767 -1.8712  0.9397 -0.3899
 8297TIP3    H246307   5.953   2.449   1.689 -1.3673 -1.3090  0.8600
 8298TIP3   OH246308   6.544   1.091   4.129  0.1228 -0.5424  0.2136
 8298TIP3    H146309   6.523   1.143   4.207 -1.4061 -1.2653  0.2994
 8298TIP3    H246310   6.461   1.083   4.082  0.6240 -1.7211 -0.5032
 8299TIP3   OH246311   0.338   4.548   2.300  0.5016  0.0109  0.9543
 8299TIP3    H146312   0.329   4.631   2.347  0.4190  0.3256  0.3904
 8299TIP3    H246313   0.418   4.559   2.248 -0.6882  0.5605 -0.7743
 8300TIP3   OH246314   0.319   5.319   5.984  0.0006 -0.0842 -0.3194
 8300TIP3    H146315   0.301   5.312   6.078  2.2225  0.1528  0.1347
 8300TIP3    H246316   0.254   5.260   5.944  0.2769 -1.6908  1.5003
 8301TIP3   OH246317   5.640   2.967   4.746 -0.1569  0.2677 -0.0619
 8301TIP3    H146318   5.614   2.984   4.837  2.4650 -1.8043  1.1408
 8301TIP3    H246319   5.595   2.886   4.723  0.1830  0.1142 -0.1803
 8302TIP3   OH246320   5.750   4.020   1.011  0.3303 -0.6510 -0.0770
 8302TIP3    H146321   5.763   4.047   0.920  0.7053 -1.1141 -0.1661
 8302TIP3    H246322   5.658   3.996   1.016 -0.0947  0.9541  0.0902
 8303TIP3   OH246323   5.967   5.538  11.261 -0.0023 -0.0415 -0.0415
 8303TIP3    H146324   5.914   5.580  11.194 -0.2901 -0.1147  0.1388
 8303TIP3    H246325   5.936   5.575  11.344 -1.8582 -2.2588  0.3168
 8304TIP3   OH246326   6.652   1.624  12.037  0.3377  0.1675  0.4037
 8304TIP3    H146327   6.610   1.575  12.107 -0.8272  1.6793  0.7771
 8304TIP3    H246328   6.660   1.561  11.965 -0.9372 -0.6320  0.9507
 8305TIP3   OH246329   2.169   1.463  13.047  0.0850  0.2957 -0.3942
 8305TIP3    H146330   2.132   1.541  13.006 -2.2685 -0.9479 -0.7680
 8305TIP3    H246331   2.092   1.416  13.080  1.5618 -1.2393  0.9278
 8306TIP3   OH246332   5.467   4.194   1.810 -0.0111 -0.3182 -0.2367
 8306TIP3    H146333   5.410   4.151   1.746 -2.0744  2.1400 -0.1170
 8306TIP3    H246334   5.486   4.280   1.772  1.6368 -0.1656  0.8607
 8307TIP3   OH246335   5.523   6.280  13.113  0.4062  0.4602 -0.1358
 8307TIP3    H146336   5.518   6.328  13.030 -0.4107 -0.3817 -0.5928
 8307TIP3    H246337   5.585   6.329  13.166 -1.8206  3.0788  0.1258
 8308TIP3   OH246338   3.479   2.655  13.836 -0.3615 -0.4517  0.5297
 8308TIP3    H146339   3.426   2.603  13.897 -1.9407  2.5659  1.8513
 8308TIP3    H246340   3.490   2.739  13.881  0.8693  0.8619 -2.1573
 8309TIP3   OH246341   1.171   1.484   2.539 -0.2068  0.2436  0.2602
 8309TIP3    H146342   1.100   1.428   2.505  0.7359 -0.5385 -0.4704
 8309TIP3    H246343   1.250   1.432   2.526  0.6268  1.5349  0.1139
 8310TIP3   OH246344   3.059   0.236  14.434  0.2792  0.6058  0.1642
 8310TIP3    H146345   3.058   0.151  14.390  0.0877  0.3935  0.5837
 8310TIP3    H246346   3.044   0.299  14.363 -1.2224  0.1859  0.0922
 8311TIP3   OH246347   0.794   3.705  15.438 -0.6609  0.4233  0.0094
 8311TIP3    H146348   0.719   3.719  15.496 -0.6582  1.5476 -0.2535
 8311TIP3    H246349   0.760   3.724  15.351  0.1609  1.8100 -0.0158
 8312TIP3   OH246350   4.073   0.440  17.036 -0.4889 -0.4553 -0.1623
 8312TIP3    H146351   4.050   0.350  17.059  1.6086 -1.2490 -1.0558
 8312TIP3    H246352   4.014   0.461  16.964  0.0439 -1.6838 -0.9834
 8313TIP3   OH246353   5.083   2.750   5.378  0.0697 -0.2047  0.3237
 8313TIP3    H146354   5.150   2.746   5.310 -0.9821 -1.1862 -0.6746
 8313TIP3    H246355   5.000   2.753   5.330 -0.6790 -0.6149  1.5595
 8314TIP3   OH246356   4.314   3.550   0.202  0.0361  0.5200  0.0472
 8314TIP3    H146357   4.227   3.521   0.175  0.0462  1.3646 -0.9052
 8314TIP3    H246358   4.347   3.601   0.128  0.1109  2.7968  1.5826
 8315TIP3   OH246359   0.816   0.362  16.541 -0.2778  0.4014  0.6450
 8315TIP3    H146360   0.830   0.452  16.568  2.0105 -0.5819  3.0066
 8315TIP3    H246361   0.852   0.357  16.452 -2.3708  2.2554 -0.3574
 8316TIP3   OH246362   3.855   2.179  15.463 -0.0722 -0.0521  0.0726
 8316TIP3    H146363   3.950   2.176  15.463 -0.0785 -2.1706  1.9817
 8316TIP3    H246364   3.828   2.104  15.410 -0.6643  0.2697 -0.0906
 8317TIP3   OH246365   0.261   4.301  13.608 -0.4968  0.1384 -0.0637
 8317TIP3    H146366   0.235   4.296  13.516 -1.8851 -0.3179  0.3395
 8317TIP3    H246367   0.235   4.216  13.645  0.4843  0.1320  0.6539
 8318TIP3   OH246368   4.704   6.553   0.165  0.8123  0.2848  0.0259
 8318TIP3    H146369   4.686   6.564   0.072  0.7073  0.3323  0.0514
 8318TIP3    H246370   4.744   6.466   0.171  1.9757  0.8072 -0.2113
 8319TIP3   OH246371   2.442   3.755  13.951 -0.6485 -0.3313  0.6754
 8319TIP3    H146372   2.371   3.805  13.991 -0.4710 -0.4202  1.1170
 8319TIP3    H246373   2.469   3.694  14.020 -0.9056 -1.0782  0.1158
 8320TIP3   OH246374   3.646   6.385  13.409  0.0264  0.2900 -0.0763
 8320TIP3    H146375   3.630   6.475  13.380  1.0234  0.2202 -0.9224
 8320TIP3    H246376   3.582   6.332  13.362  0.7555  0.3402 -1.1571
 8321TIP3   OH246377   6.556   2.976   5.229 -0.0598 -0.1713 -0.2876
 8321TIP3    H146378   6.590   3.063   5.207 -1.1251 -0.2556 -2.3181
 8321TIP3    H246379   6.463   2.981   5.208 -0.2496 -1.6252  0.1781
 8322TIP3   OH246380   1.089   5.536   0.354  0.4933 -0.0506  0.4462
 8322TIP3    H146381   1.178   5.502   0.340  1.0101  1.0100  1.0382
 8322TIP3    H246382   1.096   5.588   0.434 -0.1583  1.7951 -0.6567
 8323TIP3   OH246383   3.044   0.897   5.621 -0.0912 -0.5577  0.2981
 8323TIP3    H146384   3.139   0.902   5.629 -0.1881  1.1090  0.5141
 8323TIP3    H246385   3.029   0.882   5.527  0.3838 -1.0004  0.2898
 8324TIP3   OH246386   0.389   5.223  16.207 -0.4576  0.1381  0.0704
 8324TIP3    H146387   0.448   5.172  16.262 -2.1812 -1.5685  0.4057
 8324TIP3    H246388   0.317   5.248  16.266 -0.5179  1.4523 -0.5325
 8325TIP3   OH246389   1.792   5.868   1.707 -0.5505  0.4712 -0.3846
 8325TIP3    H146390   1.824   5.956   1.726 -0.7271  0.0209  2.1842
 8325TIP3    H246391   1.725   5.852   1.773 -0.2947 -1.7147 -0.6177
 8326TIP3   OH246392   3.009   1.455   4.234  0.5555  0.7494  0.5052
 8326TIP3    H146393   2.951   1.532   4.236 -0.4247  0.0693 -0.8170
 8326TIP3    H246394   3.067   1.471   4.160  0.2638  0.1718  0.1472
 8327TIP3   OH246395   1.840   5.732   5.249 -0.5174  0.5233 -0.7521
 8327TIP3    H146396   1.809   5.662   5.192 -1.5443  0.9648 -0.7365
 8327TIP3    H246397   1.930   5.747   5.220  0.7920 -2.8652  1.2362
 8328TIP3   OH246398   0.971   4.953   4.239 -0.2462 -0.0053 -0.3153
 8328TIP3    H146399   1.026   4.973   4.315 -0.7614  1.9264 -0.4156
 8328TIP3    H246400   1.030   4.963   4.164 -0.7618  2.3041 -0.4394
 8329TIP3   OH246401   2.074   6.786  10.795  0.1044 -0.1371 -0.1730
 8329TIP3    H146402   1.999   6.811  10.849 -0.7896  0.4973 -1.6883
 8329TIP3    H246403   2.055   6.822  10.709  0.2004 -3.4188 -1.6603
 8330TIP3   OH246404   3.695   1.120   1.262  0.2281  0.3187 -0.4301
 8330TIP3    H146405   3.718   1.036   1.222  2.7232  1.3829 -1.2802
 8330TIP3    H246406   3.612   1.102   1.307  1.2206 -2.8670  0.2858
 8331TIP3   OH246407   0.602   4.177  16.020 -0.8883 -0.7796 -0.4670
 8331TIP3    H146408   0.535   4.236  15.986 -0.9741 -0.2785  0.5348
 8331TIP3    H246409   0.655   4.232  16.077 -1.1665 -1.7362  0.7347
 8332TIP3   OH246410   1.264   4.950  12.628  0.2057 -0.3877  0.2164
 8332TIP3    H146411   1.215   4.904  12.696  0.3181 -0.2490  0.3919
 8332TIP3    H246412   1.204   4.952  12.553  0.4815 -1.4798 -0.0392
 8333TIP3   OH246413   4.209   5.640   3.161  0.0003 -0.3263 -0.1734
 8333TIP3    H146414   4.259   5.561   3.143 -0.1539 -0.9353  1.9470
 8333TIP3    H246415   4.127   5.627   3.114  0.7643 -0.5318 -1.4526
 8334TIP3   OH246416   1.800   1.564  11.453  0.4420 -0.2782 -0.1643
 8334TIP3    H146417   1.771   1.500  11.518 -0.8305 -0.3681 -0.8006
 8334TIP3    H246418   1.748   1.642  11.470  1.7808  0.5082  0.4126
 8335TIP3   OH246419   1.672   0.630   1.799  0.2225 -0.3449  0.0206
 8335TIP3    H146420   1.614   0.613   1.726  0.4849 -1.1838 -0.0068
 8335TIP3    H246421   1.727   0.551   1.804 -0.1212 -0.5073  1.4184
 8336TIP3   OH246422   3.085   3.517   0.100 -0.0167  0.1386  1.3188
 8336TIP3    H146423   3.013   3.581   0.094 -0.8134 -0.8810 -0.8822
 8336TIP3    H246424   3.164   3.570   0.091 -0.7055  0.7588 -2.0372
 8337TIP3   OH246425   4.670   0.075   5.339 -0.0459  0.2921  0.3962
 8337TIP3    H146426   4.692  -0.014   5.367 -0.1023 -0.0110 -0.5086
 8337TIP3    H246427   4.713   0.085   5.254  1.0149  1.5891  1.0699
 8338TIP3   OH246428   6.138   1.712   0.572  0.8404  0.1252  0.2132
 8338TIP3    H146429   6.233   1.714   0.580  0.7459 -0.0989  1.5316
 8338TIP3    H246430   6.107   1.683   0.658 -0.4319  0.5030 -0.1027
 8339TIP3   OH246431   4.424   4.592  13.405  0.0813 -0.1119  0.1787
 8339TIP3    H146432   4.417   4.687  13.409 -1.1218 -0.2418  1.5586
 8339TIP3    H246433   4.471   4.568  13.486 -1.3477 -0.8345  0.8056
 8340TIP3   OH246434   3.676   5.942   2.023 -0.0508 -0.2481  0.1091
 8340TIP3    H146435   3.610   5.913   2.086 -1.8235  0.3026 -1.4567
 8340TIP3    H246436   3.758   5.907   2.057 -1.0058 -0.2202  2.5599
 8341TIP3   OH246437   5.296   0.158   1.339  0.5071 -0.2179 -0.2163
 8341TIP3    H146438   5.321   0.104   1.263 -0.0784  0.7150 -1.0961
 8341TIP3    H246439   5.267   0.241   1.300  2.0900  1.0074  1.1667
 8342TIP3   OH246440   0.497   4.033  12.594 -0.4133  0.0452  0.1194
 8342TIP3    H146441   0.575   4.055  12.643  0.4183 -0.6798 -0.8429
 8342TIP3    H246442   0.448   4.115  12.587  0.2172  0.4813  0.8072
 8343TIP3   OH246443   0.880   2.503  16.348 -0.3044  0.0950  0.7250
 8343TIP3    H146444   0.952   2.451  16.313  0.4556  2.5315 -1.4929
 8343TIP3    H246445   0.823   2.519  16.273 -2.2199 -0.2482  2.0615
 8344TIP3   OH246446   5.578   0.509  14.211  0.2649 -0.5929 -0.0711
 8344TIP3    H146447   5.528   0.452  14.269 -3.4376 -0.2146 -2.7541
 8344TIP3    H246448   5.541   0.494  14.124  2.3224  2.5166 -1.5683
 8345TIP3   OH246449   0.535   0.236   4.766 -0.0889 -0.0238  0.2773
 8345TIP3    H146450   0.537   0.305   4.700 -0.9648 -0.7145 -0.4712
 8345TIP3    H246451   0.469   0.174   4.735 -0.4404 -0.4066  1.7433
 8346TIP3   OH246452   1.625   4.010  12.924  0.2121  0.3111  0.1849
 8346TIP3    H146453   1.659   3.937  12.871 -1.3846 -0.9403  0.8326
 8346TIP3    H246454   1.673   4.002  13.007  0.4067  0.2987  0.0715
 8347TIP3   OH246455   4.417   3.464  12.678  0.6964  0.2512  0.7345
 8347TIP3    H146456   4.360   3.409  12.732  2.6695 -1.0973  1.5126
 8347TIP3    H246457   4.417   3.422  12.592  1.4289 -0.4357  1.0618
 8348TIP3   OH246458   5.737   4.134  13.321  0.3047  0.4581  0.4235
 8348TIP3    H146459   5.771   4.221  13.338  1.1758  0.1248  0.4441
 8348TIP3    H246460   5.791   4.076  13.376  2.2682 -0.4971 -2.3475
 8349TIP3   OH246461   4.556   5.881  14.809  0.1721 -0.9331 -0.1457
 8349TIP3    H146462   4.545   5.957  14.867 -1.3071  0.4788 -2.2155
 8349TIP3    H246463   4.616   5.823  14.857 -0.4388  0.5000  2.4696
 8350TIP3   OH246464   1.368   2.717  13.324  0.2031  0.3472  0.2395
 8350TIP3    H146465   1.410   2.669  13.395 -0.7047  0.3931  0.8250
 8350TIP3    H246466   1.323   2.789  13.368  0.7507  1.1753 -0.5259
 8351TIP3   OH246467   3.595   0.763  13.224 -0.4684  0.3351  0.0551
 8351TIP3    H146468   3.653   0.835  13.199  0.3044 -0.8511 -1.6511
 8351TIP3    H246469   3.554   0.735  13.141  0.1781 -1.9854  0.4890
 8352TIP3   OH246470   1.665   1.114   3.367  0.4912  0.0399 -0.0201
 8352TIP3    H146471   1.739   1.100   3.425 -0.1902  1.3130  1.1716
 8352TIP3    H246472   1.662   1.209   3.353 -0.3431 -0.0905 -0.8127
 8353TIP3   OH246473   4.066   6.418   3.673 -1.1397  0.6426 -0.3217
 8353TIP3    H146474   4.011   6.389   3.745 -1.6904  1.0676 -0.5591
 8353TIP3    H246475   4.151   6.435   3.712 -1.5427  1.2451  0.3112
 8354TIP3   OH246476   4.166   3.016  14.512  0.2749 -0.4487  0.5550
 8354TIP3    H146477   4.118   3.097  14.495  1.8728  0.6554  1.1643
 8354TIP3    H246478   4.126   2.980  14.591  0.6489  0.6274  1.2470
 8355TIP3   OH246479   5.936   1.329   5.312  0.0033 -0.0362  0.0518
 8355TIP3    H146480   5.934   1.423   5.298 -0.0843 -0.0448  0.0051
 8355TIP3    H246481   5.853   1.297   5.274  0.0643 -0.1393  0.0031
 8356TIP3   OH246482   3.000   5.768   2.020  0.2190  0.0537 -0.3179
 8356TIP3    H146483   2.963   5.828   2.085 -0.0637  0.3527 -0.7525
 8356TIP3    H246484   3.090   5.755   2.047  0.1201  0.2372  0.0945
 8357TIP3   OH246485   2.350   1.370  13.241 -0.3210 -0.4682 -0.1823
 8357TIP3    H146486   2.323   1.419  13.163  0.1431  1.6839  0.9542
 8357TIP3    H246487   2.417   1.309  13.210  1.4134  1.8592 -1.1263
 8358TIP3   OH246488   1.046   1.518   2.204 -0.1458 -0.1718 -0.4499
 8358TIP3    H146489   1.044   1.464   2.283 -0.3771  1.0738  0.4124
 8358TIP3    H246490   0.979   1.585   2.219 -2.1027 -1.5054 -2.8716
 8359TIP3   OH246491   6.604   0.972  10.789 -0.3056  0.5952 -0.0381
 8359TIP3    H146492   6.659   0.982  10.711 -0.7461  0.1557 -0.4144
 8359TIP3    H246493   6.517   0.950  10.754 -0.0813 -1.5084  0.6234
 8360TIP3   OH246494   2.580   3.743   5.743 -0.5769 -0.2480 -0.0070
 8360TIP3    H146495   2.577   3.703   5.656 -2.7064 -1.2286  0.4971
 8360TIP3    H246496   2.672   3.737   5.769 -0.2229 -1.4708 -1.4766
 8361TIP3   OH246497   6.315   3.898   0.949  0.3028 -0.1590 -0.0374
 8361TIP3    H146498   6.243   3.836   0.958  0.6493 -0.9594 -2.3101
 8361TIP3    H246499   6.392   3.850   0.979  0.1407  0.1362  0.8511
 8362TIP3   OH246500   3.955   1.321  11.280  0.0979  0.2142  0.4616
 8362TIP3    H146501   3.977   1.414  11.283  0.6889  0.1400 -1.1280
 8362TIP3    H246502   3.922   1.307  11.191  0.6579 -1.2284  0.4674
 8363TIP3   OH246503   5.241   1.033   1.478 -0.0256 -0.5634 -0.3252
 8363TIP3    H146504   5.337   1.030   1.482  0.0962  1.4126 -1.2900
 8363TIP3    H246505   5.215   1.077   1.559  0.0743  1.4826 -1.3667
 8364TIP3   OH246506   0.884   0.152  10.658 -0.5172  0.4278  0.1371
 8364TIP3    H146507   0.860   0.203  10.580 -2.1434  1.7679  1.4561
 8364TIP3    H246508   0.802   0.110  10.685 -0.2573  0.9524  1.7963
 8365TIP3   OH246509   2.031   4.942   1.474 -0.5282 -0.0749  0.4930
 8365TIP3    H146510   2.115   4.911   1.508 -0.2355  1.0299  0.7993
 8365TIP3    H246511   1.973   4.944   1.550 -0.3636  0.7268  0.6045
 8366TIP3   OH246512   3.940   2.677   0.468  0.5049  0.8340 -0.5857
 8366TIP3    H146513   4.011   2.617   0.447 -0.5215 -0.4008 -0.5457
 8366TIP3    H246514   3.875   2.663   0.399  0.8176  2.8582 -1.3439
 8367TIP3   OH246515   5.143   2.785   4.503  0.6194 -0.0437  0.2330
 8367TIP3    H146516   5.166   2.774   4.410 -2.5263  0.2126 -0.6142
 8367TIP3    H246517   5.077   2.718   4.520 -2.3709  2.9659  0.9667
 8368TIP3   OH246518   5.662   4.004   3.930 -0.6482 -0.6484  0.1075
 8368TIP3    H146519   5.620   3.931   3.886 -1.5056 -0.3206  0.3551
 8368TIP3    H246520   5.592   4.043   3.983 -0.3118  0.5676 -0.3079
 8369TIP3   OH246521   5.164   4.772  14.091  0.1766  0.1923 -0.2640
 8369TIP3    H146522   5.139   4.794  14.181  1.8570 -1.0866  0.5594
 8369TIP3    H246523   5.247   4.819  14.078  0.2017 -0.0440 -0.9459
 8370TIP3   OH246524   0.553   6.618  15.393  0.2673 -0.4635 -0.1649
 8370TIP3    H146525   0.545   6.578  15.306 -0.9540 -1.4359  0.3763
 8370TIP3    H246526   0.565   6.543  15.452  1.1506  0.1967  0.5032
 8371TIP3   OH246527   0.946   3.490  15.488 -0.1088  0.2732 -0.1130
 8371TIP3    H146528   0.873   3.551  15.496 -0.4346 -0.0538 -0.5697
 8371TIP3    H246529   0.909   3.414  15.444  0.1750 -0.4648  0.9013
 8372TIP3   OH246530   4.405   6.205  17.182  0.3177 -0.4895  0.0295
 8372TIP3    H146531   4.416   6.212  17.276 -0.9967 -0.5419  0.2022
 8372TIP3    H246532   4.313   6.230  17.167  0.7969  0.5199 -1.3415
 8373TIP3   OH246533   4.895   4.859  16.498 -0.3192  0.1623  0.1912
 8373TIP3    H146534   4.802   4.859  16.475 -0.1340 -0.7861 -0.5841
 8373TIP3    H246535   4.939   4.895  16.421  0.1032 -0.9118 -0.0663
 8374TIP3   OH246536   3.552   1.544   1.371  0.0896 -0.0702  0.1075
 8374TIP3    H146537   3.597   1.531   1.288 -0.2524  1.3460 -0.3019
 8374TIP3    H246538   3.608   1.605   1.419 -1.0691  1.1950 -0.1490
 8375TIP3   OH246539   3.276   6.647  15.547 -0.9424 -0.5488 -0.0085
 8375TIP3    H146540   3.334   6.572  15.537 -0.7274 -0.3614 -0.1453
 8375TIP3    H246541   3.220   6.624  15.622 -1.1823 -1.0440 -0.3365
 8376TIP3   OH246542   1.524   4.967   3.462  0.3289 -0.3281 -0.1199
 8376TIP3    H146543   1.462   4.915   3.412  0.1314 -0.7313  0.5391
 8376TIP3    H246544   1.580   4.903   3.507  1.0137  0.0283 -0.4532
 8377TIP3   OH246545   5.108   3.879  14.607  0.2913  0.1227 -0.1797
 8377TIP3    H146546   5.016   3.892  14.630  0.2514  0.0610 -0.3064
 8377TIP3    H246547   5.153   3.874  14.692  0.2821  0.8830 -0.1328
 8378TIP3   OH246548   4.547   0.042   5.788  0.4172  0.0098  0.4370
 8378TIP3    H146549   4.607  -0.030   5.769  0.3141  0.5352 -2.0930
 8378TIP3    H246550   4.589   0.119   5.748 -0.5231  0.9409  1.2225
 8379TIP3   OH246551   1.664   2.157  14.827  0.1066 -0.5156  0.0953
 8379TIP3    H146552   1.702   2.235  14.866 -0.5366  0.2920 -0.8764
 8379TIP3    H246553   1.731   2.124  14.767 -0.1000 -0.0081 -0.4155
 8380TIP3   OH246554   0.802   3.180  12.940 -0.3202 -0.3938  0.1768
 8380TIP3    H146555   0.805   3.222  12.854 -1.3338  0.1747  0.4189
 8380TIP3    H246556   0.888   3.139  12.949  0.6997  1.5946 -0.0841
 8381TIP3   OH246557   0.221   1.434   5.956  0.3461 -0.2502  0.0314
 8381TIP3    H146558   0.182   1.354   5.992  2.2286 -0.9736  0.5017
 8381TIP3    H246559   0.315   1.416   5.952  0.4517  0.7600 -2.9052
 8382TIP3   OH246560   1.911   0.247  11.056  0.5182  0.3485  0.1034
 8382TIP3    H146561   1.983   0.276  11.001  0.4084 -0.3911 -0.4389
 8382TIP3    H246562   1.905   0.152  11.040 -1.4901  0.6302 -0.9600
 8383TIP3   OH246563   5.995   1.914   1.190  0.8979  0.2971 -0.2777
 8383TIP3    H146564   5.996   1.990   1.132  1.8022 -0.7659 -1.7042
 8383TIP3    H246565   6.049   1.940   1.264  0.8721  1.1863 -0.5572
 8384TIP3   OH246566   2.335   3.738   5.239  0.4591  0.1365  0.2392
 8384TIP3    H146567   2.401   3.771   5.179  0.0428  1.6591  0.6046
 8384TIP3    H246568   2.346   3.790   5.319  0.2567 -1.0835  1.0877
 8385TIP3   OH246569   6.586   5.027  12.737 -0.5864 -0.1887  0.6794
 8385TIP3    H146570   6.626   5.098  12.786 -0.1794 -0.1271  0.2628
 8385TIP3    H246571   6.503   5.062  12.705 -0.2369  0.1999  0.2041
 8386TIP3   OH246572   1.049   1.927  14.205 -0.3316 -0.1567 -0.9189
 8386TIP3    H146573   1.104   2.006  14.210 -0.5627 -0.0709  0.4650
 8386TIP3    H246574   1.104   1.863  14.158  0.9383 -0.0349  0.3405
 8387TIP3   OH246575   2.829   3.793  10.344  0.7136  0.3809 -0.1855
 8387TIP3    H146576   2.893   3.725  10.365 -2.0806 -2.3048  0.1763
 8387TIP3    H246577   2.777   3.802  10.423 -1.4565  0.0123 -1.5199
 8388TIP3   OH246578   6.078   5.418   0.939 -0.1223  0.2302 -0.0210
 8388TIP3    H146579   6.030   5.493   0.976 -0.0526 -0.3221  1.2320
 8388TIP3    H246580   6.104   5.367   1.016 -0.2597 -1.1431 -0.8827
 8389TIP3   OH246581   1.872   6.508   2.174 -0.2768 -0.0144 -0.2102
 8389TIP3    H146582   1.936   6.443   2.201 -0.1493 -0.5609 -1.7702
 8389TIP3    H246583   1.832   6.539   2.256  2.0493  0.4247  0.7940
 8390TIP3   OH246584   4.976   4.394  13.650 -0.3531  0.5968 -0.5792
 8390TIP3    H146585   4.977   4.302  13.626 -1.9886  0.9414 -2.0414
 8390TIP3    H246586   5.067   4.415  13.670 -0.4169 -2.1595  3.1254
 8391TIP3   OH246587   4.019   2.671   3.783 -0.2643 -0.3349  0.0120
 8391TIP3    H146588   4.114   2.661   3.783 -0.3605 -1.3984 -1.3634
 8391TIP3    H246589   3.987   2.600   3.838 -0.3808 -1.5320 -1.5571
 8392TIP3   OH246590   1.538   3.838   3.202  0.0194  0.4929 -0.0321
 8392TIP3    H146591   1.582   3.756   3.222  2.1081  1.2178 -1.4448
 8392TIP3    H246592   1.457   3.836   3.253  0.1206 -2.3452  0.0705
 8393TIP3   OH246593   4.020   2.975  15.155  0.0104  0.6032 -0.0005
 8393TIP3    H146594   3.938   2.970  15.205  0.7001 -1.0166  1.0060
 8393TIP3    H246595   3.992   3.003  15.068 -1.3100  2.6425  1.0263
 8394TIP3   OH246596   1.199   3.226  14.955  0.1762 -0.5760 -0.2120
 8394TIP3    H146597   1.266   3.293  14.941  0.2783 -1.0357 -2.0417
 8394TIP3    H246598   1.245   3.143  14.940  0.1978 -1.1300  2.5715
 8395TIP3   OH246599   3.039   1.130  12.956 -0.0883 -0.3826  0.1214
 8395TIP3    H146600   3.119   1.079  12.966 -0.5453 -0.9331  1.1007
 8395TIP3    H246601   3.058   1.191  12.885  1.4284 -0.0661  0.7702
 8396TIP3   OH246602   2.971   3.053   1.789 -0.0791  0.7419  0.2156
 8396TIP3    H146603   3.046   3.014   1.834  0.6806  2.3011  0.3737
 8396TIP3    H246604   2.982   3.147   1.804 -1.2936  1.0844 -0.9813
 8397TIP3   OH246605   3.028   2.014   0.580  0.3879  0.8547  0.6158
 8397TIP3    H146606   3.090   2.021   0.508 -1.1445  0.1853 -0.7984
 8397TIP3    H246607   2.946   2.049   0.545 -0.6986 -0.6363  1.6122
 8398TIP3   OH246608   4.554   5.440   3.230  0.1996  0.0010 -0.3281
 8398TIP3    H146609   4.506   5.416   3.309  0.6692  0.1400  0.0032
 8398TIP3    H246610   4.490   5.434   3.160 -0.3739  0.4639  0.1505
 8399TIP3   OH246611   0.053   3.503  16.545  0.0405 -0.0975  0.1746
 8399TIP3    H146612   0.136   3.501  16.497 -0.4387 -0.1053 -0.6644
 8399TIP3    H246613   0.075   3.543  16.629  0.8040  0.3480 -0.2338
 8400TIP3   OH246614   3.519   4.337   0.584  0.2127 -0.2161  0.0632
 8400TIP3    H146615   3.545   4.253   0.546  0.7484 -0.6023  1.2573
 8400TIP3    H246616   3.562   4.339   0.670 -2.2066 -0.0587  1.3263
 8401TIP3   OH246617   2.173   3.843  13.041 -0.3213 -0.0878 -0.4985
 8401TIP3    H146618   2.127   3.870  13.121 -0.3395  1.5011 -1.0203
 8401TIP3    H246619   2.103   3.813  12.983 -0.2215 -2.1650  0.4017
 8402TIP3   OH246620   6.044   2.166  13.931  0.6316  0.3621 -0.1610
 8402TIP3    H146621   6.104   2.135  13.999 -0.7444  0.2044  1.0145
 8402TIP3    H246622   6.098   2.221  13.874  2.3891 -1.5455 -0.4121
 8403TIP3   OH246623   4.679   5.575   2.610 -0.0982 -0.5660  0.1719
 8403TIP3    H146624   4.714   5.559   2.522  0.1261  1.5730 -0.1561
 8403TIP3    H246625   4.584   5.567   2.600 -0.1899  1.2427 -0.6428
 8404TIP3   OH246626   2.912   3.923   2.347 -0.1293  0.1124 -0.1741
 8404TIP3    H146627   2.925   3.965   2.262 -1.9297  0.8845 -0.0793
 8404TIP3    H246628   2.984   3.956   2.401  0.5772  0.2197 -1.1568
 8405TIP3   OH246629   4.696   4.083  12.948 -0.0858  0.0004 -0.8908
 8405TIP3    H146630   4.694   4.178  12.963 -1.0914  0.1738 -2.1032
 8405TIP3    H246631   4.641   4.069  12.872 -0.0657 -1.5940 -0.6318
 8406TIP3   OH246632   3.525   3.491   5.578  0.2654 -0.2664 -0.2147
 8406TIP3    H146633   3.436   3.484   5.543  0.9298  0.5744 -2.1621
 8406TIP3    H246634   3.560   3.402   5.573 -0.1474 -0.4247 -0.3209
 8407TIP3   OH246635   1.624   0.254   3.669  0.2956  0.0161 -0.3881
 8407TIP3    H146636   1.644   0.192   3.739 -0.8260  0.0059 -0.0697
 8407TIP3    H246637   1.599   0.335   3.715  0.7041  0.3791 -0.7944
 8408TIP3   OH246638   2.721   1.538   4.924 -0.1215 -0.3178  0.0964
 8408TIP3    H146639   2.750   1.481   4.853 -1.5935 -0.7408 -0.1881
 8408TIP3    H246640   2.794   1.541   4.985  1.6615  1.0431 -2.0220
 8409TIP3   OH246641   5.697   5.068  13.691  0.2648  0.4975  0.5972
 8409TIP3    H146642   5.789   5.075  13.716  0.2034  1.8448  0.5095
 8409TIP3    H246643   5.664   4.994  13.742  1.9335 -1.4931 -1.0896
 8410TIP3   OH246644   0.792   5.046  12.210 -0.0481 -0.6845  0.0036
 8410TIP3    H146645   0.755   5.096  12.283  0.1940 -1.1758  0.4648
 8410TIP3    H246646   0.797   4.956  12.243  1.3144 -0.6695 -0.1456
 8411TIP3   OH246647   1.115   1.569  15.566 -0.0703 -0.0155  0.4169
 8411TIP3    H146648   1.124   1.613  15.482 -0.1794 -1.4889 -0.3882
 8411TIP3    H246649   1.163   1.624  15.627  1.2189  0.3397 -0.8818
 8412TIP3   OH246650   3.036   1.962   6.050  0.2907 -0.4126  0.7598
 8412TIP3    H146651   3.011   1.869   6.047  3.0134 -1.1791  0.1553
 8412TIP3    H246652   3.064   1.982   5.960  2.6494  0.0820  1.5584
 8413TIP3   OH246653   0.323   1.424  12.003 -0.2121  0.1496  0.0056
 8413TIP3    H146654   0.349   1.333  12.016 -0.3811  0.0420 -0.3865
 8413TIP3    H246655   0.253   1.419  11.937 -0.1691  0.5674 -0.0712
 8414TIP3   OH246656   0.150   6.220  16.638  0.6336 -0.8978  0.2848
 8414TIP3    H146657   0.235   6.220  16.682  1.4825  0.8414 -1.2870
 8414TIP3    H246658   0.168   6.257  16.551 -1.5757 -1.2623 -0.3547
 8415TIP3   OH246659   5.167   4.747   1.228  0.3718 -0.3809 -0.3905
 8415TIP3    H146660   5.193   4.839   1.242 -0.9112  0.1870 -1.6526
 8415TIP3    H246661   5.231   4.714   1.165 -0.4175  0.2834 -1.5655
 8416TIP3   OH246662   6.193   3.572  13.966 -0.0372 -0.4553 -0.1932
 8416TIP3    H146663   6.224   3.634  13.900 -0.0135  0.9584  1.1318
 8416TIP3    H246664   6.225   3.487  13.935 -0.4924  0.0927 -2.2913
 8417TIP3   OH246665   2.785   0.633   0.153  0.2661 -0.0266  0.0020
 8417TIP3    H146666   2.814   0.689   0.081 -0.4965 -0.0838 -0.3507
 8417TIP3    H246667   2.778   0.546   0.114 -2.4705  0.3564 -0.4880
 8418TIP3   OH246668   4.912   5.298   1.522 -0.4631  0.6525 -0.0339
 8418TIP3    H146669   4.818   5.313   1.512 -0.1114  2.4152 -0.9315
 8418TIP3    H246670   4.937   5.352   1.597  0.1172  1.4884 -0.8163
 8419TIP3   OH246671   2.932   3.420   5.802  0.3064 -0.3897  0.0659
 8419TIP3    H146672   2.995   3.477   5.847  0.3732  1.7309 -2.5776
 8419TIP3    H246673   2.985   3.353   5.761  0.3951 -1.3498  1.7302
 8420TIP3   OH246674   0.326   2.884  12.136  0.2587  0.2976  0.7626
 8420TIP3    H146675   0.353   2.816  12.074  1.2632  0.5641  0.9064
 8420TIP3    H246676   0.372   2.863  12.217  1.0298  1.4686  0.6425
 8421TIP3   OH246677   1.323   5.756  15.259  0.1828  0.6955  0.2449
 8421TIP3    H146678   1.373   5.742  15.340  0.0940  0.7972  0.3163
 8421TIP3    H246679   1.233   5.771  15.288  0.0048 -0.0242  0.0864
 8422TIP3   OH246680   0.637   3.917  13.502 -0.1065  0.0086 -0.0325
 8422TIP3    H146681   0.691   3.936  13.425 -0.7492 -1.1400 -0.7888
 8422TIP3    H246682   0.568   3.983  13.500 -0.1367 -0.0353 -0.4619
 8423TIP3   OH246683   4.464   6.300   5.153  0.4089  0.3615 -0.2056
 8423TIP3    H146684   4.472   6.226   5.213  1.8545 -0.2315 -1.0913
 8423TIP3    H246685   4.518   6.368   5.193  0.8668  0.1792 -0.5105
 8424TIP3   OH246686   3.108   1.964  10.246  0.0098 -0.0630  0.2422
 8424TIP3    H146687   3.197   1.931  10.256 -0.1396 -0.3114  0.7437
 8424TIP3    H246688   3.118   2.058  10.235  0.2277  0.1304  1.9841
 8425TIP3   OH246689   3.514   1.485   0.507  0.6808 -0.6096 -0.4503
 8425TIP3    H146690   3.514   1.398   0.468 -1.1767 -0.9258  0.2162
 8425TIP3    H246691   3.441   1.484   0.569  2.2749  0.5441  1.5325
 8426TIP3   OH246692   1.128   0.261  13.286  0.0745  0.7705 -0.1438
 8426TIP3    H146693   1.161   0.339  13.241  1.2165  1.0868  1.1725
 8426TIP3    H246694   1.182   0.190  13.253  1.2338  1.0779  1.0394
 8427TIP3   OH246695   3.309   3.659  16.506 -0.2549 -0.2985  0.0162
 8427TIP3    H146696   3.296   3.604  16.428  2.1797 -0.2758 -0.4371
 8427TIP3    H246697   3.320   3.747  16.471 -1.6121  0.1044  0.5752
 8428TIP3   OH246698   2.014   2.738  15.612  0.0538 -0.5755 -0.6518
 8428TIP3    H146699   1.965   2.701  15.538 -1.2976 -0.2298  0.0487
 8428TIP3    H246700   2.089   2.680  15.622 -2.2501 -3.4793  0.7119
 8429TIP3   OH246701   0.968   3.771   1.655 -0.0355 -0.3789  0.0829
 8429TIP3    H146702   0.948   3.856   1.694 -0.2550 -0.1671 -0.4734
 8429TIP3    H246703   0.996   3.716   1.728 -1.8181 -0.4298  0.7561
 8430TIP3   OH246704   2.360   1.995   2.700 -0.3109 -0.1703  0.0600
 8430TIP3    H146705   2.303   2.036   2.765 -1.2277 -2.0936  0.4940
 8430TIP3    H246706   2.302   1.975   2.626 -0.0067 -1.2586  0.1102
 8431TIP3   OH246707   4.525   1.896  14.200 -0.0379  0.1061 -0.3652
 8431TIP3    H146708   4.455   1.909  14.136  0.6903  3.3608 -0.6035
 8431TIP3    H246709   4.582   1.972  14.189  2.0645 -1.1014  1.6873
 8432TIP3   OH246710   1.818   4.239   0.987 -0.1981 -0.0861  0.1297
 8432TIP3    H146711   1.804   4.307   0.921  1.3094 -0.8350 -0.9944
 8432TIP3    H246712   1.858   4.286   1.061  0.1670  0.3788 -0.3557
 8433TIP3   OH246713   6.060   6.045  16.101  0.0304  0.2972  0.6139
 8433TIP3    H146714   5.986   6.090  16.061  0.5680  1.4920  0.9319
 8433TIP3    H246715   6.137   6.083  16.059  0.4352 -2.5588 -1.3771
 8434TIP3   OH246716   2.878   6.696   2.953  0.1881 -0.7245 -0.1709
 8434TIP3    H146717   2.891   6.609   2.991  1.7968  0.1239  1.2915
 8434TIP3    H246718   2.803   6.686   2.894 -0.6554 -2.7117  1.2007
 8435TIP3   OH246719   0.342   0.270  17.211 -1.0500  0.3715  0.2050
 8435TIP3    H146720   0.401   0.261  17.136  0.1979  0.3043  1.1760
 8435TIP3    H246721   0.259   0.232  17.182 -0.8727  1.2178 -1.4638
 8436TIP3   OH246722   5.750   3.780  16.781  0.1413  0.1089  0.0371
 8436TIP3    H146723   5.676   3.727  16.813 -0.4029  0.0548 -1.2659
 8436TIP3    H246724   5.759   3.849  16.846 -0.7825 -0.1390  0.4468
 8437TIP3   OH246725   3.915   4.565   5.792  0.4633 -0.1379 -0.5690
 8437TIP3    H146726   3.869   4.488   5.824 -2.0400  1.7720  0.5209
 8437TIP3    H246727   3.950   4.537   5.707  0.5962 -2.8105  0.2949
 8438TIP3   OH246728   5.765   4.549  15.130  0.1375 -0.2161  0.2539
 8438TIP3    H146729   5.798   4.605  15.200 -0.8451 -2.1676  2.3444
 8438TIP3    H246730   5.819   4.470  15.135  0.4878 -0.1235 -1.6332
 8439TIP3   OH246731   5.243   5.671   5.370  1.1233 -0.2538  0.1814
 8439TIP3    H146732   5.246   5.576   5.361  0.9195 -0.1805 -0.8214
 8439TIP3    H246733   5.161   5.689   5.414  1.1944 -0.5524  0.4325
 8440TIP3   OH246734   3.267   2.676  14.893 -0.7389 -0.4250  0.0223
 8440TIP3    H146735   3.328   2.610  14.859  0.4045  2.0244 -2.9304
 8440TIP3    H246736   3.306   2.704  14.975 -0.3085 -2.1502  0.4208
 8441TIP3   OH246737   4.444   2.976  15.774  0.2322  0.4061 -0.2829
 8441TIP3    H146738   4.508   2.908  15.751 -0.5384  0.1378 -1.6448
 8441TIP3    H246739   4.496   3.056  15.777  0.8095  0.0454 -0.4728
 8442TIP3   OH246740   4.053   0.956   0.686 -0.8056 -0.0830  0.4136
 8442TIP3    H146741   3.997   1.009   0.742  0.9032 -0.5542  2.6101
 8442TIP3    H246742   4.003   0.875   0.673 -1.8999  0.6556 -0.1101
 8443TIP3   OH246743   0.539   3.614   1.240  0.0415 -0.8464 -0.7361
 8443TIP3    H146744   0.565   3.570   1.321 -1.2531 -1.3671 -0.5813
 8443TIP3    H246745   0.615   3.605   1.182  1.8688  1.5518  1.1838
 8444TIP3   OH246746   5.042   5.168  17.086 -0.1725 -0.3204  0.7072
 8444TIP3    H146747   5.067   5.080  17.060 -0.3521  0.1726 -1.2542
 8444TIP3    H246748   4.972   5.192  17.024 -0.3584  1.0557  1.4368
 8445TIP3   OH246749   4.295   2.581  10.921 -0.1160 -0.0385 -0.6034
 8445TIP3    H146750   4.363   2.567  10.855 -0.3072  1.9666 -1.2462
 8445TIP3    H246751   4.312   2.669  10.955 -1.7659  0.0748 -0.0556
 8446TIP3   OH246752   2.656   5.931   5.620  0.0769  0.0698  0.1263
 8446TIP3    H146753   2.698   5.934   5.706  0.4148  2.1822 -0.0839
 8446TIP3    H246754   2.663   6.021   5.587  0.9140 -0.9221 -2.5560
 8447TIP3   OH246755   0.023   1.305   1.216 -0.7894 -0.0711 -0.1526
 8447TIP3    H146756   0.090   1.284   1.281 -0.7515 -1.1428 -0.5259
 8447TIP3    H246757   0.025   1.400   1.209 -0.1834 -0.0115  0.7704
 8448TIP3   OH246758   1.666   6.017   1.439 -0.2039  0.6524  0.0746
 8448TIP3    H146759   1.687   6.055   1.353  0.9185  1.0714  0.5279
 8448TIP3    H246760   1.616   5.938   1.418  0.9525  0.1853 -1.0107
 8449TIP3   OH246761   6.068   4.732   4.744  0.5164  0.0220  0.0018
 8449TIP3    H146762   6.142   4.683   4.709 -0.2057 -0.9927 -0.1168
 8449TIP3    H246763   5.996   4.714   4.684 -1.1448 -2.9478  2.7523
 8450TIP3   OH246764   4.247   1.966   0.962  0.2145 -0.3820  0.3947
 8450TIP3    H146765   4.200   1.947   0.881 -0.8450 -1.5785  1.2760
 8450TIP3    H246766   4.181   1.961   1.031  0.5332  3.3457  1.0721
 8451TIP3   OH246767   0.995   5.876   4.299 -0.7649  0.3081  0.4440
 8451TIP3    H146768   1.012   5.960   4.257  0.4761  0.1403  0.5747
 8451TIP3    H246769   0.900   5.872   4.308 -0.9206  1.1375 -0.7112
 8452TIP3   OH246770   4.323   5.224  13.412  0.2910 -0.3987 -0.2504
 8452TIP3    H146771   4.265   5.282  13.362  0.2988  0.2260  0.4732
 8452TIP3    H246772   4.389   5.196  13.348 -0.7329 -1.0294 -1.0555
 8453TIP3   OH246773   4.995   2.131  15.194  0.3521  0.3827 -0.8361
 8453TIP3    H146774   4.972   2.059  15.252  0.2883  2.1012  1.3528
 8453TIP3    H246775   5.059   2.182  15.244 -0.2472  2.3139 -1.9869
 8454TIP3   OH246776   5.693   0.105   4.685 -0.0494  0.5317  0.7979
 8454TIP3    H146777   5.733   0.128   4.769  0.2813 -1.4991  1.2201
 8454TIP3    H246778   5.615   0.055   4.708  0.4235 -0.6646 -0.0854
 8455TIP3   OH246779   1.039   0.815  15.186  0.4090 -0.9576 -0.3279
 8455TIP3    H146780   1.077   0.863  15.259 -2.8355  0.8751  0.2500
 8455TIP3    H246781   0.995   0.741  15.227  0.1547 -0.9632 -0.6076
 8456TIP3   OH246782   3.799   2.602  16.044  0.5433 -0.1591 -0.0907
 8456TIP3    H146783   3.769   2.533  15.985 -0.1646 -0.7528  0.9510
 8456TIP3    H246784   3.733   2.670  16.037 -0.1802 -0.7465  0.9234
 8457TIP3   OH246785   2.953   5.270  15.263  0.3971 -0.0139  0.1411
 8457TIP3    H146786   2.865   5.256  15.228  0.8887 -1.1350 -0.6910
 8457TIP3    H246787   3.006   5.290  15.186  0.5772  2.3147  0.8100
 8458TIP3   OH246788   0.450   6.774   4.966 -0.1139  0.3795  0.0802
 8458TIP3    H146789   0.470   6.766   4.873 -0.9946  0.9993 -0.1724
 8458TIP3    H246790   0.354   6.776   4.970 -0.1131 -0.7177  1.0916
 8459TIP3   OH246791   5.669   1.392  10.987 -0.1328 -0.2094 -0.4762
 8459TIP3    H146792   5.655   1.325  10.920  0.8599 -1.9708  1.0227
 8459TIP3    H246793   5.618   1.362  11.062  0.7120  0.4385  0.3676
 8460TIP3   OH246794   6.449   5.638  13.757 -0.0827  0.0914 -0.3143
 8460TIP3    H146795   6.459   5.608  13.847 -0.4236 -0.1293 -0.3478
 8460TIP3    H246796   6.414   5.562  13.710  0.2089  0.1677 -0.6581
 8461TIP3   OH246797   3.766   2.684  13.872  0.1079 -0.2544  0.0536
 8461TIP3    H146798   3.679   2.643  13.868  0.7142 -1.9419  3.0467
 8461TIP3    H246799   3.774   2.715  13.962  1.5041  2.4569 -0.9633
 8462TIP3   OH246800   1.916   0.393  11.741  0.4115  0.4767 -0.0612
 8462TIP3    H146801   1.894   0.405  11.833 -1.0353 -1.3257 -0.1451
 8462TIP3    H246802   1.907   0.480  11.702 -1.0900  0.8383  1.0697
 8463TIP3   OH246803   1.224   0.254  14.741 -0.2912  0.0501  0.2579
 8463TIP3    H146804   1.305   0.252  14.792 -0.0448  0.9480 -0.0870
 8463TIP3    H246805   1.252   0.277  14.653 -0.6189 -2.3389 -0.4973
 8464TIP3   OH246806   4.144   5.088   4.031 -0.1574 -0.5073 -0.5545
 8464TIP3    H146807   4.091   5.086   3.952 -1.4306  1.3390  0.2073
 8464TIP3    H246808   4.210   5.155   4.013 -0.6871  0.1918  0.0703
 8465TIP3   OH246809   0.666   2.650   1.944  0.2668 -0.2484  0.1283
 8465TIP3    H146810   0.761   2.659   1.933  0.4385 -1.1440  0.8006
 8465TIP3    H246811   0.637   2.603   1.865  0.6296 -1.4308  0.6873
 8466TIP3   OH246812   1.982   5.624   1.189 -0.0679  0.3380 -0.0702
 8466TIP3    H146813   2.001   5.530   1.193 -0.9202  0.1599 -0.2711
 8466TIP3    H246814   1.931   5.641   1.268 -1.3334  0.3108 -0.8736
 8467TIP3   OH246815   3.077   1.808  14.705 -0.5998  0.0017  0.3615
 8467TIP3    H146816   3.090   1.880  14.644 -1.5558 -0.0530  0.0738
 8467TIP3    H246817   3.144   1.820  14.772 -0.3754  0.8084 -0.0096
 8468TIP3   OH246818   6.177   5.056   0.189  0.0711  0.3211 -0.0406
 8468TIP3    H146819   6.088   5.068   0.155  0.3926  2.6193 -0.1106
 8468TIP3    H246820   6.233   5.074   0.114  0.5854 -3.0925 -0.5417
 8469TIP3   OH246821   4.061   4.954  14.109 -0.2615 -0.4232  0.2590
 8469TIP3    H146822   4.006   4.950  14.031  0.1394 -1.2485  0.0076
 8469TIP3    H246823   4.124   4.883  14.097 -1.1570 -1.5721  2.0577
 8470TIP3   OH246824   4.909   4.486   1.548 -0.4015 -0.2660  0.5839
 8470TIP3    H146825   4.934   4.557   1.490  0.0899 -0.4034  0.6228
 8470TIP3    H246826   4.898   4.527   1.634  0.7553 -0.3828  0.7944
 8471TIP3   OH246827   5.522   2.111  10.345 -0.0108  0.2860 -0.9482
 8471TIP3    H146828   5.465   2.037  10.328 -0.1344  0.5919 -1.8692
 8471TIP3    H246829   5.463   2.187  10.346  0.1901  0.4395 -0.5500
 8472TIP3   OH246830   3.903   3.105   5.540 -0.1745  0.5068  0.7028
 8472TIP3    H146831   3.941   3.068   5.460 -1.4868  1.2822 -0.2931
 8472TIP3    H246832   3.957   3.181   5.560 -0.2370  0.6812  0.1934
 8473TIP3   OH246833   1.865   1.822  16.324  0.4500 -0.4634 -0.1725
 8473TIP3    H146834   1.835   1.783  16.406  0.2201 -1.8920 -0.9183
 8473TIP3    H246835   1.960   1.834  16.335  0.0640  1.6137  1.1912
 8474TIP3   OH246836   1.857   2.624  12.770 -0.5771  0.1141  0.7259
 8474TIP3    H146837   1.813   2.559  12.825 -2.9462  1.3395  0.3815
 8474TIP3    H246838   1.801   2.630  12.692  3.0669 -2.0762 -2.1790
 8475TIP3   OH246839   5.758   2.588   2.464 -0.0605  0.4846  0.2303
 8475TIP3    H146840   5.702   2.528   2.513  0.4186 -0.7466 -0.7163
 8475TIP3    H246841   5.847   2.559   2.482  0.1177 -0.1357 -1.5274
 8476TIP3   OH246842   6.386   3.572   5.089  0.3573  0.0935  0.5693
 8476TIP3    H146843   6.478   3.550   5.097  0.4114 -0.2728 -0.8656
 8476TIP3    H246844   6.378   3.660   5.126  1.6150  0.8658 -0.9417
 8477TIP3   OH246845   4.898   4.802  12.516 -0.6226  0.6328 -0.8245
 8477TIP3    H146846   4.914   4.800  12.610 -0.8810  0.6778 -0.7766
 8477TIP3    H246847   4.948   4.728  12.481 -1.6562 -0.2542 -0.4652
 8478TIP3   OH246848   3.964   4.865  14.386  0.1848  0.1792 -0.3179
 8478TIP3    H146849   3.978   4.895  14.296 -0.8523 -0.9829 -0.8756
 8478TIP3    H246850   3.869   4.856  14.395  0.2643  0.4176  0.9447
 8479TIP3   OH246851   4.973   3.735   0.632 -0.1460 -0.1819 -0.7942
 8479TIP3    H146852   4.988   3.828   0.653 -0.4784  0.0509 -1.5632
 8479TIP3    H246853   5.023   3.687   0.698 -1.4696  0.5232  0.7422
 8480TIP3   OH246854   2.755   1.281   2.943 -0.0701  0.3772 -0.4358
 8480TIP3    H146855   2.708   1.311   3.020 -1.0445 -1.7524 -0.1611
 8480TIP3    H246856   2.835   1.334   2.941 -1.4367  2.4971  0.3317
 8481TIP3   OH246857   5.013   0.157  13.363 -0.1894  0.4705 -0.4125
 8481TIP3    H146858   4.918   0.159  13.346 -0.4102 -1.0017  0.5572
 8481TIP3    H246859   5.021   0.108  13.444  1.4210  0.6097 -0.4846
 8482TIP3   OH246860   3.121   4.219   1.284  0.1650 -0.0838  0.5267
 8482TIP3    H146861   3.146   4.243   1.195  0.1370 -0.7489  0.3361
 8482TIP3    H246862   3.124   4.301   1.333 -1.5575  0.6221 -0.4902
 8483TIP3   OH246863   5.596   4.874   1.141  0.4005  0.8384  0.0335
 8483TIP3    H146864   5.573   4.818   1.067 -2.0920  1.8922 -0.0440
 8483TIP3    H246865   5.649   4.944   1.102  2.4041 -0.7100 -0.0813
 8484TIP3   OH246866   4.318   0.303  12.127 -0.1216 -0.0631 -0.6086
 8484TIP3    H146867   4.259   0.240  12.169  0.1032  1.5786  2.3561
 8484TIP3    H246868   4.401   0.256  12.118  0.0121 -0.2997  1.4709
 8485TIP3   OH246869   1.754   1.895   4.896 -0.2101  0.8341  0.2748
 8485TIP3    H146870   1.812   1.821   4.878 -2.3190 -0.5495 -1.0689
 8485TIP3    H246871   1.803   1.949   4.958  2.0245 -0.8623  0.0654
 8486TIP3   OH246872   4.158   5.509   1.244  0.1289 -0.0196 -0.2568
 8486TIP3    H146873   4.246   5.488   1.273 -0.3777 -0.6001  0.9229
 8486TIP3    H246874   4.169   5.582   1.184  1.4045 -0.0281 -0.0402
 8487TIP3   OH246875   5.002   6.708   5.761  0.0473 -0.5514  0.4080
 8487TIP3    H146876   5.067   6.768   5.798  1.4955 -0.9090 -1.4359
 8487TIP3    H246877   5.040   6.621   5.775 -1.0375 -0.9047  1.1773
 8488TIP3   OH246878   4.314   4.603   4.651  0.2007  0.0749 -0.6702
 8488TIP3    H146879   4.251   4.536   4.677 -1.0957  0.7439 -1.9895
 8488TIP3    H246880   4.394   4.555   4.632  0.6420 -0.6399  2.6309
 8489TIP3   OH246881   5.945   6.455   1.679  0.1440 -0.0702  0.4535
 8489TIP3    H146882   5.976   6.521   1.742 -1.0310 -0.5685  1.5681
 8489TIP3    H246883   5.895   6.505   1.614  0.3121  0.2908  0.6025
 8490TIP3   OH246884   0.906   4.656   4.969 -0.5033 -0.0804 -0.7402
 8490TIP3    H146885   0.980   4.599   4.946 -0.9688 -0.2194 -1.9514
 8490TIP3    H246886   0.946   4.739   4.994  0.2664 -1.3621  2.4681
 8491TIP3   OH246887   0.276   0.400  13.488  0.1460  0.7866  0.1089
 8491TIP3    H146888   0.372   0.398  13.497  0.1112 -3.4807  0.4760
 8491TIP3    H246889   0.261   0.397  13.393  0.4130 -0.8496  0.1001
 8492TIP3   OH246890   1.029   6.294   3.918 -0.0683 -0.3785  0.0549
 8492TIP3    H146891   0.948   6.299   3.968  0.0366 -2.8781  0.5733
 8492TIP3    H246892   1.097   6.286   3.984  0.3086 -1.2503 -0.4361
 8493TIP3   OH246893   5.857   2.930  11.617 -0.0209 -0.0177  0.0482
 8493TIP3    H146894   5.873   2.985  11.693 -0.1531 -1.8163  1.4248
 8493TIP3    H246895   5.808   2.986  11.556  0.5677  1.6049  1.0449
 8494TIP3   OH246896   1.038   1.663  15.035  0.0383 -0.1027  0.2389
 8494TIP3    H146897   1.013   1.571  15.034  3.4220 -1.1280  1.1171
 8494TIP3    H246898   1.021   1.691  15.125  0.2272 -0.2561  0.3242
 8495TIP3   OH246899   0.359   6.391  14.908  0.1357  0.0861 -0.6053
 8495TIP3    H146900   0.335   6.482  14.888  2.9381  1.3937  1.7025
 8495TIP3    H246901   0.451   6.384  14.885 -0.1466 -2.3756 -1.2099
 8496TIP3   OH246902   2.931   2.282   1.056  0.7320 -0.3622  0.1495
 8496TIP3    H146903   2.925   2.377   1.055 -0.7344 -0.4581 -1.6037
 8496TIP3    H246904   2.944   2.260   1.148 -0.0520  1.4711  0.7140
 8497TIP3   OH246905   6.108   2.233   3.855 -0.1164 -0.1299  0.0332
 8497TIP3    H146906   6.186   2.248   3.801  1.4877 -0.9616  2.0266
 8497TIP3    H246907   6.109   2.305   3.918 -0.1485 -0.9172  0.9472
 8498TIP3   OH246908   4.630   0.932  14.700 -0.3100  0.0599 -0.1447
 8498TIP3    H146909   4.643   1.027  14.697 -1.2886  0.2057 -0.0993
 8498TIP3    H246910   4.535   0.921  14.691 -0.3488 -0.8433  1.2414
 8499TIP3   OH246911   1.730   1.227  17.161 -0.3303  0.5980  0.3006
 8499TIP3    H146912   1.673   1.303  17.164 -0.4185  0.5104  1.1413
 8499TIP3    H246913   1.771   1.225  17.248 -0.2050 -0.2084  0.2273
 8500TIP3   OH246914   5.276   2.238  14.467  0.0276 -0.5896 -0.3239
 8500TIP3    H146915   5.334   2.313  14.456  0.6759 -1.2162 -1.1722
 8500TIP3    H246916   5.308   2.172  14.406 -1.7779 -0.8249 -1.0634
 8501TIP3   OH246917   1.261   5.662  17.044 -0.3298  0.1791  0.2475
 8501TIP3    H146918   1.234   5.588  17.099 -0.1291  0.1097  0.2528
 8501TIP3    H246919   1.260   5.737  17.103 -0.2062  0.1211  0.3248
 8502TIP3   OH246920   1.217   2.719   5.035 -0.3995 -0.5558 -0.2265
 8502TIP3    H146921   1.249   2.726   4.945 -3.1710 -0.7448 -1.2700
 8502TIP3    H246922   1.137   2.666   5.028  0.0883 -1.7317  2.5384
 8503TIP3   OH246923   5.200   1.062  12.218 -0.5486 -0.1757  0.1527
 8503TIP3    H146924   5.136   1.065  12.147 -1.8072 -2.6633  1.1138
 8503TIP3    H246925   5.162   1.001  12.282  2.8064 -1.8117  0.7138
 8504TIP3   OH246926   3.151   0.974   2.792  0.1794 -0.3052  0.3732
 8504TIP3    H146927   3.112   1.035   2.854  0.0682 -0.6652  0.6576
 8504TIP3    H246928   3.233   0.947   2.833  0.6314  0.2871 -0.1276
 8505TIP3   OH246929   1.179   0.323  16.583  0.0423 -0.0912 -0.1571
 8505TIP3    H146930   1.101   0.365  16.620 -1.2370 -1.2626 -1.4522
 8505TIP3    H246931   1.206   0.383  16.513 -0.9858 -0.7106 -1.1148
 8506TIP3   OH246932   6.257   2.626   1.959  0.1005  0.7738  0.3520
 8506TIP3    H146933   6.329   2.576   1.919 -0.3268 -0.1395  0.7064
 8506TIP3    H246934   6.188   2.624   1.892  0.2153  1.1949  0.2233
 8507TIP3   OH246935   3.379   0.783   3.145  0.3246  0.3920  0.1432
 8507TIP3    H146936   3.460   0.742   3.114  1.1450  0.6273  1.8797
 8507TIP3    H246937   3.399   0.809   3.235 -1.2197  1.7583  0.1161
 8508TIP3   OH246938   3.842   1.860   1.178  0.8908 -0.1599  0.5101
 8508TIP3    H146939   3.933   1.887   1.165  1.2366 -1.6771 -0.3150
 8508TIP3    H246940   3.846   1.795   1.248  0.5326 -0.7294  0.0066
 8509TIP3   OH246941   5.520   3.847   0.415  0.8482  0.3572 -0.0110
 8509TIP3    H146942   5.516   3.753   0.400 -0.4305  0.5257 -0.8501
 8509TIP3    H246943   5.577   3.880   0.345  1.1931  0.2286  0.2073
 8510TIP3   OH246944   5.568   6.358   3.004  0.4056 -0.2011 -0.0666
 8510TIP3    H146945   5.567   6.396   3.092 -2.3881 -0.6007  0.1129
 8510TIP3    H246946   5.598   6.429   2.948 -1.4093  1.2319  0.7286
 8511TIP3   OH246947   1.923   5.737   0.656  0.0197  0.1331  0.1837
 8511TIP3    H146948   1.992   5.687   0.700 -1.3834 -0.3293  1.9149
 8511TIP3    H246949   1.843   5.687   0.673 -0.9723  1.4875 -0.4545
 8512TIP3   OH246950   2.597   5.843  12.180 -0.6179  0.7716 -0.0747
 8512TIP3    H146951   2.606   5.892  12.098  0.0424  2.5226  0.9998
 8512TIP3    H246952   2.687   5.833  12.212 -0.9506  1.0678  0.9762
 8513TIP3   OH246953   5.407   0.511   5.008 -0.4094  0.3417  0.7675
 8513TIP3    H146954   5.317   0.513   4.976  0.2526  0.6955 -1.2008
 8513TIP3    H246955   5.430   0.603   5.020 -0.4148  0.2371  1.5659
 8514TIP3   OH246956   6.634   0.898   2.437 -0.3277 -0.9903  0.0251
 8514TIP3    H146957   6.671   0.852   2.512 -1.9127  1.1381  2.1981
 8514TIP3    H246958   6.692   0.974   2.425  0.0701 -1.4640 -1.0893
 8515TIP3   OH246959   3.392   0.729  13.404 -0.5187 -0.1254 -0.7584
 8515TIP3    H146960   3.376   0.635  13.411 -0.2815 -0.1880 -1.0590
 8515TIP3    H246961   3.477   0.736  13.361 -0.1926  0.2169 -0.0751
 8516TIP3   OH246962   2.004   5.818   4.495  0.7575 -0.2683  0.3026
 8516TIP3    H146963   2.033   5.898   4.539 -3.9373  2.5011 -1.2605
 8516TIP3    H246964   1.942   5.778   4.556  0.4599 -0.8333 -0.3666
 8517TIP3   OH246965   4.869   6.387  13.340 -0.1724  0.2036  0.0899
 8517TIP3    H146966   4.932   6.323  13.375 -0.8200  0.1174  1.1130
 8517TIP3    H246967   4.903   6.472  13.366  0.0377  0.2139 -0.2111
 8518TIP3   OH246968   6.125   1.724  11.235  0.1223  0.0252  0.1297
 8518TIP3    H146969   6.150   1.654  11.295 -1.3037  0.7877  1.6561
 8518TIP3    H246970   6.106   1.799  11.292 -1.7785  0.6137 -1.2163
 8519TIP3   OH246971   0.443   2.674  17.144  0.0222 -0.2064  0.6118
 8519TIP3    H146972   0.421   2.668  17.237  0.6533 -0.0152  0.7761
 8519TIP3    H246973   0.451   2.582  17.116 -1.0780 -0.2803  0.5220
 8520TIP3   OH246974   6.270   2.621   3.927  0.2936 -0.1221 -0.1824
 8520TIP3    H146975   6.196   2.605   3.868 -0.8196  1.6702  0.6816
 8520TIP3    H246976   6.327   2.680   3.878  0.8874 -1.0304 -0.6132
 8521TIP3   OH246977   0.854   5.714  12.680 -0.2950  0.0147  0.2352
 8521TIP3    H146978   0.864   5.808  12.665 -1.0096  0.0287 -0.1775
 8521TIP3    H246979   0.801   5.683  12.606  0.0875 -0.7434  0.2702
 8522TIP3   OH246980   0.458   6.531   3.431  0.1368 -0.2279 -0.0422
 8522TIP3    H146981   0.468   6.572   3.345  2.5781 -0.5956  0.0399
 8522TIP3    H246982   0.460   6.605   3.493  0.5336 -0.1267 -0.1720
 8523TIP3   OH246983   5.572   2.707  11.339  0.3613  0.0746  0.3758
 8523TIP3    H146984   5.584   2.691  11.245 -0.5266 -1.0880  0.4524
 8523TIP3    H246985   5.652   2.675  11.379  0.5903  0.2386  0.0560
 8524TIP3   OH246986   2.978   2.570   5.509 -0.4460 -0.0846 -0.2732
 8524TIP3    H146987   2.941   2.482   5.508  1.0049 -0.7310  0.1003
 8524TIP3    H246988   2.936   2.613   5.584  0.1562 -1.0833  0.6688
 8525TIP3   OH246989   0.309   1.618  12.207 -0.3024 -0.4289 -1.0636
 8525TIP3    H146990   0.258   1.570  12.142 -0.6528 -1.4352 -0.0540
 8525TIP3    H246991   0.245   1.652  12.269  0.1126 -0.2616 -0.7216
 8526TIP3   OH246992   6.174   2.954   5.954  0.0235  0.2188 -0.1313
 8526TIP3    H146993   6.082   2.979   5.950  0.0839  0.6418  0.9154
 8526TIP3    H246994   6.173   2.858   5.961 -0.3798  0.3053  1.0677
 8527TIP3   OH246995   1.241   3.705  13.446  0.0986  0.4713  0.0075
 8527TIP3    H146996   1.229   3.762  13.522 -1.7431  0.3506 -0.1710
 8527TIP3    H246997   1.307   3.749  13.393 -0.2169  1.6913  0.6000
 8528TIP3   OH246998   6.757   4.940   3.776 -0.1494 -0.2612 -0.6250
 8528TIP3    H146999   6.805   4.949   3.859 -1.6077 -0.3651  0.2476
 8528TIP3    H247000   6.750   4.845   3.763 -2.1355 -0.3070  0.4811
 8529TIP3   OH247001   1.067   4.343   2.339  0.2028  0.1154 -0.1371
 8529TIP3    H147002   1.131   4.384   2.396  0.5581  0.8582 -1.0571
 8529TIP3    H247003   0.991   4.401   2.340 -0.5398 -0.8518  1.0912
 8530TIP3   OH247004   0.244   5.649  11.845 -0.1701 -0.2796  0.0576
 8530TIP3    H147005   0.329   5.661  11.802 -0.8792  1.2847 -0.9307
 8530TIP3    H247006   0.266   5.606  11.928  1.6565  0.6516  0.0856
 8531TIP3   OH247007   1.216   6.744  17.092 -0.1472  0.3145  0.3390
 8531TIP3    H147008   1.244   6.752  17.001  0.4262 -0.2424  0.4651
 8531TIP3    H247009   1.296   6.755  17.143 -0.0058 -2.0930  0.6667
 8532TIP3   OH247010   4.813   1.141  14.924 -0.1359 -0.3147  0.0262
 8532TIP3    H147011   4.781   1.132  15.014 -2.7396  0.0801 -0.8025
 8532TIP3    H247012   4.733   1.148  14.871  1.3576  0.4005 -2.2131
 8533TIP3   OH247013   1.982   3.319  17.080 -0.0797  0.1328  0.1973
 8533TIP3    H147014   1.893   3.353  17.085 -0.1242  0.0615 -0.0736
 8533TIP3    H247015   2.029   3.380  17.023  0.3286  0.7625  1.2010
 8534TIP3   OH247016   2.888   4.035   5.435  0.8228  0.1761 -0.2096
 8534TIP3    H147017   2.829   3.961   5.445  0.7134  0.3999  0.8075
 8534TIP3    H247018   2.973   3.996   5.413  1.2294 -0.3634  2.2496
 8535TIP3   OH247019   4.216   0.178   0.079 -0.4576  0.7308  0.0793
 8535TIP3    H147020   4.206   0.125   0.158  1.1113  0.7620  0.3086
 8535TIP3    H247021   4.266   0.254   0.107 -0.7926  1.2567 -0.7293
 8536TIP3   OH247022   5.240   2.648  12.111  0.3272  0.3996 -0.8120
 8536TIP3    H147023   5.277   2.631  12.025  0.3759  1.3596 -0.9854
 8536TIP3    H247024   5.254   2.741  12.125  1.0411  0.0927  0.5858
 8537TIP3   OH247025   0.878   3.632  16.755  0.2980  0.4952  0.3671
 8537TIP3    H147026   0.844   3.594  16.836 -1.1911  0.3073 -0.3183
 8537TIP3    H247027   0.920   3.559  16.710  2.7966  1.0030  1.8119
 8538TIP3   OH247028   3.720   4.338   3.495 -0.7064 -0.0766  0.1947
 8538TIP3    H147029   3.654   4.391   3.539 -1.5714 -0.9276 -0.0625
 8538TIP3    H247030   3.678   4.253   3.483 -0.3318  0.0119 -1.8939
 8539TIP3   OH247031   4.493   2.541   0.911 -0.4614 -0.5780  0.2290
 8539TIP3    H147032   4.423   2.606   0.910 -0.2536 -0.3629 -0.5763
 8539TIP3    H247033   4.548   2.566   0.985 -1.7022 -1.2573  1.3946
 8540TIP3   OH247034   3.861   0.106   0.346  0.0961  0.4274  0.0561
 8540TIP3    H147035   3.828   0.086   0.434  1.8480  2.9291  1.3525
 8540TIP3    H247036   3.783   0.114   0.292 -0.9863 -1.7452  1.2232
 8541TIP3   OH247037   2.456   4.092  15.453 -0.2061  0.7850  0.7165
 8541TIP3    H147038   2.422   4.047  15.376  0.6207  2.0833 -0.4423
 8541TIP3    H247039   2.439   4.032  15.526 -1.0536 -0.4345 -0.4619
 8542TIP3   OH247040   4.043   3.511   5.782 -0.2957  0.3843  0.3526
 8542TIP3    H147041   3.964   3.563   5.789 -0.5266 -0.1873  2.4147
 8542TIP3    H247042   4.088   3.523   5.866  1.1725 -0.2986 -0.2987
 8543TIP3   OH247043   2.413   6.545  16.851  0.3889 -0.7828  0.2017
 8543TIP3    H147044   2.377   6.458  16.830  1.3546 -0.9573 -0.8200
 8543TIP3    H247045   2.508   6.532  16.849  0.5571  0.5639 -1.1592
 8544TIP3   OH247046   1.544   1.847   4.269 -0.4990 -0.0146  0.0981
 8544TIP3    H147047   1.549   1.810   4.180 -0.7944 -0.5585  0.3049
 8544TIP3    H247048   1.560   1.941   4.256 -1.9942  0.1534 -0.7251
 8545TIP3   OH247049   2.484   1.212  14.460 -0.1224 -0.1724  0.6606
 8545TIP3    H147050   2.479   1.116  14.463  0.9115 -0.2910 -0.6054
 8545TIP3    H247051   2.571   1.232  14.495 -0.7547  0.3764  1.9341
 8546TIP3   OH247052   3.997   1.130   2.651  0.2768  0.7293  0.4818
 8546TIP3    H147053   3.903   1.109   2.648  0.5208 -0.2490 -1.2112
 8546TIP3    H247054   4.013   1.177   2.569  1.0700  1.8093  1.2487
 8547TIP3   OH247055   3.035   2.373   4.117 -0.4908  0.0898  0.0249
 8547TIP3    H147056   2.978   2.385   4.193  0.1132 -0.4648  0.5706
 8547TIP3    H247057   3.123   2.368   4.154 -0.1826 -0.0418 -0.7271
 8548TIP3   OH247058   2.681   4.488   0.653  0.1803  0.2445 -0.2107
 8548TIP3    H147059   2.766   4.526   0.631  0.1796  0.0385 -0.5584
 8548TIP3    H247060   2.699   4.431   0.728  0.4122 -0.0894 -0.5220
 8549TIP3   OH247061   0.488   6.683   0.368  0.3827  0.3280  0.8844
 8549TIP3    H147062   0.424   6.670   0.297 -1.0547 -0.2661  2.2754
 8549TIP3    H247063   0.560   6.624   0.346 -1.3327 -2.0613  1.4335
 8550TIP3   OH247064   2.123   6.437  15.328 -0.2329  0.6208  0.1434
 8550TIP3    H147065   2.038   6.454  15.369 -0.0997 -1.3185  1.3207
 8550TIP3    H247066   2.172   6.389  15.395  2.5362  3.3858  0.2137
 8551TIP3   OH247067   2.813   5.946  16.714 -0.0553  0.6200 -0.2456
 8551TIP3    H147068   2.883   5.943  16.779  0.2327 -1.1493 -0.6088
 8551TIP3    H247069   2.841   6.014  16.652  2.0248 -0.9375 -1.0991
 8552TIP3   OH247070   4.254   1.997   5.577 -0.2631  0.1254 -0.4330
 8552TIP3    H147071   4.258   1.933   5.505  0.4438 -1.3599  0.8970
 8552TIP3    H247072   4.308   1.959   5.646 -1.7075  1.0750  1.2601
 8553TIP3   OH247073   1.687   4.991   5.936  0.4306 -0.1807  0.2099
 8553TIP3    H147074   1.746   5.064   5.915 -1.6520  1.2316 -0.9926
 8553TIP3    H247075   1.690   4.935   5.858 -0.6161  0.4663 -0.3086
 8554TIP3   OH247076   3.281   2.018  14.778  0.0394 -0.1105 -0.3544
 8554TIP3    H147077   3.372   2.000  14.798  0.1403  0.3250 -0.4149
 8554TIP3    H247078   3.284   2.083  14.709 -0.3177 -0.1251 -0.3863
 8555TIP3   OH247079   5.866   1.656   6.175  0.0030  0.2276  0.5563
 8555TIP3    H147080   5.840   1.568   6.146  2.0789  0.0028 -0.7106
 8555TIP3    H247081   5.790   1.711   6.158 -1.1131 -1.1986  0.8216
 8556TIP3   OH247082   3.410   3.852  15.715  0.2443  0.3742  0.2067
 8556TIP3    H147083   3.412   3.846  15.811 -2.6454  0.5023  0.3062
 8556TIP3    H247084   3.402   3.761  15.686  1.1890  0.3298  0.0752
 8557TIP3   OH247085   3.716   0.282   4.539  0.1333 -0.3769 -0.0226
 8557TIP3    H147086   3.636   0.331   4.521 -0.6438 -1.2770  0.8616
 8557TIP3    H247087   3.774   0.344   4.582  0.1014  0.4152 -1.1116
 8558TIP3   OH247088   6.345   2.386  16.143  0.3004 -0.5834  0.0144
 8558TIP3    H147089   6.325   2.293  16.133 -0.7951 -0.4955  1.3144
 8558TIP3    H247090   6.338   2.402  16.237 -1.0232  1.1463 -0.3679
 8559TIP3   OH247091   4.980   2.177  13.957  0.2676 -0.1362  0.4468
 8559TIP3    H147092   5.054   2.201  14.013 -0.3947  0.4668  1.0648
 8559TIP3    H247093   4.968   2.252  13.900 -1.9495  1.1311  2.5330
 8560TIP3   OH247094   4.167   3.908   1.460  0.0656  0.1020  0.2089
 8560TIP3    H147095   4.159   3.835   1.522 -0.3007  1.1175  1.3866
 8560TIP3    H247096   4.102   3.890   1.393  0.4463 -1.0042  0.1250
 8561TIP3   OH247097   5.339   1.856  11.858 -0.4455 -0.2919 -0.1670
 8561TIP3    H147098   5.421   1.905  11.856 -1.2808  1.1127 -0.4344
 8561TIP3    H247099   5.358   1.775  11.810  1.2369 -0.7362  1.1902
 8562TIP3   OH247100   2.795   1.850   4.802 -0.2938  0.4009 -0.3107
 8562TIP3    H147101   2.862   1.810   4.857 -0.9792 -0.8758 -0.3596
 8562TIP3    H247102   2.832   1.934   4.775  0.6670  0.3569  0.8450
 8563TIP3   OH247103   0.429   0.682  16.643  0.5681  0.0147 -0.1211
 8563TIP3    H147104   0.363   0.650  16.705 -0.6334 -0.0381 -1.3953
 8563TIP3    H247105   0.499   0.617  16.647 -0.3770 -1.0333 -0.2268
 8564TIP3   OH247106   2.820   4.326  16.162  0.4966  0.0063  0.2200
 8564TIP3    H147107   2.869   4.372  16.094  0.5598 -1.7369 -0.9504
 8564TIP3    H247108   2.870   4.339  16.242 -0.5481  3.6765  0.3745
 8565TIP3   OH247109   2.658   0.821   1.734  0.2533 -0.1627 -0.0361
 8565TIP3    H147110   2.617   0.850   1.652 -0.5731 -0.7387  0.1581
 8565TIP3    H247111   2.750   0.844   1.725 -0.1805  1.5020 -0.3420
 8566TIP3   OH247112   3.248   3.293  15.721  0.2099  0.6912  0.0138
 8566TIP3    H147113   3.247   3.333  15.634  2.0183 -0.5208 -0.5899
 8566TIP3    H247114   3.217   3.203  15.706  2.3726 -0.1224  0.2724
 8567TIP3   OH247115   4.262   5.079  16.885 -0.0046  0.4673 -0.0360
 8567TIP3    H147116   4.203   5.097  16.959 -1.3000  1.9574 -1.4074
 8567TIP3    H247117   4.218   5.011  16.835 -1.1232  2.3040 -1.6270
 8568TIP3   OH247118   0.724   6.153   5.308 -0.0157 -0.3071 -0.1075
 8568TIP3    H147119   0.816   6.132   5.320 -0.3439 -0.6233  1.9745
 8568TIP3    H247120   0.686   6.150   5.396 -1.6806  1.4068 -0.7155
 8569TIP3   OH247121   0.034   0.276  16.196 -0.1819  0.4808  0.1498
 8569TIP3    H147122  -0.026   0.302  16.266  0.0710 -1.2171  1.0014
 8569TIP3    H247123  -0.024   0.247  16.125 -0.4067 -1.8522  1.2330
 8570TIP3   OH247124   5.252   6.510  11.715 -0.3507  0.0347 -0.2752
 8570TIP3    H147125   5.159   6.533  11.707 -0.3962 -0.0956 -0.1180
 8570TIP3    H247126   5.275   6.538  11.804 -0.1431  0.4175 -0.4496
 8571TIP3   OH247127   5.036   1.842   1.856  0.5616 -0.0336  0.7062
 8571TIP3    H147128   5.010   1.917   1.804  0.0168 -0.3752  0.4759
 8571TIP3    H247129   4.992   1.768   1.814  1.0832 -0.4759  0.9342
 8572TIP3   OH247130   1.385   4.508   2.847  0.5185  0.0232  0.0507
 8572TIP3    H147131   1.376   4.448   2.922 -0.4170 -1.0401 -0.8885
 8572TIP3    H247132   1.386   4.450   2.771  1.3137  1.1129 -0.7737
 8573TIP3   OH247133   1.059   6.300  16.397  0.1123 -0.3178  0.2759
 8573TIP3    H147134   1.123   6.351  16.349 -1.4358  1.4940  0.0885
 8573TIP3    H247135   1.093   6.296  16.486 -0.2712  1.9701  0.5444
 8574TIP3   OH247136   5.150   5.294   1.738  0.2055  0.1390 -0.4194
 8574TIP3    H147137   5.233   5.255   1.710 -0.6712 -1.0189 -1.4762
 8574TIP3    H247138   5.147   5.379   1.694  2.4495  1.7936  2.4418
 8575TIP3   OH247139   1.848   5.043   5.212 -0.3226  0.4100  0.4943
 8575TIP3    H147140   1.885   4.985   5.279 -1.2680  0.0602  0.7144
 8575TIP3    H247141   1.897   5.125   5.222 -1.7071  0.9989  2.8650
 8576TIP3   OH247142   6.001   2.495   2.597  0.2874  0.3075  0.6429
 8576TIP3    H147143   5.974   2.471   2.686 -0.8971 -0.0016  0.2000
 8576TIP3    H247144   6.075   2.554   2.610  0.4010 -0.0846  1.8294
 8577TIP3   OH247145   4.928   0.523  10.212  0.1486 -0.5192 -0.3798
 8577TIP3    H147146   4.846   0.474  10.210 -0.2958  0.0428  2.0730
 8577TIP3    H247147   4.964   0.506  10.299  2.1379  0.0576 -1.0642
 8578TIP3   OH247148   4.650   1.701  12.993  0.3709  0.4665 -0.3476
 8578TIP3    H147149   4.725   1.737  12.945  2.2752 -1.4496  1.0994
 8578TIP3    H247150   4.689   1.657  13.068 -2.2856 -0.0223  0.7813
 8579TIP3   OH247151   0.307   6.663   6.404  0.1490 -0.0325  0.2365
 8579TIP3    H147152   0.250   6.620   6.341 -0.0497  0.1281  0.3072
 8579TIP3    H247153   0.373   6.598   6.425 -0.5977 -0.5602  0.9385
 8580TIP3   OH247154   3.056   6.508   3.063  0.8658 -0.1132  0.3284
 8580TIP3    H147155   3.062   6.492   3.157  0.5510  2.1474  0.7572
 8580TIP3    H247156   3.133   6.561   3.043 -0.1467  1.1484 -0.2825
 8581TIP3   OH247157   0.538   3.115   0.772  0.4786  0.2776 -0.7881
 8581TIP3    H147158   0.603   3.072   0.716 -1.0035  0.1004 -2.4127
 8581TIP3    H247159   0.491   3.174   0.713 -0.5647  0.7071  0.4613
 8582TIP3   OH247160   5.271   5.730   4.296 -0.3927  1.0759  0.6881
 8582TIP3    H147161   5.335   5.752   4.363 -0.4212 -0.2922  1.1964
 8582TIP3    H247162   5.320   5.674   4.235 -0.3348  2.4052 -0.5043
 8583TIP3   OH247163   2.280   0.887  16.610 -0.0542 -0.2946 -0.1563
 8583TIP3    H147164   2.256   0.876  16.518  0.9747  0.6727 -0.5400
 8583TIP3    H247165   2.197   0.906  16.654 -0.5529 -0.7759 -0.8650
 8584TIP3   OH247166   5.944   0.181  11.223  0.1305  0.2147 -0.6114
 8584TIP3    H147167   5.893   0.193  11.303 -0.6479  2.4753 -1.4168
 8584TIP3    H247168   5.982   0.094  11.233  0.0088  0.4152  2.1874
 8585TIP3   OH247169   2.061   6.693  11.325  1.0699  0.5996 -0.2128
 8585TIP3    H147170   2.034   6.693  11.417  0.6366  0.9244 -0.3386
 8585TIP3    H247171   2.103   6.608  11.313 -1.2344 -0.5519 -0.4137
 8586TIP3   OH247172   0.038   1.580   1.154 -0.1491  0.6857  0.5809
 8586TIP3    H147173  -0.014   1.661   1.151 -0.8741  0.2659  1.6839
 8586TIP3    H247174   0.125   1.607   1.124 -0.8062  1.5389 -0.6262
 8587TIP3   OH247175   5.696   5.901   2.752 -0.4268 -0.0711  0.1159
 8587TIP3    H147176   5.766   5.956   2.716  0.8501 -1.5838  0.2084
 8587TIP3    H247177   5.676   5.940   2.837  0.3848  0.3389  0.1272
 8588TIP3   OH247178   4.218   6.214   4.087  0.0368 -0.3817  0.2149
 8588TIP3    H147179   4.189   6.194   4.176 -0.3698  0.0549  0.1848
 8588TIP3    H247180   4.277   6.143   4.064 -0.6917 -1.0662  0.4355
 8589TIP3   OH247181   3.737   6.449   0.708 -0.0911  0.0510 -0.2456
 8589TIP3    H147182   3.658   6.400   0.732 -1.4107  1.5141 -1.4618
 8589TIP3    H247183   3.799   6.381   0.679 -2.0512 -0.9262 -2.3643
 8590TIP3   OH247184   1.866   0.684   1.120  0.5128 -0.1536 -0.5445
 8590TIP3    H147185   1.907   0.651   1.200  0.6908 -0.2634 -0.6822
 8590TIP3    H247186   1.934   0.736   1.078  0.0391  0.9022 -0.0157
 8591TIP3   OH247187   4.605   0.794  16.611 -0.3972  0.0209 -0.1556
 8591TIP3    H147188   4.681   0.780  16.554 -1.1206  2.8743 -1.9441
 8591TIP3    H247189   4.530   0.774  16.555 -1.1026  2.2142 -0.0467
 8592TIP3   OH247190   5.051   3.330   5.859  1.2617  0.1526  0.2141
 8592TIP3    H147191   5.014   3.376   5.934  0.3533  0.2907 -0.3026
 8592TIP3    H247192   5.061   3.239   5.888  0.7155  0.1626  0.4303
 8593TIP3   OH247193   0.781   0.260   0.043 -0.2275 -0.0986 -0.2402
 8593TIP3    H147194   0.854   0.229   0.095 -0.9356 -1.6395 -0.1453
 8593TIP3    H247195   0.781   0.204  -0.035 -1.4541 -0.2895 -0.1142
 8594TIP3   OH247196   3.896   2.272  12.820 -0.0697  0.0453 -0.1155
 8594TIP3    H147197   3.916   2.356  12.778  1.0518 -0.1145  0.0927
 8594TIP3    H247198   3.943   2.207  12.767 -0.7921 -0.4435 -0.1727
 8595TIP3   OH247199   3.866   4.312   6.865  0.3162 -0.3119  0.3268
 8595TIP3    H147200   3.906   4.384   6.817 -0.1873  0.2363  0.7308
 8595TIP3    H247201   3.936   4.247   6.873  0.2322 -0.6869 -1.7109
 8596TIP3   OH247202   3.154   0.473   2.051 -0.3239 -0.4238  0.2612
 8596TIP3    H147203   3.155   0.507   2.140 -1.3466 -0.3022  0.2268
 8596TIP3    H247204   3.142   0.550   1.996 -0.4936 -0.5911  0.0633
 8597TIP3   OH247205   3.859   1.940  14.521  0.2219  0.4436 -0.1619
 8597TIP3    H147206   3.890   1.858  14.561 -0.1025  1.3367  1.9722
 8597TIP3    H247207   3.866   1.924  14.426  0.5405 -1.9059  0.2175
 8598TIP3   OH247208   3.425   6.693   3.198  0.2704 -0.1226 -0.7609
 8598TIP3    H147209   3.467   6.776   3.176  0.1113  0.0116 -0.5583
 8598TIP3    H247210   3.454   6.633   3.129 -1.3549  0.6455 -2.1634
 8599TIP3   OH247211   6.371   5.804  15.234 -0.0898 -0.2132 -0.6669
 8599TIP3    H147212   6.298   5.827  15.176  0.4230  2.0968 -0.4374
 8599TIP3    H247213   6.448   5.810  15.178  0.5053  2.8464  0.3713
 8600TIP3   OH247214   0.447   3.154   1.991  0.3725 -0.1893 -0.1068
 8600TIP3    H147215   0.542   3.146   1.982  0.1304 -1.9358 -1.4366
 8600TIP3    H247216   0.412   3.100   1.920 -1.6395 -0.7820  1.3087
 8601TIP3   OH247217   6.585   4.556   1.441  0.6280  0.3903 -0.0535
 8601TIP3    H147218   6.515   4.616   1.466  0.0619  0.1073 -0.9105
 8601TIP3    H247219   6.598   4.501   1.518 -0.7555 -0.1754 -0.1993
 8602TIP3   OH247220   0.929   0.906  15.617  0.1450 -0.0013 -0.0527
 8602TIP3    H147221   0.898   0.918  15.707  1.1506  1.4318  0.1291
 8602TIP3    H247222   1.001   0.969  15.608  0.4229 -0.5229 -1.6866
 8603TIP3   OH247223   6.236   5.166   6.489 -0.2776 -0.7781  0.0605
 8603TIP3    H147224   6.330   5.187   6.489 -0.3639 -0.3771  0.0042
 8603TIP3    H247225   6.196   5.237   6.438 -0.5918 -1.0417 -0.0618
 8604TIP3   OH247226   2.250   3.479  15.498 -0.3638  0.2185 -0.3363
 8604TIP3    H147227   2.262   3.489  15.593  1.5190  2.1552 -0.7477
 8604TIP3    H247228   2.156   3.469  15.487 -0.6674  0.6084  1.7093
 8605TIP3   OH247229   5.630   2.021  15.156  0.1297  0.3705  0.6000
 8605TIP3    H147230   5.580   1.968  15.093  1.3582  1.3706 -1.2491
 8605TIP3    H247231   5.713   2.038  15.112  0.4211  2.3759  1.8835
 8606TIP3   OH247232   0.776   1.889   1.888  0.0350 -0.1831  0.0074
 8606TIP3    H147233   0.704   1.827   1.874  0.4643 -1.0304  1.4359
 8606TIP3    H247234   0.749   1.941   1.964  0.9232 -0.5284  0.5753
 8607TIP3   OH247235   2.447   2.808  13.522 -0.7876  0.0510  0.4372
 8607TIP3    H147236   2.374   2.825  13.463  1.2620  0.6483 -2.0169
 8607TIP3    H247237   2.478   2.895  13.547 -0.2547 -0.1911  0.6146
 8608TIP3   OH247238   6.278   2.194   4.284  0.1816 -0.1474 -0.5247
 8608TIP3    H147239   6.242   2.109   4.263  1.2974 -0.4340 -1.3405
 8608TIP3    H247240   6.364   2.196   4.241  0.7000  0.9032  0.4912
 8609TIP3   OH247241   2.215   2.101  16.885  0.4275  0.0254 -0.1251
 8609TIP3    H147242   2.297   2.142  16.859  0.8446 -0.5034  0.3319
 8609TIP3    H247243   2.153   2.126  16.818  0.5044  1.9611  0.4976
 8610TIP3   OH247244   4.445   1.260  12.822 -0.0171  0.5861 -0.0600
 8610TIP3    H147245   4.442   1.320  12.748 -0.5321  2.3124  1.3367
 8610TIP3    H247246   4.536   1.229  12.825  0.2580  1.3330 -0.7555
 8611TIP3   OH247247   5.118   3.834   2.690  0.3281  0.3091 -0.0716
 8611TIP3    H147248   5.041   3.891   2.697  1.1192  1.2897  0.7730
 8611TIP3    H247249   5.083   3.745   2.699 -0.6373  0.7759  0.8129
 8612TIP3   OH247250   1.815   1.567  14.436  0.4338 -0.2024 -0.3261
 8612TIP3    H147251   1.842   1.659  14.428  0.3044 -0.0039  1.2794
 8612TIP3    H247252   1.725   1.565  14.404  0.8212 -0.0012 -1.4504
 8613TIP3   OH247253   5.174   6.168   5.427 -0.0020 -0.1783  0.0605
 8613TIP3    H147254   5.219   6.090   5.459  0.5579  1.0675  2.4536
 8613TIP3    H247255   5.242   6.234   5.418 -0.4057 -0.0420 -2.3271
 8614TIP3   OH247256   6.489   5.747   4.807  0.6616  0.4689 -0.0747
 8614TIP3    H147257   6.536   5.702   4.736  1.4931  0.0450  0.7472
 8614TIP3    H247258   6.518   5.838   4.800  0.6018  0.4667 -0.3871
 8615TIP3   OH247259   3.976   2.226  16.362 -0.2629  0.1353 -0.5796
 8615TIP3    H147260   4.044   2.257  16.422 -1.6852  1.9693  0.1396
 8615TIP3    H247261   3.937   2.306  16.327 -4.3805 -0.7314  1.7109
 8616TIP3   OH247262   1.055   1.169   3.759  0.7057  0.1696 -0.5099
 8616TIP3    H147263   0.987   1.124   3.709 -0.0927  0.9527 -0.1382
 8616TIP3    H247264   1.097   1.099   3.810 -0.1228 -0.2569 -0.3926
 8617TIP3   OH247265   0.930   6.133  13.930  0.1268  0.0623 -0.1617
 8617TIP3    H147266   0.845   6.172  13.911 -0.9078 -1.1944  1.7438
 8617TIP3    H247267   0.911   6.041  13.948  1.6005  0.1844  2.2941
 8618TIP3   OH247268   5.829   0.539  13.632  0.3290  0.0023  0.5939
 8618TIP3    H147269   5.892   0.587  13.578  0.4189  0.0850  0.7718
 8618TIP3    H247270   5.883   0.498  13.701  0.2470 -0.3069  0.4764
 8619TIP3   OH247271   0.242   4.274  13.334 -0.2775 -0.2379 -0.0367
 8619TIP3    H147272   0.321   4.320  13.307  0.4726 -0.9976  0.8162
 8619TIP3    H247273   0.194   4.256  13.253  0.3588  0.3436 -0.5396
 8620TIP3   OH247274   0.925   5.511  11.639 -0.3056 -0.4311  0.7281
 8620TIP3    H147275   0.914   5.550  11.726 -1.8959 -0.1911  0.4334
 8620TIP3    H247276   0.895   5.421  11.649 -3.6254  0.5152 -0.3338
 8621TIP3   OH247277   0.449   0.103  16.750 -0.3587 -0.5166  0.0553
 8621TIP3    H147278   0.416   0.145  16.670  2.1153 -0.3847 -0.9426
 8621TIP3    H247279   0.495   0.172  16.797  2.5955 -1.6952 -0.9565
 8622TIP3   OH247280   4.417   2.573  14.938 -0.8863  0.4369  0.0409
 8622TIP3    H147281   4.331   2.531  14.928 -0.6450  0.4837 -2.9401
 8622TIP3    H247282   4.480   2.501  14.927 -0.5354  0.9462 -1.5095
 8623TIP3   OH247283   6.722   5.556  13.978 -0.1250 -0.1560  0.3677
 8623TIP3    H147284   6.630   5.558  14.004 -0.2684  0.6053 -0.1809
 8623TIP3    H247285   6.719   5.556  13.882  0.4239 -1.3375  0.3463
 8624TIP3   OH247286   3.079   5.169   4.349  0.9423  0.5664 -0.4688
 8624TIP3    H147287   3.130   5.221   4.287  2.1359 -0.9516 -0.7844
 8624TIP3    H247288   3.001   5.142   4.300  0.7415  1.3126 -0.5686
 8625TIP3   OH247289   1.177   6.408   5.502  0.2054 -0.1202 -0.3938
 8625TIP3    H147290   1.213   6.492   5.530 -0.7142 -0.2098  1.1132
 8625TIP3    H247291   1.160   6.419   5.409 -0.5882  1.6213 -0.0638
 8626TIP3   OH247292   4.306   5.134   4.552  0.7635 -0.6413  0.0577
 8626TIP3    H147293   4.312   5.178   4.468 -0.9701  1.3810  0.9526
 8626TIP3    H247294   4.279   5.044   4.531 -0.3314  0.0355 -1.4811
 8627TIP3   OH247295   3.955   5.892  12.770 -0.3567  0.3099  0.0314
 8627TIP3    H147296   3.862   5.873  12.762 -0.5553  1.5631 -0.7415
 8627TIP3    H247297   3.978   5.938  12.689  1.0719 -0.5244 -0.0541
 8628TIP3   OH247298   2.946   2.595   0.139  0.4145 -0.3609 -0.0048
 8628TIP3    H147299   2.912   2.574   0.052  0.7259 -0.2787 -0.1476
 8628TIP3    H247300   3.010   2.525   0.157  1.1367  0.2204 -0.2987
 8629TIP3   OH247301   2.137   0.332  11.915  0.1622 -0.1801 -0.5599
 8629TIP3    H147302   2.146   0.313  11.822 -1.5397  0.5899 -0.9134
 8629TIP3    H247303   2.225   0.355  11.944  0.6838 -0.3280 -2.0100
 8630TIP3   OH247304   5.665   4.967  16.923  0.6857  0.5800 -0.1984
 8630TIP3    H147305   5.665   4.931  17.012 -1.7107  1.0290  0.0263
 8630TIP3    H247306   5.724   5.042  16.927  0.8045  0.4327  0.9669
 8631TIP3   OH247307   5.557   3.754   1.021 -0.5647  0.1790 -0.2615
 8631TIP3    H147308   5.516   3.670   1.039 -1.2756  0.2867 -1.3328
 8631TIP3    H247309   5.613   3.737   0.945  0.9452  0.1687  0.8353
 8632TIP3   OH247310   4.779   1.287   5.385  0.1743  0.1989 -0.2849
 8632TIP3    H147311   4.759   1.375   5.353  1.7784  0.5069 -0.4757
 8632TIP3    H247312   4.800   1.299   5.477  1.7122  0.2271 -0.6239
 8633TIP3   OH247313   2.287   5.758   4.434 -0.0073  0.2440  0.5448
 8633TIP3    H147314   2.238   5.817   4.376  0.7442  1.2091  0.8885
 8633TIP3    H247315   2.357   5.724   4.379 -0.6586 -0.6227  0.2424
 8634TIP3   OH247316   1.747   1.168   0.192  0.2626  0.3068 -0.3685
 8634TIP3    H147317   1.816   1.119   0.147 -1.3423 -1.1016 -1.3871
 8634TIP3    H247318   1.687   1.101   0.225 -2.0339  1.5388 -1.8535
 8635TIP3   OH247319   3.868   5.120  15.409  0.1997  0.0754  0.1056
 8635TIP3    H147320   3.774   5.133  15.410  0.2939  1.7991 -3.3218
 8635TIP3    H247321   3.885   5.074  15.326  2.6501  3.0311 -1.1335
 8636TIP3   OH247322   0.387   6.269   2.368 -0.2371  0.1831  0.3127
 8636TIP3    H147323   0.316   6.238   2.312  0.3046 -0.5800  0.0500
 8636TIP3    H247324   0.435   6.190   2.393  0.6322  0.7067  0.3324
 8637TIP3   OH247325   3.070   3.036   5.637  0.3435  0.6339  0.3089
 8637TIP3    H147326   2.983   3.066   5.610 -0.4430 -0.0464  1.9885
 8637TIP3    H247327   3.110   3.005   5.556 -1.6457 -0.6301 -0.2449
 8638TIP3   OH247328   0.702   0.134   5.287 -0.4579 -0.6109 -0.0947
 8638TIP3    H147329   0.665   0.046   5.289  0.1074 -0.8415  0.6070
 8638TIP3    H247330   0.689   0.164   5.197  0.8167 -2.0566 -0.7913
 8639TIP3   OH247331   0.541   2.335   0.811  0.1283  0.0417 -0.2116
 8639TIP3    H147332   0.519   2.403   0.747 -0.4704  0.8973  0.8961
 8639TIP3    H247333   0.555   2.382   0.893 -1.5586 -1.2797  0.8691
 8640TIP3   OH247334   6.726   4.294   3.139  0.2632  0.8555  0.4061
 8640TIP3    H147335   6.770   4.349   3.204  2.7021 -1.1086  0.5320
 8640TIP3    H247336   6.698   4.355   3.071  1.0254  2.4857  1.5072
 8641TIP3   OH247337   5.714   4.665   0.624  0.1653  0.1408  0.1180
 8641TIP3    H147338   5.674   4.584   0.656  2.2741 -0.8798  0.2566
 8641TIP3    H247339   5.661   4.690   0.548 -1.0838 -0.8255  0.6514
 8642TIP3   OH247340   1.616   0.751  12.830  0.2463  0.2035  0.1589
 8642TIP3    H147341   1.583   0.742  12.741  0.9392  1.5544 -0.2539
 8642TIP3    H247342   1.537   0.762  12.884 -0.1840 -0.8191 -0.2600
 8643TIP3   OH247343   5.820   0.688  13.958 -0.2258  0.0327  0.1578
 8643TIP3    H147344   5.765   0.736  14.019 -1.6557 -0.7210 -0.5119
 8643TIP3    H247345   5.899   0.741  13.949 -1.2767  1.6393  0.3284
 8644TIP3   OH247346   5.347   5.614   4.922 -0.1879 -0.3645 -0.2721
 8644TIP3    H147347   5.275   5.656   4.873 -0.6869 -0.9042 -0.0064
 8644TIP3    H247348   5.390   5.686   4.967 -0.4012  0.0012 -0.6465
 8645TIP3   OH247349   6.728   5.100  17.200  0.2743  0.5731  0.6992
 8645TIP3    H147350   6.690   5.137  17.120  0.9938  0.1345  0.1518
 8645TIP3    H247351   6.803   5.049  17.170 -0.4810 -1.0286  1.4907
 8646TIP3   OH247352   6.237   2.732   4.827  0.4759 -0.0975  0.1084
 8646TIP3    H147353   6.238   2.754   4.734 -0.9327 -1.0611 -0.1581
 8646TIP3    H247354   6.146   2.749   4.854  0.1597 -2.4485  0.6386
 8647TIP3   OH247355   0.044   1.488   4.467  0.5379  0.0207  0.1726
 8647TIP3    H147356   0.013   1.436   4.392  0.3926 -0.3658  0.4959
 8647TIP3    H247357   0.076   1.569   4.429  0.1759 -0.0479 -0.2787
 8648TIP3   OH247358   1.230   6.465  11.059  0.1890  0.0276 -0.2290
 8648TIP3    H147359   1.295   6.411  11.014 -0.5735 -0.8213 -0.3305
 8648TIP3    H247360   1.282   6.529  11.108  1.0407  0.7953 -2.0807
 8649TIP3   OH247361   3.149   2.897  12.348 -0.4339  0.3785  0.0139
 8649TIP3    H147362   3.163   2.926  12.439 -0.8984  1.5392 -0.2730
 8649TIP3    H247363   3.074   2.949  12.318 -2.4786 -2.4769  0.0547
 8650TIP3   OH247364   2.984   1.617   2.434 -0.2238 -1.1834 -0.5200
 8650TIP3    H147365   2.923   1.574   2.494 -0.7111 -0.9079 -0.8107
 8650TIP3    H247366   3.007   1.699   2.478 -1.0420 -0.7065 -0.9697
 8651TIP3   OH247367   3.408   0.919   0.917 -0.4823  0.4670  1.1530
 8651TIP3    H147368   3.374   0.851   0.976 -2.8330 -1.6957 -2.4410
 8651TIP3    H247369   3.330   0.967   0.890  0.3113  0.4561 -1.2638
 8652TIP3   OH247370   0.429   5.548   4.243 -0.1308  0.2961  0.3762
 8652TIP3    H147371   0.371   5.615   4.207  0.2924  0.3546 -0.2059
 8652TIP3    H247372   0.390   5.465   4.216 -0.8522  0.2945  1.4019
 8653TIP3   OH247373   3.602   3.142  10.340 -0.3498 -0.1079  0.7968
 8653TIP3    H147374   3.636   3.055  10.317 -1.1649 -0.7371  1.9692
 8653TIP3    H247375   3.562   3.131  10.426 -1.6498  1.1284  0.3756
 8654TIP3   OH247376   4.040   1.515  16.622 -0.6612 -0.2465 -0.2474
 8654TIP3    H147377   4.019   1.428  16.655 -1.1258 -0.2856 -0.6420
 8654TIP3    H247378   3.963   1.541  16.571 -0.9796  0.8329  0.7475
 8655TIP3   OH247379   3.408   0.059   1.120  0.0331 -0.1076 -0.1540
 8655TIP3    H147380   3.349  -0.007   1.155 -0.8989  0.5978 -0.3643
 8655TIP3    H247381   3.455   0.014   1.050  0.5095 -0.9681  0.7027
 8656TIP3   OH247382   0.099   5.719   4.428  0.1736  0.3562 -0.2717
 8656TIP3    H147383   0.048   5.795   4.457 -2.2351 -1.2719 -0.1243
 8656TIP3    H247384   0.034   5.652   4.410  2.1866 -1.2764 -1.6672
 8657TIP3   OH247385   1.107   5.259  15.095  0.2801  0.0646  0.1066
 8657TIP3    H147386   1.158   5.179  15.078  1.4533  1.4127 -3.0447
 8657TIP3    H247387   1.017   5.234  15.073  0.0627 -1.2832  2.2925
 8658TIP3   OH247388   6.311   0.925   5.687  0.6505  0.5376  0.4014
 8658TIP3    H147389   6.386   0.952   5.740  1.7391  0.7989 -1.2270
 8658TIP3    H247390   6.346   0.857   5.630 -0.8213 -0.6512  0.8944
 8659TIP3   OH247391   1.321   6.497   0.096 -0.0083 -0.2178 -0.3661
 8659TIP3    H147392   1.241   6.529   0.139  0.1192 -0.9575  0.4307
 8659TIP3    H247393   1.378   6.574   0.094 -0.7528  0.3234 -0.9676
 8660TIP3   OH247394   3.496   1.907   4.448 -0.3583 -0.1654  0.2671
 8660TIP3    H147395   3.449   1.840   4.498 -0.0644 -1.5168 -1.2220
 8660TIP3    H247396   3.577   1.864   4.421 -0.7786  0.3242 -1.8783
 8661TIP3   OH247397   4.201   2.493   3.301  0.5017  0.6500 -0.0120
 8661TIP3    H147398   4.286   2.479   3.342  0.4385  1.8765  0.5660
 8661TIP3    H247399   4.217   2.559   3.233  0.2315  0.0414 -0.6733
 8662TIP3   OH247400   4.501   6.352   3.994  0.0566  0.1403  0.7912
 8662TIP3    H147401   4.472   6.339   4.085  0.4918 -1.3075  0.7306
 8662TIP3    H247402   4.542   6.269   3.970  1.7488  1.2141 -0.0746
 8663TIP3   OH247403   2.456   3.532  11.756  0.2355 -0.3464 -0.0613
 8663TIP3    H147404   2.547   3.556  11.776 -0.1182  1.2054 -0.3249
 8663TIP3    H247405   2.464   3.450  11.707  1.4159 -1.0270  1.2244
 8664TIP3   OH247406   5.793   2.504  12.702 -0.5244  0.3683 -0.0156
 8664TIP3    H147407   5.752   2.562  12.638 -1.1520 -0.6781 -0.5625
 8664TIP3    H247408   5.758   2.534  12.786 -1.2885  0.4294 -0.3452
 8665TIP3   OH247409   3.735   5.648   3.274  0.7755 -0.1326 -0.3244
 8665TIP3    H147410   3.793   5.637   3.349  1.1138 -0.4854 -0.6367
 8665TIP3    H247411   3.660   5.592   3.293 -1.3791  3.3505  1.9853
 8666TIP3   OH247412   3.811   1.252  12.647 -0.0559 -0.6062  0.1473
 8666TIP3    H147413   3.734   1.273  12.593  0.4400  2.9777  0.7244
 8666TIP3    H247414   3.774   1.222  12.730 -0.8322  0.4033  0.1746
 8667TIP3   OH247415   0.324   6.342   2.803 -0.1547 -0.3239 -0.1744
 8667TIP3    H147416   0.397   6.368   2.860 -0.0269 -0.0554 -0.4578
 8667TIP3    H247417   0.355   6.360   2.714 -0.4170 -0.5834 -0.3198
 8668TIP3   OH247418   6.581   6.468  15.624 -0.1536 -0.5544  0.1253
 8668TIP3    H147419   6.660   6.424  15.592 -0.9739 -1.6216 -0.4575
 8668TIP3    H247420   6.560   6.424  15.706  0.1117  0.0267  0.5047
 8669TIP3   OH247421   0.640   4.890  14.874  0.1385 -0.0471 -0.7488
 8669TIP3    H147422   0.575   4.846  14.819  0.3038 -0.0952 -0.9060
 8669TIP3    H247423   0.725   4.858  14.842  0.3886  2.2045 -2.4758
 8670TIP3   OH247424   3.313   5.092  11.265  0.2891 -0.5932 -0.4563
 8670TIP3    H147425   3.328   5.186  11.271 -1.6080 -0.2036 -1.4801
 8670TIP3    H247426   3.293   5.076  11.173 -1.8953 -1.6033  0.1484
 8671TIP3   OH247427   1.054   6.272  14.270  0.0562 -0.3085  0.1387
 8671TIP3    H147428   0.973   6.221  14.274  1.2594 -2.3339 -0.6492
 8671TIP3    H247429   1.050   6.317  14.186 -0.4232 -0.1197  0.2619
 8672TIP3   OH247430   5.317   1.739   4.462  0.0524  0.7691  0.1347
 8672TIP3    H147431   5.359   1.823   4.482 -0.1012  0.5888  1.2009
 8672TIP3    H247432   5.384   1.691   4.414  0.4713  1.1369  0.3440
 8673TIP3   OH247433   3.097   0.577   1.678 -0.7671 -0.6604  0.1975
 8673TIP3    H147434   3.072   0.632   1.604 -0.4472 -1.4002 -0.4575
 8673TIP3    H247435   3.166   0.627   1.722  1.4670 -1.7618 -1.9722
 8674TIP3   OH247436   4.878   5.936  13.816  0.0986 -0.0855  0.1680
 8674TIP3    H147437   4.855   5.849  13.848  3.0600 -1.0167 -0.1403
 8674TIP3    H247438   4.936   5.972  13.883  1.1783  0.5125 -1.0680
 8675TIP3   OH247439   2.869   6.577   5.955 -0.0615  0.0474  0.3256
 8675TIP3    H147440   2.902   6.584   6.045 -2.1697 -1.7341  1.2852
 8675TIP3    H247441   2.918   6.643   5.906  3.0826 -0.8366  2.1834
 8676TIP3   OH247442   1.000   3.647  14.125 -0.0009  0.1538  0.3406
 8676TIP3    H147443   1.090   3.680  14.125 -0.1486  0.5614  0.0915
 8676TIP3    H247444   0.947   3.723  14.100 -0.3011 -0.4004 -0.7210
 8677TIP3   OH247445   5.686   3.706   2.842  0.0877 -0.0063  0.1104
 8677TIP3    H147446   5.715   3.692   2.932 -1.9834 -0.1409  0.7889
 8677TIP3    H247447   5.690   3.620   2.802 -1.4522 -0.4346  0.8460
 8678TIP3   OH247448   3.092   2.828  14.702  0.6136  0.4748 -1.2393
 8678TIP3    H147449   3.137   2.784  14.630 -0.6861 -1.7973 -0.7245
 8678TIP3    H247450   3.154   2.825  14.775 -0.5124 -3.2983 -0.3130
 8679TIP3   OH247451   3.830   6.730  17.150  0.1481  0.0676  0.1820
 8679TIP3    H147452   3.915   6.692  17.168  0.0218 -0.2048  0.2082
 8679TIP3    H247453   3.791   6.745  17.236 -0.0776 -0.3732  0.1575
 8680TIP3   OH247454   1.826   5.279   1.136  0.1729 -0.3660 -0.5136
 8680TIP3    H147455   1.861   5.294   1.223 -0.5627  0.1129 -0.2924
 8680TIP3    H247456   1.822   5.184   1.127  1.8306 -0.4339 -0.6796
 8681TIP3   OH247457   6.029   3.862   3.178  0.0863 -0.2522  0.2061
 8681TIP3    H147458   6.009   3.870   3.085 -1.9216  0.5808  0.6902
 8681TIP3    H247459   5.950   3.826   3.217  1.0089 -0.8334  1.5589
 8682TIP3   OH247460   4.771   1.757   0.190 -0.1178 -0.3958 -0.3381
 8682TIP3    H147461   4.686   1.723   0.219  0.3805 -0.8401  0.5877
 8682TIP3    H247462   4.817   1.680   0.155  0.4183 -0.4031  0.3758
 8683TIP3   OH247463   5.636   1.524   1.996 -0.3615 -0.3513  0.0867
 8683TIP3    H147464   5.624   1.569   2.079 -0.1994  0.9137 -0.5605
 8683TIP3    H247465   5.729   1.534   1.976 -0.6618  0.5501 -0.9042
 8684TIP3   OH247466   3.938   0.327   0.663  0.5057  0.3037  0.6348
 8684TIP3    H147467   3.856   0.316   0.614  0.7434  2.2655 -0.2461
 8684TIP3    H247468   3.912   0.370   0.745  0.4978 -0.1547  0.8712
 8685TIP3   OH247469   5.156   4.433   5.784  0.0152 -0.2671 -0.9167
 8685TIP3    H147470   5.078   4.389   5.818 -0.4544  1.2375 -0.0135
 8685TIP3    H247471   5.189   4.374   5.716 -2.4259 -0.5172 -1.9408
 8686TIP3   OH247472   4.209   5.258   0.526  0.3469 -0.9224 -0.0359
 8686TIP3    H147473   4.171   5.183   0.479 -1.3703  1.1880 -2.1238
 8686TIP3    H247474   4.162   5.260   0.609 -0.1055 -1.7430 -0.2655
 8687TIP3   OH247475   4.481   2.138   0.608 -0.5481  0.7256  0.4655
 8687TIP3    H147476   4.455   2.134   0.516 -2.0624 -2.5710  0.9920
 8687TIP3    H247477   4.426   2.207   0.645 -0.8969  1.1266 -0.7772
 8688TIP3   OH247478   2.960   5.475   6.487 -0.0800 -0.0233  0.6451
 8688TIP3    H147479   2.914   5.477   6.403 -0.7526  0.3813  1.0220
 8688TIP3    H247480   3.044   5.434   6.466  0.7020  2.1605 -0.6845
 8689TIP3   OH247481   3.774   5.349  14.480 -0.2503 -0.3654 -0.9868
 8689TIP3    H147482   3.764   5.336  14.386  0.0568 -1.0402 -0.9261
 8689TIP3    H247483   3.857   5.307  14.502 -0.5828 -0.6786 -0.3199
 8690TIP3   OH247484   6.677   0.633  10.602 -0.0243 -0.3224 -0.2148
 8690TIP3    H147485   6.752   0.590  10.644  0.5419 -1.6653 -2.5214
 8690TIP3    H247486   6.714   0.712  10.562 -0.0610 -0.3871 -0.3767
 8691TIP3   OH247487   3.485   1.529   5.229  0.1128  0.3995  0.4345
 8691TIP3    H147488   3.547   1.537   5.301  0.8544 -1.0336 -0.0167
 8691TIP3    H247489   3.509   1.598   5.168  1.6675 -0.5468 -0.0320
 8692TIP3   OH247490   6.356   2.596  11.791  0.0306 -0.0849 -0.2434
 8692TIP3    H147491   6.421   2.626  11.727  0.8573 -1.9044 -0.3027
 8692TIP3    H247492   6.272   2.619  11.752  0.6024  1.7973 -0.4328
 8693TIP3   OH247493   2.884   4.648  16.937 -0.2665 -0.3316 -0.3426
 8693TIP3    H147494   2.806   4.703  16.946  0.4180  0.6878 -0.6597
 8693TIP3    H247495   2.952   4.694  16.987 -0.4167 -2.3161  1.7770
 8694TIP3   OH247496   4.477   0.497  11.758  0.1600  0.0206  0.4467
 8694TIP3    H147497   4.522   0.478  11.840  1.3711 -1.6093 -0.5574
 8694TIP3    H247498   4.519   0.440  11.694 -1.1623  0.8363 -1.1925
 8695TIP3   OH247499   6.094   1.580   4.715  0.2187 -0.4501  0.1942
 8695TIP3    H147500   6.168   1.640   4.725 -0.7280  0.4672  1.8526
 8695TIP3    H247501   6.016   1.634   4.731 -0.8300 -1.4408 -1.3055
 8696TIP3   OH247502   2.263   5.168   1.920  0.6298 -0.0617 -0.5776
 8696TIP3    H147503   2.321   5.095   1.945  1.0169  0.2215 -0.6432
 8696TIP3    H247504   2.271   5.230   1.992 -2.4851 -1.6538  1.2617
 8697TIP3   OH247505   5.305   3.640  13.212 -0.4481  0.1321  0.0075
 8697TIP3    H147506   5.286   3.641  13.118  2.2462 -1.7332 -0.6174
 8697TIP3    H247507   5.275   3.554  13.241  1.1247 -0.3295  0.2980
 8698TIP3   OH247508   0.913   5.792   0.792 -0.5250  0.0651  0.0858
 8698TIP3    H147509   0.931   5.886   0.798 -0.0642  0.0104 -0.4099
 8698TIP3    H247510   0.957   5.754   0.867  1.2544 -0.0438 -1.0023
 8699TIP3   OH247511   1.519   4.395   2.625  0.5556  0.5600  0.5409
 8699TIP3    H147512   1.545   4.482   2.654 -0.4727  0.6174  1.3194
 8699TIP3    H247513   1.555   4.387   2.536  1.3221  1.4626  0.7659
 8700TIP3   OH247514   0.205   1.130   5.357  0.0321  0.3210 -0.5109
 8700TIP3    H147515   0.185   1.217   5.320  0.2278  0.6438  0.1359
 8700TIP3    H247516   0.125   1.080   5.343  0.1799  0.3650 -1.5845
 8701TIP3   OH247517   2.536   4.578  12.652  0.9936  0.0054 -0.0039
 8701TIP3    H147518   2.575   4.616  12.730 -0.7950 -0.6249  1.2335
 8701TIP3    H247519   2.476   4.511  12.685 -0.8841  0.7152 -1.8177
 8702TIP3   OH247520   2.749   0.637  11.519  0.2829 -0.0676  0.3144
 8702TIP3    H147521   2.720   0.568  11.459  2.8284 -1.1195  0.2067
 8702TIP3    H247522   2.841   0.616  11.536  0.5109  2.1160  1.9712
 8703TIP3   OH247523   3.738   5.865   0.178 -0.8733 -0.2893 -0.1536
 8703TIP3    H147524   3.820   5.901   0.145  0.2988 -1.2628  1.5937
 8703TIP3    H247525   3.706   5.932   0.239 -0.6774 -0.4954  0.1781
 8704TIP3   OH247526   5.651   1.999   5.164  0.1426  0.1271  1.0860
 8704TIP3    H147527   5.669   1.976   5.255 -1.6331  1.5792  1.8172
 8704TIP3    H247528   5.702   2.079   5.148 -0.0146  0.2084  0.9849
 8705TIP3   OH247529   5.548   6.009  13.118  0.2768 -0.1385 -0.5506
 8705TIP3    H147530   5.526   6.102  13.113 -0.5848 -0.3744 -1.3986
 8705TIP3    H247531   5.598   6.000  13.199 -0.7124  0.8542  0.1828
 8706TIP3   OH247532   0.277   4.408   0.847  0.4552 -0.4362 -0.4037
 8706TIP3    H147533   0.279   4.324   0.892 -1.6879  0.3030  1.1286
 8706TIP3    H247534   0.272   4.473   0.918  0.1383  0.8869 -1.6128
 8707TIP3   OH247535   2.612   4.189  17.229 -0.4601  0.3254  0.0208
 8707TIP3    H147536   2.690   4.178  17.174 -0.8571  0.6733 -0.6181
 8707TIP3    H247537   2.646   4.222  17.312  0.1465 -0.1981 -0.0087
 8708TIP3   OH247538   1.446   3.606   4.238  0.5182  0.4187  0.1653
 8708TIP3    H147539   1.477   3.688   4.200  2.2097  0.2740  1.1871
 8708TIP3    H247540   1.466   3.613   4.331  0.8438 -1.2041  0.2355
 8709TIP3   OH247541   2.651   2.077   2.629 -0.0286  0.0312  0.0294
 8709TIP3    H147542   2.701   1.996   2.638 -0.4641 -0.1551  0.8220
 8709TIP3    H247543   2.559   2.049   2.632 -0.1821  0.5299  0.0753
 8710TIP3   OH247544   3.310   3.628   0.553  0.0511 -0.0100  0.0362
 8710TIP3    H147545   3.322   3.575   0.474  0.4268 -0.7584  0.5965
 8710TIP3    H247546   3.242   3.692   0.528  0.3873 -0.0391 -0.9849
 8711TIP3   OH247547   1.528   2.679  11.630 -0.3990 -0.5728 -0.0979
 8711TIP3    H147548   1.621   2.696  11.643 -0.2493  0.0029 -1.7766
 8711TIP3    H247549   1.521   2.583  11.627 -0.1101 -0.6692  1.5802
 8712TIP3   OH247550   6.640   6.657   2.743  0.0247  0.5059  0.1082
 8712TIP3    H147551   6.629   6.565   2.764  1.3818 -0.2230 -2.2502
 8712TIP3    H247552   6.734   6.673   2.751 -0.4794  2.4050  3.1628
 8713TIP3   OH247553   2.499   5.975   2.864  0.4112  0.4523 -0.0757
 8713TIP3    H147554   2.576   5.951   2.914  0.1733 -1.7173 -0.7169
 8713TIP3    H247555   2.533   6.022   2.788  0.8355  2.7696  1.5029
 8714TIP3   OH247556   1.067   3.929   2.370 -0.2275  0.0338  0.1530
 8714TIP3    H147557   1.133   3.861   2.384  0.7043  0.7844 -0.6231
 8714TIP3    H247558   0.983   3.884   2.385  0.3995 -1.1896  0.0086
 8715TIP3   OH247559   1.113   3.078   1.474  0.0074  0.2414  0.0143
 8715TIP3    H147560   1.174   3.109   1.407  0.5466  2.0685  1.3233
 8715TIP3    H247561   1.028   3.113   1.446  0.3070  1.3911  0.4912
 8716TIP3   OH247562   2.769   5.498  15.025  0.2517 -0.2133  0.1360
 8716TIP3    H147563   2.761   5.509  14.931  0.1759 -1.6810 -0.0394
 8716TIP3    H247564   2.793   5.585  15.057 -0.6870  0.5262 -1.1099
 8717TIP3   OH247565   0.354   3.066  13.755  0.5734 -0.1006  0.1538
 8717TIP3    H147566   0.317   3.015  13.683 -0.0921  2.0460 -1.0851
 8717TIP3    H247567   0.282   3.073  13.819  0.5925 -0.5456  0.2187
 8718TIP3   OH247568   4.289   4.680  16.484 -0.1247 -0.0288 -0.2127
 8718TIP3    H147569   4.310   4.765  16.445  0.3650 -0.0184  0.0709
 8718TIP3    H247570   4.208   4.653  16.441 -0.5213  0.7848  0.0060
 8719TIP3   OH247571   4.060   6.609  14.429  0.1431 -0.0809 -0.0370
 8719TIP3    H147572   4.030   6.545  14.364 -0.1480 -1.4904  1.4320
 8719TIP3    H247573   4.047   6.565  14.513 -1.9372  2.6780  1.1616
 8720TIP3   OH247574   1.147   3.329  15.651 -0.0434  0.1982  0.2555
 8720TIP3    H147575   1.084   3.394  15.619 -0.4266  0.2891  1.1715
 8720TIP3    H247576   1.094   3.267  15.701  0.4326 -0.3963  0.0297
 8721TIP3   OH247577   6.434   1.355  13.764 -0.4715 -0.4570  0.2449
 8721TIP3    H147578   6.524   1.362  13.797 -0.9551  0.2764  1.4566
 8721TIP3    H247579   6.427   1.425  13.699 -0.9315  1.2349  2.0403
 8722TIP3   OH247580   5.154   0.543  16.438 -0.3565  0.0451  0.3989
 8722TIP3    H147581   5.200   0.564  16.519  0.6774  0.0758 -0.1978
 8722TIP3    H247582   5.070   0.507  16.468  0.7028 -1.6057  1.5429
 8723TIP3   OH247583   4.949   5.545   0.666  0.2749 -0.3098  0.3702
 8723TIP3    H147584   4.940   5.513   0.756  0.7678  0.6962  0.7894
 8723TIP3    H247585   4.958   5.466   0.613  0.8302 -0.8805  1.3020
 8724TIP3   OH247586   0.273   2.565   5.832  0.0906  0.0780  0.2331
 8724TIP3    H147587   0.338   2.616   5.783  1.5850 -0.6855  1.3860
 8724TIP3    H247588   0.286   2.592   5.923  0.8465 -2.2688  0.8456
 8725TIP3   OH247589   5.394   5.218   0.988  0.0360  0.1086 -0.0682
 8725TIP3    H147590   5.462   5.286   0.984  2.4416 -2.2120 -0.4551
 8725TIP3    H247591   5.376   5.196   0.897  0.7772 -1.1638  0.0748
 8726TIP3   OH247592   5.883   5.341  11.483 -0.0791  0.4697 -0.8188
 8726TIP3    H147593   5.863   5.348  11.390 -0.7638 -2.6652 -0.9807
 8726TIP3    H247594   5.975   5.314  11.485  1.6731  6.0403 -0.3492
 8727TIP3   OH247595   6.693   2.957  13.932 -0.6943 -0.6078  0.2984
 8727TIP3    H147596   6.628   2.892  13.906  0.3762 -0.7534 -2.1579
 8727TIP3    H247597   6.772   2.905  13.950 -0.5665 -0.2103  0.9107
 8728TIP3   OH247598   5.893   4.985   2.465  0.3012  0.2013  0.0999
 8728TIP3    H147599   5.849   4.900   2.469  2.2554 -0.8644 -0.3621
 8728TIP3    H247600   5.847   5.038   2.530 -1.0215 -1.1695  0.3268
 8729TIP3   OH247601   3.584   2.573  13.250  0.6227 -0.0323 -0.4759
 8729TIP3    H147602   3.633   2.526  13.184 -1.1909  3.5579 -4.6476
 8729TIP3    H247603   3.493   2.544  13.239  0.3039  0.5185  0.5159
 8730TIP3   OH247604   2.755   2.034   6.566 -0.1216  0.0971 -0.7665
 8730TIP3    H147605   2.769   2.111   6.621 -1.5524 -0.1477 -0.0385
 8730TIP3    H247606   2.729   1.965   6.628  3.3767 -1.6346 -1.0844
 8731TIP3   OH247607   1.072   0.712   2.331 -0.4355 -0.1083  0.1941
 8731TIP3    H147608   1.115   0.723   2.415  0.7714  1.4576 -0.5961
 8731TIP3    H247609   1.144   0.711   2.267 -1.2894 -1.6637 -0.7988
 8732TIP3   OH247610   4.458   4.723  15.385  0.2574 -0.1815 -0.1223
 8732TIP3    H147611   4.480   4.777  15.310  0.1956 -2.3574 -1.7639
 8732TIP3    H247612   4.364   4.707  15.377  0.1514 -0.0183  0.7110
 8733TIP3   OH247613   0.004   0.004   0.839 -0.2200 -0.4112  0.1741
 8733TIP3    H147614   0.070  -0.066   0.840  1.6995  1.3150 -1.1041
 8733TIP3    H247615  -0.014   0.020   0.931  1.9378 -0.2536  0.6103
 8734TIP3   OH247616   2.984   3.493  12.672  0.0536  0.1614 -0.4836
 8734TIP3    H147617   2.996   3.557  12.601  1.5962  1.6755  1.1140
 8734TIP3    H247618   2.949   3.544  12.745 -3.4217 -1.7386 -0.6700
 8735TIP3   OH247619   4.978   0.117   1.582 -0.6166  0.0801 -0.0142
 8735TIP3    H147620   5.010   0.170   1.509  1.4164  1.6501  1.9513
 8735TIP3    H247621   4.883   0.115   1.571 -0.5944  2.7786 -1.0638
 8736TIP3   OH247622   2.214   2.516  15.584  0.2486 -0.4292  0.3027
 8736TIP3    H147623   2.308   2.521  15.602  0.2241 -0.8562  0.5688
 8736TIP3    H247624   2.180   2.455  15.649 -0.2819  0.0190  0.4521
 8737TIP3   OH247625   0.117   2.789  13.996  0.9241  0.1338 -0.2325
 8737TIP3    H147626   0.211   2.774  14.006  0.7913 -0.0271  0.7324
 8737TIP3    H247627   0.090   2.726  13.928  1.3617 -0.3640  0.0517
 8738TIP3   OH247628   4.588   1.436  16.118  0.7246 -0.0154  0.3191
 8738TIP3    H147629   4.549   1.383  16.048 -0.8554  2.1714 -0.5016
 8738TIP3    H247630   4.616   1.372  16.183  0.6587 -1.9842 -1.5339
 8739TIP3   OH247631   2.322   2.735   0.087 -0.1781 -0.1843 -0.1621
 8739TIP3    H147632   2.277   2.816   0.113  1.2311  0.3625  0.6143
 8739TIP3    H247633   2.415   2.754   0.096  0.1785 -1.9526  0.2229
 8740TIP3   OH247634   1.581   3.628   3.567 -0.3604  0.2017  0.3055
 8740TIP3    H147635   1.490   3.659   3.571 -0.0830  0.8125  2.0895
 8740TIP3    H247636   1.623   3.686   3.503 -1.6626 -1.3084 -2.0112
 8741TIP3   OH247637   5.322   1.472  10.727  0.4146 -0.0839 -0.4069
 8741TIP3    H147638   5.326   1.376  10.727 -0.4380 -0.1753 -2.7149
 8741TIP3    H247639   5.346   1.498  10.815 -0.9627 -2.5194  0.7391
 8742TIP3   OH247640   2.776   0.065   5.328  0.1034  0.1925 -0.0349
 8742TIP3    H147641   2.733  -0.013   5.363 -1.7045  2.0996  2.2258
 8742TIP3    H247642   2.822   0.035   5.250 -0.7497 -3.0582  0.6490
 8743TIP3   OH247643   0.529   3.301  12.170  0.2995 -0.3420  0.3638
 8743TIP3    H147644   0.560   3.269  12.086 -0.1252 -1.2597  0.5507
 8743TIP3    H247645   0.436   3.317  12.157  0.1032 -1.0884  0.8376
 8744TIP3   OH247646   1.960   3.450   0.153  0.3579  0.2404  0.4559
 8744TIP3    H147647   1.904   3.408   0.218  0.7584 -0.0697  0.5975
 8744TIP3    H247648   1.900   3.508   0.105 -0.4201 -1.2906 -0.4661
 8745TIP3   OH247649   6.464   0.107  13.250  0.2299  0.5548 -0.4639
 8745TIP3    H147650   6.484   0.018  13.281  0.7641  1.5708  2.2429
 8745TIP3    H247651   6.386   0.132  13.299  0.3568  1.7783 -0.8743
 8746TIP3   OH247652   4.877   2.822  14.457  0.4931 -0.1349 -0.2204
 8746TIP3    H147653   4.846   2.895  14.403 -2.0937 -1.1084 -0.0837
 8746TIP3    H247654   4.971   2.838  14.465  0.4128  1.7844 -2.3428
 8747TIP3   OH247655   5.885   1.631  11.140 -0.2253 -0.0578 -0.3615
 8747TIP3    H147656   5.877   1.693  11.067 -0.2363  1.1251  0.6322
 8747TIP3    H247657   5.980   1.621  11.152 -0.2167  1.4450  0.8782
 8748TIP3   OH247658   2.441   1.080  13.282  0.2297 -0.3029 -0.3554
 8748TIP3    H147659   2.520   1.080  13.337 -0.7650 -0.8910  1.0977
 8748TIP3    H247660   2.382   1.141  13.325 -0.0229  0.3375 -1.5978
 8749TIP3   OH247661   4.512   2.153   3.373 -0.2050 -0.3195  0.0231
 8749TIP3    H147662   4.440   2.137   3.311 -1.0512  0.9390  0.6451
 8749TIP3    H247663   4.475   2.130   3.458 -0.3437  1.6372  0.5094
 8750TIP3   OH247664   4.141   3.698   1.620  0.1135 -0.6081  0.0617
 8750TIP3    H147665   4.146   3.602   1.617  0.3193 -0.6762  1.7141
 8750TIP3    H247666   4.095   3.716   1.702 -0.3803  0.7018 -0.4919
 8751TIP3   OH247667   0.353   1.638  11.300  0.1000 -0.3528 -0.2668
 8751TIP3    H147668   0.430   1.593  11.267  1.0495  0.7869  0.3422
 8751TIP3    H247669   0.373   1.731  11.288 -1.2163 -0.0505 -0.1887
 8752TIP3   OH247670   4.922   6.080  14.666 -0.3990  0.6397  0.2879
 8752TIP3    H147671   4.945   6.147  14.602 -0.7503  0.7050  0.2295
 8752TIP3    H247672   5.004   6.060  14.711  0.0497 -0.1278 -0.8544
 8753TIP3   OH247673   0.809   0.655   2.887  0.5962  0.3882  0.0969
 8753TIP3    H147674   0.766   0.740   2.892 -0.5200 -0.2811  3.3119
 8753TIP3    H247675   0.823   0.630   2.979  2.7355 -1.9758 -0.8234
 8754TIP3   OH247676   5.292   5.250   2.072  0.3570 -0.6477  0.1885
 8754TIP3    H147677   5.198   5.243   2.052  0.1373 -0.4445  1.1120
 8754TIP3    H247678   5.300   5.215   2.161  1.2888 -1.4136 -0.2006
 8755TIP3   OH247679   1.548   4.132  14.284  0.0210  0.4918 -0.2065
 8755TIP3    H147680   1.546   4.192  14.210  0.7201  0.7822  0.0043
 8755TIP3    H247681   1.613   4.066  14.261  0.1341  0.4986  0.0861
 8756TIP3   OH247682   6.061   1.166  16.346 -0.2057  0.4766  0.4986
 8756TIP3    H147683   6.093   1.256  16.339  1.3661 -0.1746 -1.3071
 8756TIP3    H247684   6.008   1.153  16.267 -0.6445 -0.1098  0.8836
 8757TIP3   OH247685   5.367   6.034  16.226  0.7762  0.3514 -0.9947
 8757TIP3    H147686   5.451   5.988  16.228  1.6376  1.9197  0.2062
 8757TIP3    H247687   5.333   6.018  16.138  1.1395 -2.3828 -0.6839
 8758TIP3   OH247688   2.728   5.900  15.327  0.3985  0.1153  0.2428
 8758TIP3    H147689   2.800   5.888  15.265 -1.0290  0.7256 -1.5869
 8758TIP3    H247690   2.728   5.820  15.380  2.8904  0.4522  0.8066
 8759TIP3   OH247691   4.957   1.986   5.727 -0.1151 -0.0041 -0.3961
 8759TIP3    H147692   4.959   1.978   5.631 -2.5627  2.2843 -0.6918
 8759TIP3    H247693   4.884   1.931   5.755  1.0649 -1.2632  0.2515
 8760TIP3   OH247694   6.513   3.142   2.826 -0.4193 -0.5765 -0.4246
 8760TIP3    H147695   6.583   3.094   2.783  1.0561 -0.7571  2.1075
 8760TIP3    H247696   6.556   3.219   2.864 -1.8244 -0.0083  0.0525
 8761TIP3   OH247697   0.318   0.168   3.495  0.0028  0.1094 -0.1506
 8761TIP3    H147698   0.368   0.234   3.543  0.7741  1.5880 -2.8801
 8761TIP3    H247699   0.268   0.218   3.430 -1.3782 -1.7646 -0.5776
 8762TIP3   OH247700   0.941   3.313  13.185  0.3440 -0.0261 -0.0002
 8762TIP3    H147701   1.009   3.380  13.175  0.7310 -0.1593  1.6163
 8762TIP3    H247702   0.985   3.241  13.231 -0.2055 -1.1795 -1.2765
 8763TIP3   OH247703   3.548   2.919   2.883  0.5368  0.0761 -0.1821
 8763TIP3    H147704   3.593   2.841   2.914  0.7095  0.8081  1.4452
 8763TIP3    H247705   3.603   2.992   2.912 -1.1198  0.9244  0.8760
 8764TIP3   OH247706   5.788   4.170  13.646  0.0252  0.0280 -0.3375
 8764TIP3    H147707   5.853   4.196  13.711 -0.0485 -0.5903 -0.0123
 8764TIP3    H247708   5.836   4.113  13.585  0.2235  1.0270 -1.1297
 8765TIP3   OH247709   3.069   5.994   1.177 -0.0993 -0.1638 -0.1623
 8765TIP3    H147710   3.162   6.014   1.176 -0.0960 -0.2466 -1.5262
 8765TIP3    H247711   3.048   5.971   1.087 -1.3265 -0.6711  0.2454
 8766TIP3   OH247712   4.854   0.112   4.850 -0.0883 -0.2958  0.1294
 8766TIP3    H147713   4.882   0.171   4.780  1.5622  1.2250  2.0197
 8766TIP3    H247714   4.869   0.024   4.815  0.3960  0.4336 -1.5434
 8767TIP3   OH247715   6.382   0.200   2.515  0.3321 -0.3438  0.0256
 8767TIP3    H147716   6.417   0.279   2.475 -0.5283  0.4374  0.7683
 8767TIP3    H247717   6.427   0.194   2.600  2.6997 -2.4008 -1.3178
 8768TIP3   OH247718   6.136   1.453   2.639  0.0535  0.0515 -0.0160
 8768TIP3    H147719   6.195   1.527   2.653 -0.4419  0.8079 -1.9021
 8768TIP3    H247720   6.173   1.406   2.565 -0.5630 -0.6529  0.1133
 8769TIP3   OH247721   0.998   1.498  16.901 -0.6308 -0.5931 -0.1805
 8769TIP3    H147722   1.006   1.589  16.872  0.2286 -0.3180  0.9115
 8769TIP3    H247723   0.947   1.456  16.832 -1.2102  0.7647 -0.5997
 8770TIP3   OH247724   1.906   1.049  13.451 -0.1854 -0.2691 -0.3940
 8770TIP3    H147725   1.948   0.990  13.389  0.5771 -0.8380  0.6296
 8770TIP3    H247726   1.918   1.006  13.536 -0.7184  0.7564  0.2106
 8771TIP3   OH247727   4.842   1.176  12.486 -0.5375 -0.1084 -0.3481
 8771TIP3    H147728   4.933   1.196  12.463 -0.6098 -0.3377 -0.8409
 8771TIP3    H247729   4.805   1.136  12.407 -1.4943  1.3192 -0.6458
 8772TIP3   OH247730   1.445   2.463  11.231  0.4799 -0.3461 -0.4723
 8772TIP3    H147731   1.529   2.509  11.222 -0.1007  0.7885 -0.1949
 8772TIP3    H247732   1.399   2.481  11.149  0.0147  0.0472 -0.1269
 8773TIP3   OH247733   6.238   0.459  16.762  0.0655  0.0391  0.2267
 8773TIP3    H147734   6.185   0.416  16.694 -1.8916  2.2415  0.2971
 8773TIP3    H247735   6.310   0.498  16.714  0.9261 -1.8093 -0.0484
 8774TIP3   OH247736   0.860   1.217   1.392  0.0118 -0.5538  0.1378
 8774TIP3    H147737   0.862   1.185   1.482 -0.5704 -0.1344  0.3022
 8774TIP3    H247738   0.906   1.301   1.396  0.8590 -1.0002 -0.1460
 8775TIP3   OH247739   1.668   5.679  16.766  0.2116  0.0625 -0.2344
 8775TIP3    H147740   1.723   5.621  16.713 -0.0245 -0.0144 -0.3977
 8775TIP3    H247741   1.715   5.762  16.767  0.1574  0.0990 -0.6657
 8776TIP3   OH247742   6.556   1.529   3.334  0.2908  0.6360 -0.2906
 8776TIP3    H147743   6.543   1.533   3.429  1.4094 -2.1737  0.0489
 8776TIP3    H247744   6.612   1.452   3.321 -2.0402 -0.6443 -3.4379
 8777TIP3   OH247745   0.257   1.792   5.368  0.2469  0.4329 -0.3081
 8777TIP3    H147746   0.322   1.780   5.298  0.7375  1.1644  0.0172
 8777TIP3    H247747   0.282   1.730   5.436  0.5337  0.6183 -0.2422
 8778TIP3   OH247748   5.038   0.057  16.718  0.1731  0.5257 -0.4307
 8778TIP3    H147749   5.050   0.149  16.741 -0.7948  0.6533 -0.4083
 8778TIP3    H247750   4.995   0.059  16.632  0.9077  0.0807 -0.8120
 8779TIP3   OH247751   2.125   0.962   4.194 -0.1858 -0.1066  0.4740
 8779TIP3    H147752   2.174   1.035   4.232  0.7544 -0.0854 -0.7365
 8779TIP3    H247753   2.185   0.887   4.201 -1.2053 -0.8211  1.8536
 8780TIP3   OH247754   6.611   3.662   0.795 -0.0198  0.3989  0.0991
 8780TIP3    H147755   6.527   3.644   0.837 -0.1492 -0.7874 -0.6554
 8780TIP3    H247756   6.633   3.582   0.749  1.6208  0.6336  0.4255
 8781TIP3   OH247757   1.196   0.989   3.924 -0.0218  0.4378 -0.5105
 8781TIP3    H147758   1.222   0.898   3.935 -1.0974  0.1294 -0.4420
 8781TIP3    H247759   1.272   1.040   3.953  0.0810 -0.4332  0.7953
 8782TIP3   OH247760   5.401   6.317  15.581 -0.4503  0.2980  0.1724
 8782TIP3    H147761   5.331   6.364  15.627 -0.2691  1.1053 -0.3706
 8782TIP3    H247762   5.436   6.380  15.519 -0.2696 -0.5884 -0.6407
 8783TIP3   OH247763   1.237   5.621   1.993 -0.1223  0.1044 -0.4096
 8783TIP3    H147764   1.304   5.555   1.973 -0.1962  0.1713 -0.8879
 8783TIP3    H247765   1.155   5.571   1.999  0.2968 -0.3337  2.5414
 8784TIP3   OH247766   1.634   1.885   6.151 -0.3941 -0.1901 -0.7361
 8784TIP3    H147767   1.546   1.882   6.112  0.3934 -0.5220 -2.5148
 8784TIP3    H247768   1.693   1.864   6.079  1.2649  1.6097  0.0594
 8785TIP3   OH247769   2.120   3.967  13.915  0.0558  0.4890 -0.4020
 8785TIP3    H147770   2.176   4.037  13.948 -0.8359  1.3702 -0.7564
 8785TIP3    H247771   2.175   3.919  13.852  1.1351 -0.0248  0.9003
 8786TIP3   OH247772   1.397   1.931  11.507  0.3963 -0.0537  0.1021
 8786TIP3    H147773   1.370   1.891  11.424 -2.7218 -1.6625  1.8241
 8786TIP3    H247774   1.477   1.884  11.531  0.3950 -0.7270 -1.1356
 8787TIP3   OH247775   1.843   0.735  15.063 -0.2811 -0.5586  0.5906
 8787TIP3    H147776   1.769   0.732  15.125  0.2506 -0.4227  1.2384
 8787TIP3    H247777   1.834   0.655  15.011 -0.3719 -0.9939  1.2702
 8788TIP3   OH247778   4.445   4.232   2.470 -0.2988 -0.4401  0.1744
 8788TIP3    H147779   4.368   4.178   2.488 -1.9134  2.2077  1.5883
 8788TIP3    H247780   4.501   4.221   2.548  1.0487 -2.7683 -1.0779
 8789TIP3   OH247781   2.082   0.711   2.641  0.0804  0.3825  0.1883
 8789TIP3    H147782   2.073   0.748   2.729 -0.3360 -0.4592  0.5182
 8789TIP3    H247783   2.173   0.727   2.617  0.7233 -0.9697  1.5408
 8790TIP3   OH247784   4.225   2.623   5.126  0.0421  0.2266  0.1701
 8790TIP3    H147785   4.321   2.615   5.125 -0.0029 -0.4317 -1.1809
 8790TIP3    H247786   4.204   2.660   5.040 -0.9928 -0.6916  0.0174
 8791TIP3   OH247787   6.511   3.290   4.485  0.0342  0.3864  0.0916
 8791TIP3    H147788   6.433   3.281   4.430 -0.4557  1.0888  0.6533
 8791TIP3    H247789   6.484   3.351   4.554  1.1764  0.8727  0.1115
 8792TIP3   OH247790   5.040   4.644  11.663 -0.9021 -0.5446  0.3203
 8792TIP3    H147791   5.029   4.573  11.600 -1.2243  0.4812 -0.8055
 8792TIP3    H247792   5.126   4.681  11.641 -1.0221 -0.1780  0.4778
 8793TIP3   OH247793   1.642   6.586  11.544 -0.0833  0.1255 -0.0931
 8793TIP3    H147794   1.595   6.659  11.586  0.7731  1.0455 -0.7144
 8793TIP3    H247795   1.642   6.608  11.451 -0.2532 -0.9299 -0.3505
 8794TIP3   OH247796   2.319   5.481  16.207 -0.1066  0.1966 -0.4572
 8794TIP3    H147797   2.386   5.444  16.149 -0.5960  0.8208 -1.4346
 8794TIP3    H247798   2.249   5.416  16.207  0.1627 -0.0941 -0.0645
 8795TIP3   OH247799   4.817   4.516   4.375  0.5436 -0.2941  0.2717
 8795TIP3    H147800   4.762   4.444   4.342 -0.5213 -0.4029  2.2054
 8795TIP3    H247801   4.905   4.495   4.343  0.0722 -1.9700  0.0084
 8796TIP3   OH247802   6.164   2.462  15.939  0.9623  0.0131 -0.7482
 8796TIP3    H147803   6.079   2.469  15.982  0.9904  1.5563 -0.9106
 8796TIP3    H247804   6.223   2.430  16.008  0.4562 -0.0989 -0.3635
 8797TIP3   OH247805   0.256   5.815   3.071  0.1682  0.0340 -0.8316
 8797TIP3    H147806   0.268   5.893   3.126  0.1104 -0.5944  0.0792
 8797TIP3    H247807   0.225   5.849   2.987  0.9503  1.0634 -0.7120
 8798TIP3   OH247808   6.718   5.832   2.098  0.7160 -0.1168  0.2001
 8798TIP3    H147809   6.654   5.859   2.164  0.4511  0.9824 -0.5097
 8798TIP3    H247810   6.672   5.836   2.015  1.7840  0.9970 -0.3608
 8799TIP3   OH247811   1.298   4.375  12.577 -0.2148 -0.2890 -0.0452
 8799TIP3    H147812   1.226   4.351  12.518 -0.8743  0.5980  0.3991
 8799TIP3    H247813   1.311   4.468  12.561  1.5830 -0.6737 -0.9256
 8800TIP3   OH247814   1.531   1.564   0.059  0.4778 -0.2941  0.0228
 8800TIP3    H147815   1.543   1.618   0.137  0.7974  1.0897 -0.9697
 8800TIP3    H247816   1.453   1.599   0.017 -1.2401 -2.7133  1.0665
 8801TIP3   OH247817   3.847   1.876  15.788 -0.0886 -0.2683  0.3566
 8801TIP3    H147818   3.877   1.842  15.872 -0.5177 -3.0915 -0.5883
 8801TIP3    H247819   3.755   1.848  15.783 -0.2634  0.4896 -0.7586
 8802TIP3   OH247820   0.241   3.607  13.956 -0.8604  0.3378 -0.5995
 8802TIP3    H147821   0.196   3.537  14.003  0.6277 -1.0386 -1.1385
 8802TIP3    H247822   0.290   3.654  14.023  0.1938 -0.7896 -0.5473
 8803TIP3   OH247823   5.391   3.910  12.435  0.9022 -0.3248 -0.4474
 8803TIP3    H147824   5.408   3.816  12.426  0.9830 -0.2064 -1.5778
 8803TIP3    H247825   5.304   3.923  12.396  0.5954 -0.0373  0.3213
 8804TIP3   OH247826   1.736   2.790   3.719 -0.1544  0.1784  0.1198
 8804TIP3    H147827   1.764   2.861   3.661  0.0434 -0.0842 -0.1089
 8804TIP3    H247828   1.714   2.718   3.660  0.8494 -0.3717  0.3956
 8805TIP3   OH247829   5.597   6.107  11.663 -0.1949  0.0217 -0.3843
 8805TIP3    H147830   5.679   6.132  11.620 -0.7659  1.5984 -0.5915
 8805TIP3    H247831   5.623   6.077  11.749  0.4998  1.9087  0.1007
 8806TIP3   OH247832   4.864   1.854   2.241 -0.7280 -0.2375  0.5662
 8806TIP3    H147833   4.851   1.948   2.227 -0.7439  0.0069  2.0787
 8806TIP3    H247834   4.832   1.813   2.161  1.0328  1.1554 -0.8977
 8807TIP3   OH247835   6.686   2.354   1.614 -0.1646 -0.0926  0.4383
 8807TIP3    H147836   6.705   2.303   1.535  1.2298  0.4095  0.4368
 8807TIP3    H247837   6.610   2.407   1.590 -0.8188 -1.2022  0.0128
 8808TIP3   OH247838   1.912   1.526   1.819  0.3902 -0.1255  0.7758
 8808TIP3    H147839   1.959   1.498   1.897  0.4401 -2.1360  0.0488
 8808TIP3    H247840   1.830   1.476   1.821  0.3574 -0.1387 -0.4232
 8809TIP3   OH247841   2.776   4.398   2.329  0.1948 -0.5199 -0.0687
 8809TIP3    H147842   2.712   4.362   2.268  1.2031 -0.4185 -1.2240
 8809TIP3    H247843   2.780   4.335   2.401 -0.9233 -0.6992 -0.1522
 8810TIP3   OH247844   3.292   0.566  17.023 -0.2805  0.2456  0.0533
 8810TIP3    H147845   3.264   0.614  17.100 -1.0397 -1.0945  0.6414
 8810TIP3    H247846   3.283   0.628  16.951  0.1490  1.4133  1.0014
 8811TIP3   OH247847   3.367   2.035  11.976 -0.2300  0.0599 -0.2509
 8811TIP3    H147848   3.352   1.951  12.021  1.2248 -0.1671 -0.1500
 8811TIP3    H247849   3.348   2.017  11.884  1.4312 -0.7775 -0.4527
 8812TIP3   OH247850   0.559   6.508   2.303 -0.0254  0.4249 -0.6097
 8812TIP3    H147851   0.616   6.449   2.253 -0.5629  0.1619 -0.9103
 8812TIP3    H247852   0.478   6.458   2.316 -0.1161  0.7219 -0.0084
 8813TIP3   OH247853   2.172   5.488   3.750  0.2111  0.1495  0.5099
 8813TIP3    H147854   2.207   5.461   3.665  0.6293  0.8122  0.4719
 8813TIP3    H247855   2.082   5.515   3.731  0.8205  1.8681 -0.0199
 8814TIP3   OH247856   4.618   2.105  12.631 -0.7077  0.0082 -0.1051
 8814TIP3    H147857   4.710   2.130  12.641 -0.3753 -0.7260 -1.2689
 8814TIP3    H247858   4.596   2.063  12.713 -0.6964  2.2743  1.1141
 8815TIP3   OH247859   6.628   3.472  16.993  0.1206  0.6763 -0.0357
 8815TIP3    H147860   6.601   3.548  16.941 -2.8878 -0.1562  0.1849
 8815TIP3    H247861   6.591   3.488  17.079  0.6485 -0.4012  0.3986
 8816TIP3   OH247862   5.000   5.645  12.942  0.3326  0.1030 -0.1358
 8816TIP3    H147863   4.975   5.656  12.850 -0.7019 -1.5727 -0.0793
 8816TIP3    H247864   5.095   5.644  12.941  0.3477  1.0787 -1.0601
 8817TIP3   OH247865   3.319   4.248   1.567  0.3250 -0.0346  0.3994
 8817TIP3    H147866   3.257   4.278   1.500 -0.1615  0.4641  1.0762
 8817TIP3    H247867   3.403   4.287   1.540 -0.4449  2.6734  1.7214
 8818TIP3   OH247868   3.159   4.372   1.773  0.5054 -0.5445 -0.5615
 8818TIP3    H147869   3.213   4.327   1.708  0.1251 -1.4801 -0.2432
 8818TIP3    H247870   3.102   4.429   1.722  0.0757 -1.4211 -1.0656
 8819TIP3   OH247871   4.944   2.939  13.421 -0.2154 -0.2386 -0.9356
 8819TIP3    H147872   4.981   3.023  13.449  1.3067 -0.8721 -0.9940
 8819TIP3    H247873   4.938   2.944  13.326 -0.9573  0.1247 -0.8768
 8820TIP3   OH247874   1.267   2.798  14.677  0.4508  0.6502 -0.5276
 8820TIP3    H147875   1.209   2.819  14.604 -0.5718  0.2369  0.1694
 8820TIP3    H247876   1.349   2.772  14.635 -0.4359 -0.5327 -1.5659
 8821TIP3   OH247877   3.171   4.594  15.085  0.3755  0.4058 -0.3672
 8821TIP3    H147878   3.095   4.537  15.089  1.5746 -1.2690 -0.6438
 8821TIP3    H247879   3.207   4.579  14.997  2.4665 -0.7865  0.6558
 8822TIP3   OH247880   2.644   1.321  13.073  0.1178 -0.0508  0.2092
 8822TIP3    H147881   2.626   1.389  13.008 -1.5124 -0.3001  0.3722
 8822TIP3    H247882   2.689   1.252  13.024  1.7151  1.0998  0.0259
 8823TIP3   OH247883   0.732   5.986  10.788 -0.8160 -0.5865  0.5291
 8823TIP3    H147884   0.760   6.015  10.875 -1.8063 -0.4774  0.8247
 8823TIP3    H247885   0.683   6.061  10.753  0.4025 -0.2702 -0.5242
 8824TIP3   OH247886   3.259   2.252  14.918  0.1414  0.0819  0.1927
 8824TIP3    H147887   3.164   2.257  14.930  0.0975 -0.6555  0.1842
 8824TIP3    H247888   3.275   2.161  14.894  0.9766 -0.1100  1.4206
 8825TIP3   OH247889   4.874   4.028  11.445 -0.8718 -0.5255  0.1984
 8825TIP3    H147890   4.949   4.061  11.396 -0.7676 -0.5195  0.3611
 8825TIP3    H247891   4.838   3.958  11.390 -0.5877 -0.7071  0.2443
 8826TIP3   OH247892   1.413   2.643  16.220 -0.1037 -0.2932  0.5258
 8826TIP3    H147893   1.411   2.738  16.230  0.2398 -0.1179 -0.8927
 8826TIP3    H247894   1.322   2.616  16.226 -0.0552 -0.0698  2.5529
 8827TIP3   OH247895   4.777   0.721  12.995 -0.1478  0.7676 -0.1317
 8827TIP3    H147896   4.859   0.673  12.991  0.4927  1.8506 -0.3876
 8827TIP3    H247897   4.718   0.665  13.044 -0.3672 -1.6073 -2.9748
 8828TIP3   OH247898   2.839   2.397   0.658 -0.8679  0.2593  0.4900
 8828TIP3    H147899   2.912   2.336   0.657 -0.9047  0.2344 -0.8724
 8828TIP3    H247900   2.781   2.364   0.727  0.7163  0.6747  2.0911
 8829TIP3   OH247901   4.543   4.646   3.842  0.0341 -0.8657 -0.1884
 8829TIP3    H147902   4.599   4.718   3.814  1.3470 -1.7699  0.0742
 8829TIP3    H247903   4.527   4.596   3.761  0.5537 -1.2481 -0.0570
 8830TIP3   OH247904   6.767   4.383  15.171  0.1984  0.0572  0.1523
 8830TIP3    H147905   6.843   4.390  15.228  1.1115 -0.3740 -0.9890
 8830TIP3    H247906   6.767   4.464  15.120 -0.3213  0.2158  0.4012
 8831TIP3   OH247907   5.731   5.832   5.412  0.1114 -0.1646 -0.4177
 8831TIP3    H147908   5.682   5.906   5.378  1.2447 -0.0027 -1.7195
 8831TIP3    H247909   5.676   5.756   5.393 -0.6481  0.2422  0.1328
 8832TIP3   OH247910   0.073   3.471   3.601 -0.0320 -0.1251 -0.0060
 8832TIP3    H147911   0.146   3.440   3.548  1.0779  1.0119  0.8513
 8832TIP3    H247912   0.036   3.544   3.551  0.1756  0.0715  0.1241
 8833TIP3   OH247913   5.388   0.771   4.425  0.5367 -0.0120 -0.4053
 8833TIP3    H147914   5.424   0.784   4.513  0.9417 -0.0782 -0.5624
 8833TIP3    H247915   5.318   0.837   4.418  0.3090 -0.1998  0.0741
 8834TIP3   OH247916   5.287   3.106  12.603  0.8505 -0.2816  0.3634
 8834TIP3    H147917   5.340   3.026  12.593  0.3888 -0.8913  2.5057
 8834TIP3    H247918   5.250   3.121  12.516  1.9528 -1.6859 -0.3757
 8835TIP3   OH247919   2.821   2.732   3.921  0.1360  0.1853 -0.0788
 8835TIP3    H147920   2.774   2.703   3.999 -1.0644  1.3785 -0.3480
 8835TIP3    H247921   2.882   2.660   3.903 -0.6870 -0.8256  1.0046
 8836TIP3   OH247922   2.850   3.742   0.803 -0.0060 -0.1503 -0.0160
 8836TIP3    H147923   2.926   3.801   0.801  0.7060 -1.0607  0.1930
 8836TIP3    H247924   2.837   3.723   0.896  0.3943 -1.1475 -0.1670
 8837TIP3   OH247925   1.846   1.212  14.366  0.6560  0.7655 -0.4086
 8837TIP3    H147926   1.751   1.222  14.374  0.4144 -2.1546  0.8266
 8837TIP3    H247927   1.859   1.167  14.283  0.8095 -0.4127  0.2374
 8838TIP3   OH247928   5.082   5.461   2.576 -0.4280 -0.2638 -0.0744
 8838TIP3    H147929   5.070   5.370   2.601  1.1685 -0.6745 -0.7550
 8838TIP3    H247930   5.175   5.468   2.554 -1.1260  0.8120 -2.8400
 8839TIP3   OH247931   4.023   3.070  14.891 -0.3251 -0.2498 -0.5014
 8839TIP3    H147932   3.938   3.087  14.850 -1.0806 -0.8810  0.7522
 8839TIP3    H247933   4.069   3.153  14.887 -0.6543 -0.1272 -1.9932
 8840TIP3   OH247934   4.319   1.348  14.619  0.1472 -0.2220  0.3181
 8840TIP3    H147935   4.284   1.427  14.660  1.4112 -0.0534  1.1006
 8840TIP3    H247936   4.242   1.297  14.595 -0.6809  1.1494  0.0017
 8841TIP3   OH247937   0.722   6.268   3.180  0.6323  0.4516 -0.3529
 8841TIP3    H147938   0.807   6.307   3.199 -0.1073  1.0491  1.9574
 8841TIP3    H247939   0.741   6.195   3.121  2.5444  1.5831 -1.1761
 8842TIP3   OH247940   3.152   6.532  16.444  0.4186  0.6214 -0.5501
 8842TIP3    H147941   3.221   6.466  16.443  0.9629  1.1583  0.3723
 8842TIP3    H247942   3.082   6.492  16.495 -0.3955 -0.3463 -2.4036
 8843TIP3   OH247943   1.259   6.474  16.271 -0.0639 -0.0913 -0.4220
 8843TIP3    H147944   1.183   6.529  16.255 -0.8533 -0.9653  0.2538
 8843TIP3    H247945   1.313   6.484  16.193 -0.0773  1.8157 -0.2104
 8844TIP3   OH247946   6.018   0.634  11.806 -0.1150 -0.0204 -0.1767
 8844TIP3    H147947   6.047   0.595  11.724 -2.3478 -1.7253 -0.1992
 8844TIP3    H247948   5.923   0.632  11.801 -0.2873  2.3302  1.3329
 8845TIP3   OH247949   4.061   5.540  11.906 -0.5380 -0.3793  0.0052
 8845TIP3    H147950   4.071   5.466  11.966  1.4090 -0.2122 -0.0675
 8845TIP3    H247951   4.149   5.553  11.870 -1.3681  0.4881 -1.7496
 8846TIP3   OH247952   1.491   5.301   4.339 -0.4262 -0.0598 -0.0081
 8846TIP3    H147953   1.432   5.228   4.319  0.8689 -0.9370 -0.6706
 8846TIP3    H247954   1.576   5.260   4.353  0.2027  1.2802  0.1817
 8847TIP3   OH247955   1.297   5.595  13.509 -0.2903 -0.0587  0.0131
 8847TIP3    H147956   1.355   5.652  13.460  0.0538 -0.2345  0.2145
 8847TIP3    H247957   1.350   5.564  13.582 -0.7813  0.1663  0.4729
 8848TIP3   OH247958   0.648   4.028  15.807  0.5305  0.6900  0.2127
 8848TIP3    H147959   0.558   4.001  15.794  1.4629 -3.7326  1.9193
 8848TIP3    H247960   0.649   4.066  15.895  0.8683 -2.5130  1.6800
 8849TIP3   OH247961   3.675   2.818   3.739 -0.3878 -0.1719  0.4928
 8849TIP3    H147962   3.762   2.806   3.701 -1.1405 -0.7972 -1.1186
 8849TIP3    H247963   3.622   2.749   3.698 -1.8397  0.7585  0.7706
 8850TIP3   OH247964   6.298   1.099  15.999  0.2346  0.6620  0.1634
 8850TIP3    H147965   6.294   1.016  15.952  0.3284 -0.8531  2.7610
 8850TIP3    H247966   6.275   1.165  15.933 -0.5605 -1.4726 -1.7580
 8851TIP3   OH247967   6.017   0.240  13.614  0.1717  0.3716 -0.0398
 8851TIP3    H147968   5.996   0.281  13.530 -0.1647 -1.3446 -0.8195
 8851TIP3    H247969   5.934   0.241  13.663  0.3929  1.4662  0.3104
 8852TIP3   OH247970   6.101   2.322   1.234 -0.4150  0.7084  0.2122
 8852TIP3    H147971   6.072   2.276   1.313 -0.1184 -0.1293 -0.1654
 8852TIP3    H247972   6.173   2.270   1.200 -0.0744  1.4495 -0.2301
 8853TIP3   OH247973   2.504   2.989  10.914  0.5779 -0.1480 -0.4265
 8853TIP3    H147974   2.449   3.014  10.840  0.3359 -1.6620 -0.7649
 8853TIP3    H247975   2.562   2.922  10.879  0.6221 -0.7086  0.7004
 8854TIP3   OH247976   4.204   5.931  11.897 -0.4246 -0.5149  0.2068
 8854TIP3    H147977   4.166   5.968  11.977  0.7812  1.7838 -0.2221
 8854TIP3    H247978   4.163   5.982  11.827 -0.1194 -1.2835 -0.5209
 8855TIP3   OH247979   1.773   0.938   1.158  0.0444  0.7434  0.2157
 8855TIP3    H147980   1.798   0.846   1.162  0.0907  0.8101  1.5620
 8855TIP3    H247981   1.855   0.985   1.141  0.1845  0.6298  0.5885
 8856TIP3   OH247982   6.085   2.404  10.417  0.2182 -0.3408  0.2071
 8856TIP3    H147983   6.088   2.374  10.326  2.3275 -0.0398  0.1538
 8856TIP3    H247984   6.067   2.325  10.468 -0.3344 -0.6229 -0.4267
 8857TIP3   OH247985   3.797   3.976   5.376  0.0336 -0.2486  0.0854
 8857TIP3    H147986   3.812   4.022   5.293  0.9724 -0.2035  0.2813
 8857TIP3    H247987   3.778   4.045   5.439 -0.4580 -0.2665 -0.0447
 8858TIP3   OH247988   2.154   4.612  13.168  0.0553  0.8179 -0.1925
 8858TIP3    H147989   2.099   4.548  13.123  0.6138 -0.0884  0.4082
 8858TIP3    H247990   2.108   4.632  13.249  1.3612 -1.1290  1.0539
 8859TIP3   OH247991   1.579   0.415   5.838 -0.7181  0.8833 -0.5490
 8859TIP3    H147992   1.550   0.505   5.823 -1.5198  0.5460 -1.1289
 8859TIP3    H247993   1.614   0.387   5.753 -1.0013  0.4745 -0.5363
 8860TIP3   OH247994   2.131   3.770  14.690  0.6863 -0.1701 -0.1776
 8860TIP3    H147995   2.159   3.695  14.637 -2.6416 -1.8066  0.2351
 8860TIP3    H247996   2.124   3.736  14.779 -1.1893  0.5092 -0.0379
 8861TIP3   OH247997   3.875   6.277  12.476  0.1969  0.3791  0.0348
 8861TIP3    H147998   3.842   6.275  12.566  2.8862  1.8375  1.1152
 8861TIP3    H247999   3.879   6.370  12.454 -1.6625  0.0040 -2.1290
 8862TIP3   OH248000   0.236   5.183  15.165 -0.3790  0.5670 -0.0561
 8862TIP3    H148001   0.310   5.229  15.205 -1.0716 -0.6524  2.8077
 8862TIP3    H248002   0.270   5.149  15.083  1.2452  2.9072 -0.4144
 8863TIP3   OH248003   5.705   6.154   0.114 -0.5479  0.1075  0.4389
 8863TIP3    H148004   5.776   6.215   0.130  1.1226 -1.1424 -1.9004
 8863TIP3    H248005   5.647   6.164   0.189  0.6225  3.2120  0.9857
 8864TIP3   OH248006   3.951   3.942   1.305  0.5724 -0.0362  0.1928
 8864TIP3    H148007   3.935   3.859   1.260  1.9878 -0.3831  0.3165
 8864TIP3    H248008   3.883   3.947   1.372 -0.7176 -0.1639 -1.0869
 8865TIP3   OH248009   5.566   1.301  12.034  0.2793  0.5887  0.7461
 8865TIP3    H148010   5.622   1.322  12.109 -0.1645  3.5120  0.3043
 8865TIP3    H248011   5.618   1.325  11.957 -0.6651  1.0546  0.2462
 8866TIP3   OH248012   4.003   1.598   5.063 -0.0042  0.5735 -0.4735
 8866TIP3    H148013   4.095   1.618   5.051  0.4201  0.0353  1.5698
 8866TIP3    H248014   3.964   1.606   4.976  1.9494  0.8639 -1.3378
 8867TIP3   OH248015   1.703   6.234   2.108  0.1406  0.1538 -0.6711
 8867TIP3    H148016   1.732   6.232   2.017 -1.3535  0.5961 -1.1642
 8867TIP3    H248017   1.763   6.295   2.151  1.3429 -0.6542 -1.1791
 8868TIP3   OH248018   5.907   0.882   4.282  0.2851 -0.0861  0.2283
 8868TIP3    H148019   5.847   0.808   4.274 -0.4414  0.2719  2.1965
 8868TIP3    H248020   5.878   0.944   4.216  0.4086 -1.2141 -0.9034
 8869TIP3   OH248021   0.791   1.854  15.905 -0.0170  0.0282 -0.3553
 8869TIP3    H148022   0.878   1.888  15.921 -0.7061  2.0990 -0.8869
 8869TIP3    H248023   0.803   1.759  15.897  1.6629 -0.0773  2.8680
 8870TIP3   OH248024   0.986   0.192   5.336  0.5361  0.7024  0.4262
 8870TIP3    H148025   0.897   0.207   5.305  0.4603  1.0175  0.7851
 8870TIP3    H248026   1.041   0.209   5.260  0.4060  2.1744  0.6423
 8871TIP3   OH248027   4.423   5.007  15.267 -0.8604  0.1720  0.0575
 8871TIP3    H148028   4.394   5.073  15.205  2.7661  0.1501 -1.7758
 8871TIP3    H248029   4.382   4.926  15.238 -1.4420  0.7041 -0.5965
 8872TIP3   OH248030   3.990   5.447  16.034 -1.4292  0.2392 -0.2276
 8872TIP3    H148031   4.061   5.497  15.992 -0.9395 -0.1523  0.1321
 8872TIP3    H248032   4.027   5.417  16.116 -1.9153 -0.2418 -0.1821
 8873TIP3   OH248033   6.576   3.111   0.264 -0.5542  0.0320  0.2960
 8873TIP3    H148034   6.646   3.138   0.205 -2.6640  2.6817 -1.1220
 8873TIP3    H248035   6.495   3.140   0.220 -2.3111  0.1036  3.4189
 8874TIP3   OH248036   0.089   3.055   2.381  0.5621  0.5164 -0.2105
 8874TIP3    H148037   0.063   2.963   2.382 -0.9383  0.9040 -1.0998
 8874TIP3    H248038   0.044   3.091   2.304  0.9706  2.0280  0.2505
 8875TIP3   OH248039   0.326   4.388   0.004  0.0418 -0.3023  0.3146
 8875TIP3    H148040   0.333   4.296   0.028 -0.7922 -0.2928  0.5973
 8875TIP3    H248041   0.243   4.417   0.041 -0.0368  0.3856 -0.3793
 8876TIP3   OH248042   2.576   2.827   4.826 -0.1157  0.2439  0.0482
 8876TIP3    H148043   2.594   2.898   4.888  0.9130  0.6282 -0.6726
 8876TIP3    H248044   2.637   2.757   4.852 -0.3257  0.0567  0.0402
 8877TIP3   OH248045   0.520   4.473   2.917 -0.4891  0.3895 -0.3719
 8877TIP3    H148046   0.593   4.482   2.978 -0.2209 -0.1524 -0.6030
 8877TIP3    H248047   0.482   4.560   2.911 -1.0166  0.2840  1.1848
 8878TIP3   OH248048   5.367   3.126  14.312 -0.0279 -0.5372  0.4937
 8878TIP3    H148049   5.344   3.073  14.235  1.3135 -3.0815  1.7499
 8878TIP3    H248050   5.448   3.170  14.287  0.7541 -1.8635  0.6564
 8879TIP3   OH248051   6.569   5.846  15.058 -0.1323 -0.1861  0.0820
 8879TIP3    H148052   6.598   5.938  15.061  1.1239 -0.5257 -0.9784
 8879TIP3    H248053   6.540   5.833  14.968  1.2759 -1.2803 -0.2300
 8880TIP3   OH248054   1.884   6.200  16.352  0.0461 -0.8644  0.3788
 8880TIP3    H148055   1.854   6.143  16.281  0.0720 -1.6652  1.0060
 8880TIP3    H248056   1.963   6.242  16.317 -0.0436 -1.1204 -0.1345
 8881TIP3   OH248057   5.594   0.084   0.679  0.0468  0.1694 -0.5326
 8881TIP3    H148058   5.672   0.126   0.715  0.1794 -1.0072  0.5835
 8881TIP3    H248059   5.560   0.031   0.750 -0.3784 -1.2726 -1.7778
 8882TIP3   OH248060   0.978   4.171  14.655  0.2187  0.0877 -0.8152
 8882TIP3    H148061   1.002   4.249  14.706 -0.5433  0.5064 -1.0860
 8882TIP3    H248062   1.061   4.133  14.628  0.5824  1.4826 -1.7093
 8883TIP3   OH248063   6.779   4.836  14.039  0.2764 -0.9057 -0.5536
 8883TIP3    H148064   6.869   4.849  14.009 -0.1470 -2.7287 -2.7812
 8883TIP3    H248065   6.766   4.741  14.035 -1.4702 -0.7415  0.5616
 8884TIP3   OH248066   1.575   5.775   4.992  0.1636 -0.4512  0.1579
 8884TIP3    H148067   1.619   5.738   5.069 -0.5062  0.4215  0.9677
 8884TIP3    H248068   1.523   5.847   5.026 -1.3226 -0.9927 -0.9015
 8885TIP3   OH248069   5.133   5.523   3.292 -0.2072  0.0051  0.4567
 8885TIP3    H148070   5.063   5.484   3.345  0.4530 -0.0313  1.3162
 8885TIP3    H248071   5.114   5.617   3.294  0.9869  0.2268  2.5152
 8886TIP3   OH248072   6.780   1.249  16.345 -0.8654  0.4875  0.4874
 8886TIP3    H148073   6.790   1.243  16.250  1.0727 -0.1088  0.6944
 8886TIP3    H248074   6.868   1.270  16.376 -1.2425 -0.4200  2.2296
 8887TIP3   OH248075   1.632   0.726  15.241  0.0908  0.2985  0.0418
 8887TIP3    H148076   1.666   0.806  15.282 -1.1916  1.7795 -1.7130
 8887TIP3    H248077   1.557   0.701  15.296 -0.7767  1.4962 -0.5622
 8888TIP3   OH248078   0.546   4.954   1.837 -0.3688 -0.2750 -0.1108
 8888TIP3    H148079   0.556   4.919   1.925  1.6457  1.6246  0.4716
 8888TIP3    H248080   0.521   5.046   1.850  2.3849  0.7347 -1.3865
 8889TIP3   OH248081   4.082   1.560  15.353  0.2755  0.2917  0.0744
 8889TIP3    H148082   4.161   1.557  15.408 -0.8119 -1.2185  1.6009
 8889TIP3    H248083   4.044   1.646  15.369  1.6414  1.0669 -0.7385
 8890TIP3   OH248084   0.739   2.371  10.997 -0.1784  0.2939  0.4084
 8890TIP3    H148085   0.707   2.356  10.908 -0.8817  0.8594  0.5583
 8890TIP3    H248086   0.832   2.393  10.986  0.3283 -1.9227  0.0100
 8891TIP3   OH248087   3.607   2.704   6.257 -0.1407  0.3868  0.5962
 8891TIP3    H148088   3.567   2.781   6.215  0.5890  1.9680  2.7091
 8891TIP3    H248089   3.697   2.704   6.223 -0.6767 -0.6741 -0.8691
 8892TIP3   OH248090   3.996   5.149   5.685 -0.2305 -0.1540  0.3336
 8892TIP3    H148091   4.053   5.078   5.654  1.5817  1.3660  0.1047
 8892TIP3    H248092   4.050   5.196   5.749 -1.1247  1.4984 -0.1131
 8893TIP3   OH248093   4.306   6.350   4.928  0.6519 -0.1117 -0.4313
 8893TIP3    H148094   4.245   6.404   4.980  0.3298  0.0558 -0.9796
 8893TIP3    H248095   4.383   6.340   4.984  0.1342 -0.2944  0.2600
 8894TIP3   OH248096   3.420   5.245   2.438  0.4064  0.1194 -0.2469
 8894TIP3    H148097   3.514   5.234   2.422 -0.0130 -0.7734 -2.3482
 8894TIP3    H248098   3.405   5.339   2.430  1.0600  0.2157 -0.3611
 8895TIP3   OH248099   1.333   2.685   4.797 -0.0703 -0.4286  0.0009
 8895TIP3    H148100   1.307   2.602   4.757  0.2216 -0.1741 -0.7367
 8895TIP3    H248101   1.360   2.740   4.723 -1.3059  0.7033  0.3526
 8896TIP3   OH248102   1.812   3.582  10.826 -0.0600 -0.0285 -0.2296
 8896TIP3    H148103   1.797   3.507  10.769  0.1566  0.9907 -1.6583
 8896TIP3    H248104   1.756   3.651  10.792 -0.1003  0.5363  0.9349
 8897TIP3   OH248105   0.715   2.114   0.161 -0.7375  0.2916  0.3652
 8897TIP3    H148106   0.765   2.163   0.095 -0.4534 -1.3919 -0.6963
 8897TIP3    H248107   0.760   2.134   0.243 -0.6315  1.8137 -0.0446
 8898TIP3   OH248108   4.052   3.575   3.583 -0.3329 -0.3754 -0.2772
 8898TIP3    H148109   3.987   3.506   3.593 -0.4055 -0.1326  0.9648
 8898TIP3    H248110   4.133   3.537   3.618 -0.5180  0.3779  0.9928
 8899TIP3   OH248111   0.083   3.415  15.412  0.0284 -0.2745  0.1260
 8899TIP3    H148112   0.000   3.371  15.430  0.8523 -2.0364 -0.2687
 8899TIP3    H248113   0.130   3.355  15.355  2.0739  0.1730  1.3032
 8900TIP3   OH248114   3.443   2.553   4.216  0.1198 -0.4941  0.0062
 8900TIP3    H148115   3.509   2.587   4.276  0.6449  0.7480 -1.2519
 8900TIP3    H248116   3.493   2.498   4.155  0.4163  2.4556 -2.4894
 8901TIP3   OH248117   6.011   3.984  16.817 -0.4567 -0.1341 -0.6139
 8901TIP3    H148118   6.021   3.920  16.746 -1.4783 -3.2379  1.8816
 8901TIP3    H248119   5.940   4.041  16.789 -1.2830 -1.7230 -1.8463
 8902TIP3   OH248120   1.443   4.823  13.020  0.1165  1.1080 -0.2742
 8902TIP3    H148121   1.480   4.744  13.059 -0.3238  0.1729 -1.7096
 8902TIP3    H248122   1.484   4.895  13.068 -0.5869 -0.0021  2.0469
 8903TIP3   OH248123   5.668   0.394   5.382  0.0104 -0.8305  0.0312
 8903TIP3    H148124   5.582   0.369   5.348 -0.1524  0.6711 -0.6854
 8903TIP3    H248125   5.708   0.444   5.311  1.3696 -1.2745  0.4704
 8904TIP3   OH248126   4.791   6.217  15.460  0.6196  0.4267  0.2577
 8904TIP3    H148127   4.864   6.256  15.412  0.8458 -0.6532 -0.2887
 8904TIP3    H248128   4.713   6.239  15.407  0.9062 -1.0579 -0.8146
 8905TIP3   OH248129   3.832   1.765   2.600 -0.1162  0.5977  0.0644
 8905TIP3    H148130   3.886   1.844   2.604 -0.6181  0.9054  1.0399
 8905TIP3    H248131   3.767   1.777   2.669  0.4020 -1.1002  0.8864
 8906TIP3   OH248132   0.023   4.433   5.899  0.2272  0.4269  0.1973
 8906TIP3    H148133   0.108   4.397   5.872 -0.2018 -0.9601  0.6858
 8906TIP3    H248134  -0.033   4.423   5.822 -0.2569 -1.1580  0.7362
 8907TIP3   OH248135   2.666   4.733  15.278 -0.5241 -0.0596  0.0295
 8907TIP3    H148136   2.588   4.700  15.322  0.9616 -1.3902  1.7032
 8907TIP3    H248137   2.736   4.674  15.304  0.8359  0.4027 -2.4130
 8908TIP3   OH248138   0.176   4.617   1.728 -0.4383  0.2535 -0.4432
 8908TIP3    H148139   0.098   4.661   1.693 -1.3701  0.7694  2.1408
 8908TIP3    H248140   0.246   4.682   1.719 -0.3485 -0.0640 -2.4034
 8909TIP3   OH248141   0.741   6.375   2.158  0.8198  0.3734  0.4684
 8909TIP3    H148142   0.834   6.392   2.171  1.2471 -1.4931 -0.0204
 8909TIP3    H248143   0.738   6.313   2.085 -0.7424 -0.3358  1.1095
 8910TIP3   OH248144   0.056   4.736  11.193  0.1347 -0.1633  0.6566
 8910TIP3    H148145  -0.039   4.745  11.178  0.1739 -2.6576 -1.4557
 8910TIP3    H248146   0.096   4.756  11.108  1.5387  0.9924  1.5721
 8911TIP3   OH248147   4.861   4.244  17.155  0.2155  0.1380  0.7502
 8911TIP3    H148148   4.905   4.201  17.229 -0.7270 -1.1514  0.5848
 8911TIP3    H248149   4.808   4.312  17.195 -0.2557 -0.5275  1.2692
 8912TIP3   OH248150   1.887   0.346   3.859 -0.2283 -0.4693  0.2983
 8912TIP3    H148151   1.797   0.323   3.881 -0.3040 -0.1510  0.3280
 8912TIP3    H248152   1.878   0.414   3.792 -0.0046 -1.2710 -0.5557
 8913TIP3   OH248153   0.900   3.724  12.653 -0.0252  0.2291 -0.5282
 8913TIP3    H148154   0.953   3.699  12.577 -0.3016 -0.0686 -0.6259
 8913TIP3    H248155   0.927   3.663  12.722  1.1163  1.2900 -0.0131
 8914TIP3   OH248156   0.663   3.724  15.942  0.6155 -0.3086 -0.0484
 8914TIP3    H148157   0.605   3.792  15.977 -0.9347 -1.7595  0.2063
 8914TIP3    H248158   0.672   3.662  16.014  1.8600 -0.5034 -0.3642
 8915TIP3   OH248159   3.359   5.120   2.193  0.4485  0.6749 -0.5765
 8915TIP3    H148160   3.277   5.073   2.184  0.5154  0.5014 -0.2630
 8915TIP3    H248161   3.366   5.141   2.286  1.4578 -0.5773 -0.3544
 8916TIP3   OH248162   4.527   5.758   3.927 -0.6290 -0.1026  0.4033
 8916TIP3    H148163   4.521   5.751   3.831  1.6010 -1.3761  0.3156
 8916TIP3    H248164   4.604   5.705   3.949 -0.9010  0.5158  2.8702
 8917TIP3   OH248165   5.080   3.999   6.648 -0.1569  0.1473 -0.1034
 8917TIP3    H148166   5.143   3.948   6.597  0.6981 -0.4423  1.4859
 8917TIP3    H248167   4.999   3.947   6.645 -1.0305  1.5716 -3.2844
 8918TIP3   OH248168   0.430   1.923  11.321  0.2339  0.4743  0.6320
 8918TIP3    H148169   0.413   2.013  11.347  0.4971  0.8304 -0.3801
 8918TIP3    H248170   0.449   1.929  11.227  0.3146 -0.6250  0.5747
 8919TIP3   OH248171   6.761   2.313   0.704  0.0002  0.2138 -0.1691
 8919TIP3    H148172   6.815   2.366   0.762  0.2194 -1.1914  0.9473
 8919TIP3    H248173   6.674   2.352   0.708  0.1892  0.5471  0.5580
 8920TIP3   OH248174   3.563   0.457  15.053  0.0267 -0.2465 -0.4947
 8920TIP3    H148175   3.612   0.380  15.024 -0.8942 -1.2638  0.5953
 8920TIP3    H248176   3.495   0.422  15.111  0.2754  1.4771  0.8879
 8921TIP3   OH248177   1.705   2.993  14.829  0.1835  0.1193  0.4514
 8921TIP3    H148178   1.732   3.038  14.910 -0.3109 -1.1456  1.3257
 8921TIP3    H248179   1.637   3.049  14.793  0.4588  0.7390  0.8678
 8922TIP3   OH248180   4.701   0.448  14.111 -0.3840 -0.8100  0.1499
 8922TIP3    H148181   4.647   0.381  14.070 -0.4410 -0.2784 -0.6466
 8922TIP3    H248182   4.791   0.426  14.085 -0.2165 -1.6087  1.3535
 8923TIP3   OH248183   1.844   0.028   3.483 -0.6466  0.0499 -0.1919
 8923TIP3    H148184   1.928   0.062   3.451 -0.4587 -1.3341 -1.1952
 8923TIP3    H248185   1.867  -0.018   3.564 -0.9563  2.5582  1.3842
 8924TIP3   OH248186   4.946   6.317   0.428 -0.4806  0.1761 -0.0555
 8924TIP3    H148187   5.030   6.354   0.454 -0.6754  1.3563 -1.0597
 8924TIP3    H248188   4.886   6.341   0.498  0.2364 -1.6360  1.2283
 8925TIP3   OH248189   5.178   0.528   3.936  0.0862 -0.0333 -0.6407
 8925TIP3    H148190   5.156   0.621   3.947  1.2901 -0.1304  3.2779
 8925TIP3    H248191   5.273   0.527   3.923 -0.0885 -0.6567 -1.9763
 8926TIP3   OH248192   0.476   2.390  11.931  0.0735 -0.4104 -0.1575
 8926TIP3    H148193   0.392   2.409  11.889  0.7310 -0.5128 -1.5631
 8926TIP3    H248194   0.454   2.370  12.022 -1.2991  0.6751 -0.2403
 8927TIP3   OH248195   3.957   4.629   0.473 -1.2034  0.4162 -0.1033
 8927TIP3    H148196   4.005   4.709   0.494 -0.9403  1.3910 -3.9729
 8927TIP3    H248197   4.023   4.560   0.475 -0.5121  1.0377 -1.0238
 8928TIP3   OH248198   4.405   2.250  16.413  0.2233  0.0764  0.1297
 8928TIP3    H148199   4.468   2.267  16.483  0.7527 -1.6559  0.0756
 8928TIP3    H248200   4.447   2.184  16.358 -1.0031  0.0357 -0.7696
 8929TIP3   OH248201   4.946   1.876  10.683 -0.1010  0.0368 -0.7654
 8929TIP3    H148202   4.999   1.885  10.604 -1.4770  1.0785 -1.5951
 8929TIP3    H248203   4.977   1.795  10.724  3.1492  1.3858 -0.4168
 8930TIP3   OH248204   3.222   2.744  14.220 -0.4912 -1.0683 -0.7774
 8930TIP3    H148205   3.313   2.740  14.190 -0.1114  0.1025  0.2023
 8930TIP3    H248206   3.189   2.827  14.184 -0.6269 -0.6183  0.3648
 8931TIP3   OH248207   3.648   6.705  14.926  0.0666  0.3248  0.0113
 8931TIP3    H148208   3.640   6.639  14.995 -1.2842  0.5300  0.0718
 8931TIP3    H248209   3.578   6.768  14.946  0.0246  0.6705 -1.2279
 8932TIP3   OH248210   0.139   6.308  14.694 -0.1982  0.1955 -0.3132
 8932TIP3    H148211   0.104   6.396  14.680  1.7337  0.9653 -0.3886
 8932TIP3    H248212   0.211   6.321  14.755 -0.2563 -1.4238  0.1078
 8933TIP3   OH248213   0.922   6.508   1.268  0.3445 -0.1811  0.3709
 8933TIP3    H148214   0.930   6.591   1.315  0.7049 -0.3064  0.5320
 8933TIP3    H248215   0.940   6.441   1.334 -3.4279 -0.5439  1.1076
 8934TIP3   OH248216   4.355   4.728   5.263 -0.1405 -0.3818 -0.1014
 8934TIP3    H148217   4.284   4.726   5.198 -0.7339  1.2862  0.4783
 8934TIP3    H248218   4.435   4.734   5.211 -0.4484 -1.4970 -0.7404
 8935TIP3   OH248219   3.915   1.241   2.387  0.5867  0.5124  0.4543
 8935TIP3    H148220   3.846   1.178   2.410  2.3979 -2.8965 -2.9521
 8935TIP3    H248221   3.867   1.320   2.363 -1.9533 -0.6992  1.3163
 8936TIP3   OH248222   4.805   3.441   5.453  0.0501 -0.0479  0.2214
 8936TIP3    H148223   4.814   3.452   5.547 -0.8355 -0.0225  0.3094
 8936TIP3    H248224   4.749   3.364   5.443 -0.0815  0.1101 -0.2796
 8937TIP3   OH248225   1.845   3.410   2.563  0.3544 -0.6986 -0.2150
 8937TIP3    H148226   1.873   3.421   2.473  0.0021 -0.8405 -0.3436
 8937TIP3    H248227   1.889   3.480   2.611 -1.6052  1.0934 -0.9683
 8938TIP3   OH248228   2.296   4.072  13.495  0.1411 -0.2467  0.2953
 8938TIP3    H148229   2.275   4.016  13.420  0.0457 -1.5831  1.3042
 8938TIP3    H248230   2.388   4.053  13.514  0.3799  0.6568  0.0448
 8939TIP3   OH248231   5.418   0.584   3.515  0.0456  0.8639  0.2704
 8939TIP3    H148232   5.458   0.498   3.509 -0.6471  0.3752  2.1395
 8939TIP3    H248233   5.339   0.578   3.461 -0.1999  0.1819  0.6941
 8940TIP3   OH248234   4.468   2.110   5.390  0.8891 -0.1820  0.0229
 8940TIP3    H148235   4.525   2.041   5.423  2.0630 -0.0019 -1.5896
 8940TIP3    H248236   4.524   2.163   5.333 -1.1489 -0.7198 -2.5790
 8941TIP3   OH248237   3.458   1.253   4.018 -0.0119  0.2700  0.3096
 8941TIP3    H148238   3.426   1.343   4.019  0.4961  0.4911  3.4480
 8941TIP3    H248239   3.552   1.261   4.036  0.0939 -0.8481  0.2949
 8942TIP3   OH248240   2.002   2.692   5.091 -0.4767 -0.0661 -0.1346
 8942TIP3    H148241   1.937   2.717   5.157  1.4410  0.6248  1.5333
 8942TIP3    H248242   2.066   2.763   5.093  0.8393 -1.2042 -1.0674
 8943TIP3   OH248243   2.141   3.401   1.234 -0.7961  0.0350  0.2519
 8943TIP3    H148244   2.234   3.423   1.228 -0.9644  1.1036  1.2440
 8943TIP3    H248245   2.111   3.449   1.312 -2.2270 -0.0995 -0.2086
 8944TIP3   OH248246   0.982   4.068  10.591 -0.1227  0.0140  0.0770
 8944TIP3    H148247   0.938   4.045  10.673 -1.6052 -0.0120 -0.7189
 8944TIP3    H248248   0.949   4.155  10.570 -0.4028 -0.3339 -0.9350
 8945TIP3   OH248249   5.693   4.666   3.294  0.1946 -0.0015  0.5803
 8945TIP3    H148250   5.758   4.616   3.342  0.7449 -2.1408 -2.2301
 8945TIP3    H248251   5.742   4.738   3.255  0.0651  0.7550  1.7927
 8946TIP3   OH248252   4.516   6.333   2.744 -0.7752 -0.0108 -0.6115
 8946TIP3    H148253   4.454   6.284   2.798 -1.9839  0.2975 -1.7216
 8946TIP3    H248254   4.467   6.409   2.713  0.2860  0.4721 -1.1312
 8947TIP3   OH248255   0.128   0.539   2.872  0.0466  0.1484 -0.2434
 8947TIP3    H148256   0.054   0.593   2.901  0.0420  0.6061 -1.0762
 8947TIP3    H248257   0.143   0.567   2.782  1.0116 -0.1940 -0.1901
 8948TIP3   OH248258   5.986   6.159  17.123  0.1623 -0.0828  0.0484
 8948TIP3    H148259   6.003   6.227  17.059 -0.8130  0.5008  0.4026
 8948TIP3    H248260   6.068   6.152  17.173  0.3686  0.5847 -0.1957
 8949TIP3   OH248261   3.566   6.286  11.092  0.0657 -0.1507 -0.5188
 8949TIP3    H148262   3.659   6.306  11.101  0.0356  0.2406 -1.0369
 8949TIP3    H248263   3.550   6.291  10.998 -0.6587  0.5978 -0.3613
 8950TIP3   OH248264   4.515   3.129  10.592 -0.5213  0.5372  0.3101
 8950TIP3    H148265   4.533   3.218  10.621  2.1939 -0.4957  1.9867
 8950TIP3    H248266   4.493   3.139  10.499 -1.1518  3.0276  0.6814
 8951TIP3   OH248267   4.726   6.511  16.046 -0.0651  0.3280 -0.0251
 8951TIP3    H148268   4.812   6.549  16.062  0.3066 -0.6746  0.4153
 8951TIP3    H248269   4.744   6.418  16.031 -1.2309 -0.2211  1.8157
 8952TIP3   OH248270   4.352   2.159  13.388  0.6425 -0.1858 -0.3812
 8952TIP3    H148271   4.302   2.164  13.306  2.1468 -0.3297 -1.3262
 8952TIP3    H248272   4.437   2.199  13.367  0.0985  2.2803  1.8734
 8953TIP3   OH248273   6.678   3.420   0.666  0.3896  0.0451  0.4724
 8953TIP3    H148274   6.660   3.365   0.742 -0.0999  0.8973  0.9826
 8953TIP3    H248275   6.744   3.371   0.616 -0.2980 -1.1532  0.7329
 8954TIP3   OH248276   2.575   5.211   1.372 -0.0788  0.2361  0.3232
 8954TIP3    H148277   2.604   5.159   1.298  1.8297  1.0686  0.4585
 8954TIP3    H248278   2.479   5.204   1.371 -0.1231  0.7460 -2.5910
 8955TIP3   OH248279   3.839   0.706   3.905  0.2863  0.2475 -0.2286
 8955TIP3    H148280   3.817   0.697   3.998  2.2878 -0.1542  0.2372
 8955TIP3    H248281   3.871   0.796   3.896 -0.8593  0.6096 -0.7501
 8956TIP3   OH248282   3.851   6.434   0.398 -0.1734  0.3393  0.1336
 8956TIP3    H148283   3.895   6.461   0.478 -2.1693 -1.0963  1.7590
 8956TIP3    H248284   3.770   6.392   0.427 -0.7826 -0.5305 -2.6067
 8957TIP3   OH248285   6.005   3.495  13.760  0.4138 -0.4738  0.1233
 8957TIP3    H148286   5.913   3.492  13.785  0.6277 -0.8015  0.8873
 8957TIP3    H248287   6.053   3.483  13.842  1.1461  1.1415 -0.0378
 8958TIP3   OH248288   0.248   5.127   3.245 -0.6351 -0.3332 -0.7462
 8958TIP3    H148289   0.182   5.178   3.291  0.4730  1.5006 -1.1516
 8958TIP3    H248290   0.241   5.156   3.154  1.7951  1.0826 -0.5166
 8959TIP3   OH248291   4.696   5.557   0.025  0.4766 -0.2305  0.3187
 8959TIP3    H148292   4.696   5.493  -0.046 -0.3886 -0.2035  0.2820
 8959TIP3    H248293   4.772   5.613   0.007 -0.5321  0.6422 -1.4059
 8960TIP3   OH248294   3.319   5.757  12.542 -0.1437 -0.9484  0.6835
 8960TIP3    H148295   3.355   5.778  12.456 -0.6608 -0.8272  0.4910
 8960TIP3    H248296   3.371   5.808  12.603  0.7427 -1.6500  0.5167
 8961TIP3   OH248297   3.022   2.862  16.092 -0.0311  0.5040  0.0451
 8961TIP3    H148298   3.028   2.816  16.009  0.9161 -0.0896  0.4323
 8961TIP3    H248299   3.015   2.954  16.069  0.9108  0.3978 -0.6706
 8962TIP3   OH248300   6.413   3.642  14.859 -0.6840 -0.2351  0.0441
 8962TIP3    H148301   6.344   3.662  14.922 -1.2941  0.5968 -0.8829
 8962TIP3    H248302   6.453   3.561  14.893 -2.0657 -0.7040  0.6153
 8963TIP3   OH248303   5.536   1.042  15.493  0.1547  0.1350 -0.2525
 8963TIP3    H148304   5.505   1.076  15.577  0.0647 -1.4787  0.3714
 8963TIP3    H248305   5.586   0.963  15.515 -0.7495 -0.8900 -1.8044
 8964TIP3   OH248306   5.926   2.598   3.204  0.2736 -0.2230 -0.0932
 8964TIP3    H148307   5.905   2.630   3.116 -0.0701  1.8107  0.6832
 8964TIP3    H248308   5.990   2.529   3.190 -0.0855 -0.2007 -1.9693
 8965TIP3   OH248309   2.505   4.938  12.586 -0.3109 -0.7563 -0.2190
 8965TIP3    H148310   2.493   4.926  12.681 -1.9815 -1.4128 -0.5081
 8965TIP3    H248311   2.464   5.022  12.568  0.1128 -0.5760 -0.3598
 8966TIP3   OH248312   0.424   1.799  12.036 -0.3324 -0.3057  0.1966
 8966TIP3    H148313   0.361   1.746  12.085 -0.2167 -1.0855 -0.4889
 8966TIP3    H248314   0.509   1.766  12.062 -0.2813 -1.3802 -1.2053
 8967TIP3   OH248315   5.579   5.954   5.605 -0.0128 -0.4420  0.4384
 8967TIP3    H148316   5.577   6.043   5.571 -0.8705 -0.9549 -0.9028
 8967TIP3    H248317   5.657   5.915   5.564  1.2551  0.1373  2.2359
 8968TIP3   OH248318   0.608   1.986  15.746  0.5766  0.3498  0.4503
 8968TIP3    H148319   0.659   1.983  15.665 -0.6241 -1.2872 -0.2747
 8968TIP3    H248320   0.668   1.951  15.813  1.7843  2.2841  0.4341
 8969TIP3   OH248321   1.780   0.195  15.361  0.1206  0.2902 -0.4131
 8969TIP3    H148322   1.746   0.115  15.321  0.8865  1.2126 -2.9580
 8969TIP3    H248323   1.704   0.254  15.365  0.0274  0.1727 -0.4572
 8970TIP3   OH248324   4.176   4.665  15.373 -0.6407  0.2475  0.2336
 8970TIP3    H148325   4.158   4.632  15.461 -0.5876 -1.5425 -0.4085
 8970TIP3    H248326   4.126   4.746  15.367 -1.5697 -0.2229  1.5066
 8971TIP3   OH248327   2.885   0.053  13.382 -0.2165 -0.9194 -0.4642
 8971TIP3    H148328   2.863   0.126  13.439  0.6178 -0.6470 -0.4888
 8971TIP3    H248329   2.876  -0.024  13.438 -1.2210 -0.8234 -0.4743
 8972TIP3   OH248330   2.711   2.818   5.983 -0.1185  0.0891  0.5626
 8972TIP3    H148331   2.722   2.874   5.906  0.1070  0.4092  0.8267
 8972TIP3    H248332   2.779   2.751   5.973  1.6799  1.6602  1.8354
 8973TIP3   OH248333   0.050   4.067   0.993  0.0395 -0.3328 -0.1366
 8973TIP3    H148334  -0.010   4.140   1.010  1.1726  0.0919  2.0957
 8973TIP3    H248335   0.036   4.007   1.066 -0.0423 -1.8336 -1.3570
 8974TIP3   OH248336   4.568   1.464   6.290 -0.4866  0.4160 -0.1457
 8974TIP3    H148337   4.539   1.505   6.371  2.3614  1.9278  0.1655
 8974TIP3    H248338   4.580   1.537   6.229  3.1511 -0.0348 -0.0586
 8975TIP3   OH248339   5.154   1.366   1.060  0.1472  0.3362 -0.1161
 8975TIP3    H148340   5.121   1.282   1.093 -0.3103  0.3046 -0.6464
 8975TIP3    H248341   5.151   1.424   1.136 -0.3123  0.0921  0.0588
 8976TIP3   OH248342   3.697   3.473   4.986 -0.0146  0.0307 -0.3722
 8976TIP3    H148343   3.722   3.497   4.897 -0.0922 -1.5880 -0.8370
 8976TIP3    H248344   3.609   3.510   4.997 -0.2843 -0.3653 -1.2078
 8977TIP3   OH248345   2.773   1.231  11.960 -0.1423  0.7817  0.7811
 8977TIP3    H148346   2.756   1.251  12.052  0.1861 -1.1635  1.2922
 8977TIP3    H248347   2.695   1.183  11.932  0.6816 -0.5261  0.6721
 8978TIP3   OH248348   3.856   2.234  15.172  0.8325  0.1327 -0.3057
 8978TIP3    H148349   3.806   2.300  15.124 -1.6886 -2.1321 -0.9425
 8978TIP3    H248350   3.842   2.254  15.264  0.8784  1.0571 -0.4988
 8979TIP3   OH248351   5.126   0.988   2.713  0.7176  0.2678 -0.3601
 8979TIP3    H148352   5.056   0.996   2.647  0.4337  0.2736 -0.0622
 8979TIP3    H248353   5.103   0.908   2.761  0.5575  0.6229  0.1570
 8980TIP3   OH248354   0.677   3.774  15.179  0.1181  0.0619 -0.2740
 8980TIP3    H148355   0.662   3.816  15.094  1.3309  1.8655  0.3679
 8980TIP3    H248356   0.601   3.798  15.232  0.4709  0.8828 -0.1324
 8981TIP3   OH248357   4.319   4.748   3.063  0.1286 -0.5792 -0.4585
 8981TIP3    H148358   4.339   4.823   3.008 -1.7357  0.6145  0.4423
 8981TIP3    H248359   4.365   4.675   3.022  2.8623  1.2380 -0.7540
 8982TIP3   OH248360   0.199   5.323  13.039 -0.3066  0.1968 -0.3379
 8982TIP3    H148361   0.231   5.338  12.950 -1.5228 -1.4492 -1.0637
 8982TIP3    H248362   0.113   5.365  13.041 -0.1827  0.4349  0.1551
 8983TIP3   OH248363   4.192   2.636  16.608  0.4100  0.0188  0.0072
 8983TIP3    H148364   4.272   2.585  16.622  0.9679  1.0259  0.5075
 8983TIP3    H248365   4.138   2.616  16.684  0.7932  0.4691  0.4035
 8984TIP3   OH248366   1.142   6.239  15.595 -0.0177  0.3853  1.0338
 8984TIP3    H148367   1.157   6.302  15.524 -1.4005  0.7482  1.0505
 8984TIP3    H248368   1.224   6.238  15.643  0.4727  1.1804  0.2346
 8985TIP3   OH248369   4.902   6.475   3.716  0.6456 -0.3155 -0.7846
 8985TIP3    H148370   4.844   6.413   3.672 -1.0622  0.0575  0.9077
 8985TIP3    H248371   4.844   6.538   3.757  2.2686  0.4204  0.4504
 8986TIP3   OH248372   3.878   3.764   4.396 -0.2522 -0.3024 -0.3114
 8986TIP3    H148373   3.884   3.669   4.389  1.1912 -0.1466 -1.3231
 8986TIP3    H248374   3.968   3.793   4.411 -0.3538  1.0669 -2.1677
 8987TIP3   OH248375   4.368   5.817   2.697 -0.1175  0.3485 -0.3101
 8987TIP3    H148376   4.325   5.734   2.676  1.8551 -0.9336  0.5592
 8987TIP3    H248377   4.302   5.884   2.680 -1.5550 -1.3655 -1.5504
 8988TIP3   OH248378   3.023   3.774   1.218 -0.3101  0.2213  0.6202
 8988TIP3    H148379   2.993   3.728   1.297 -2.1036  0.4456  0.0947
 8988TIP3    H248380   2.953   3.837   1.200  1.0384  1.5522 -0.0024
 8989TIP3   OH248381   0.906   6.416   2.917 -0.1837  0.2885 -1.0238
 8989TIP3    H148382   0.961   6.409   2.839 -0.7981  0.3000 -1.4624
 8989TIP3    H248383   0.883   6.326   2.938 -0.9370  0.3640 -1.5189
 8990TIP3   OH248384   4.021   2.193  14.463 -0.1246 -0.0032  0.2182
 8990TIP3    H148385   4.022   2.129  14.534 -0.2063  0.4122  0.5955
 8990TIP3    H248386   4.110   2.190  14.427 -0.6529 -1.6701 -0.9845
 8991TIP3   OH248387   0.540   5.175   0.119 -0.3444 -0.6888  0.0767
 8991TIP3    H148388   0.510   5.128   0.197  1.1277 -1.6416  0.0763
 8991TIP3    H248389   0.611   5.230   0.150  0.3403 -1.1807 -0.6121
 8992TIP3   OH248390   3.236   1.003  12.752  0.1177  0.0920  0.2693
 8992TIP3    H148391   3.252   0.997  12.846  1.2974  0.6601  0.1210
 8992TIP3    H248392   3.292   0.934  12.714 -1.0237 -0.7207  0.0503
 8993TIP3   OH248393   5.121   4.686   2.394 -0.2903  0.1397  0.2787
 8993TIP3    H148394   5.187   4.720   2.456  0.7598  0.1748 -0.8393
 8993TIP3    H248395   5.147   4.723   2.310  0.2698 -2.6000 -0.8025
 8994TIP3   OH248396   4.589   1.816   2.927  0.9690 -0.3056  0.0908
 8994TIP3    H148397   4.596   1.813   3.022  1.3423  0.0784  0.0769
 8994TIP3    H248398   4.549   1.901   2.908 -1.1755 -1.2823  0.0173
 8995TIP3   OH248399   2.944   1.373  11.519  0.1372 -0.5353  0.7915
 8995TIP3    H148400   2.871   1.426  11.549  0.4284  1.4069 -1.7523
 8995TIP3    H248401   3.014   1.390  11.583 -0.0060  1.6399  0.3999
 8996TIP3   OH248402   5.146   6.235  14.816 -0.0967  0.1069  0.5171
 8996TIP3    H148403   5.088   6.306  14.791 -0.5701 -0.8852 -1.2745
 8996TIP3    H248404   5.190   6.210  14.735 -0.8074 -2.4210  0.8547
 8997TIP3   OH248405   6.711   5.830  13.024  0.0992  0.4740  0.5418
 8997TIP3    H148406   6.764   5.760  12.986  1.7086  1.6031  0.6589
 8997TIP3    H248407   6.628   5.826  12.977  1.3621  0.5916 -1.7446
 8998TIP3   OH248408   3.679   5.221   2.729 -0.7522  0.2030  0.5031
 8998TIP3    H148409   3.633   5.137   2.738 -2.0910  0.6771 -1.6311
 8998TIP3    H248410   3.631   5.281   2.787 -0.7993 -0.0995  0.7784
 8999TIP3   OH248411   5.785   6.437   3.748  0.1999  0.4519 -0.1554
 8999TIP3    H148412   5.695   6.403   3.758 -0.8021  3.2200  0.6709
 8999TIP3    H248413   5.814   6.454   3.837  1.5383 -0.2814 -0.4326
 9000TIP3   OH248414   4.166   0.938  12.812 -0.1626 -0.1493 -0.0604
 9000TIP3    H148415   4.080   0.966  12.843  1.1255  1.5221  2.1788
 9000TIP3    H248416   4.165   0.958  12.718 -2.5541 -1.1222 -0.2911
 9001TIP3   OH248417   5.441   0.062   2.065  0.1772 -0.0075 -0.3810
 9001TIP3    H148418   5.349   0.035   2.060  0.5011 -1.2641  0.1375
 9001TIP3    H248419   5.451   0.128   1.997 -1.0649  0.0035 -0.5586
 9002TIP3   OH248420   5.285   5.551  16.521 -0.6423 -0.2740  0.2922
 9002TIP3    H148421   5.251   5.550  16.432  0.3542  0.0554 -0.0951
 9002TIP3    H248422   5.379   5.563  16.511 -0.4551 -0.7817  1.3733
 9003TIP3   OH248423   3.444   5.057   4.605 -0.2357 -0.1458 -0.3371
 9003TIP3    H148424   3.429   4.998   4.679  1.1541 -0.7806 -0.5534
 9003TIP3    H248425   3.532   5.093   4.619 -0.3890  0.5658 -1.1089
 9004TIP3   OH248426   4.423   5.260   6.408 -0.4085  0.5482  0.1226
 9004TIP3    H148427   4.441   5.275   6.500 -0.3978  1.6687 -0.0563
 9004TIP3    H248428   4.388   5.343   6.376 -1.9219 -0.3183 -0.5146
 9005TIP3   OH248429   3.892   4.557  14.566 -0.0575 -0.0442  0.3697
 9005TIP3    H148430   3.965   4.619  14.569 -1.0197  1.0948  0.7781
 9005TIP3    H248431   3.859   4.564  14.476  1.4330 -1.8810 -0.3492
 9006TIP3   OH248432   0.594   2.051  14.064  0.3164  0.0445 -0.4284
 9006TIP3    H148433   0.544   1.990  14.119 -1.5426  1.4512 -0.5090
 9006TIP3    H248434   0.616   2.124  14.123  1.9515 -0.3593 -0.5020
 9007TIP3   OH248435   3.554   2.572  12.044  0.4320  0.3358  0.0580
 9007TIP3    H148436   3.547   2.658  12.002  0.3481  0.0637 -0.4744
 9007TIP3    H248437   3.525   2.588  12.135  0.2278  0.8301 -0.0916
 9008TIP3   OH248438   4.269   2.893  11.988 -0.0056  0.2557 -0.4555
 9008TIP3    H148439   4.285   2.864  11.898 -0.6854 -0.9792 -0.1816
 9008TIP3    H248440   4.330   2.966  12.000  0.5053  0.0604 -1.7265
 9009TIP3   OH248441   1.636   5.493  14.272  0.1996 -0.1826 -0.9743
 9009TIP3    H148442   1.682   5.528  14.195 -0.9661 -0.4734 -1.8159
 9009TIP3    H248443   1.544   5.493  14.247  0.0264 -2.5501 -0.4593
 9010TIP3   OH248444   6.647   4.479  11.625 -0.1653  0.1738 -0.4088
 9010TIP3    H148445   6.687   4.552  11.671  0.5674 -0.1737 -0.4866
 9010TIP3    H248446   6.566   4.462  11.673  0.8532 -0.5368  1.0842
 9011TIP3   OH248447   1.111   3.088   6.118  0.2253 -0.3916  0.7763
 9011TIP3    H148448   1.051   3.080   6.192 -1.1513  0.1701 -0.2461
 9011TIP3    H248449   1.101   3.005   6.070 -1.1308  0.4137 -0.3872
 9012TIP3   OH248450   0.315   5.805   6.614  0.3860 -0.3219  0.1750
 9012TIP3    H148451   0.391   5.806   6.556 -1.6143 -0.8856 -2.5724
 9012TIP3    H248452   0.315   5.717   6.652  1.7921  0.0977  1.1816
 9013TIP3   OH248453   1.213   2.649  13.928 -0.3373 -0.3477 -0.2626
 9013TIP3    H148454   1.199   2.555  13.918  0.0059 -0.2730 -1.4994
 9013TIP3    H248455   1.170   2.688  13.851  1.2140  0.3560 -0.7869
 9014TIP3   OH248456   2.183   5.131   4.255  0.5213 -0.5542  0.1785
 9014TIP3    H148457   2.217   5.111   4.342  0.9420 -0.0209  0.1425
 9014TIP3    H248458   2.251   5.185   4.214 -0.3289  0.4455  0.0720
 9015TIP3   OH248459   4.305   0.278  16.828 -0.1043  0.2700 -0.0877
 9015TIP3    H148460   4.368   0.251  16.896 -0.5592  0.2660  0.3356
 9015TIP3    H248461   4.238   0.210  16.830 -0.7674  0.9265  0.3268
 9016TIP3   OH248462   3.592   6.345   0.445 -0.0619  0.0223  0.1596
 9016TIP3    H148463   3.574   6.426   0.493  0.0396  0.2423 -0.1709
 9016TIP3    H248464   3.509   6.297   0.448 -0.2937  0.4015 -0.1522
 9017TIP3   OH248465   5.780   1.864   0.770  0.0489  0.1475  0.2346
 9017TIP3    H148466   5.850   1.812   0.808 -0.7343 -0.2797  1.1087
 9017TIP3    H248467   5.741   1.808   0.702 -1.0994 -0.6200  1.4921
 9018TIP3   OH248468   1.492   3.997  11.534 -0.0732  0.4137 -0.2001
 9018TIP3    H148469   1.540   4.008  11.452 -0.9982 -1.0134 -0.9483
 9018TIP3    H248470   1.555   3.954  11.592  0.2282  0.4296 -0.5153
 9019TIP3   OH248471   0.620   2.345   2.378 -0.0323  0.2718  0.0413
 9019TIP3    H148472   0.530   2.365   2.352  0.0100  0.1259 -0.2183
 9019TIP3    H248473   0.674   2.397   2.318  0.0715 -0.2776 -0.3482
 9020TIP3   OH248474   2.310   2.033   5.869 -0.6575 -0.5885  0.0317
 9020TIP3    H148475   2.378   2.037   5.936 -1.4631 -0.8924  0.8898
 9020TIP3    H248476   2.356   2.039   5.786  0.3688 -0.3355  0.6222
 9021TIP3   OH248477   5.821   4.944  11.804 -0.9431  0.1452 -0.3100
 9021TIP3    H148478   5.794   5.008  11.738 -1.1769 -0.0686 -0.4213
 9021TIP3    H248479   5.789   4.979  11.887 -0.3725  0.5767 -0.2640
 9022TIP3   OH248480   4.183   0.581  14.881  0.2089 -0.2224 -1.1223
 9022TIP3    H148481   4.206   0.505  14.828 -1.3148 -0.6743 -1.1473
 9022TIP3    H248482   4.219   0.561  14.968 -2.5620 -2.2584 -0.3834
 9023TIP3   OH248483   1.995   4.963   3.309  0.3949  0.4461 -0.3818
 9023TIP3    H148484   1.964   5.051   3.333  1.8524  0.4049  1.7445
 9023TIP3    H248485   2.075   4.951   3.359  1.0327 -1.5235 -1.8273
 9024TIP3   OH248486   1.107   4.864  16.206 -0.2302  0.2114 -0.7002
 9024TIP3    H148487   1.083   4.935  16.147  0.2877 -0.6544 -1.9871
 9024TIP3    H248488   1.187   4.827  16.168  1.0075  0.6278  1.4131
 9025TIP3   OH248489   2.895   3.278  15.299 -0.3270 -0.1180  0.0550
 9025TIP3    H148490   2.885   3.249  15.209 -0.1434  1.4562 -0.4810
 9025TIP3    H248491   2.806   3.276  15.335 -0.5837  0.4972 -0.5475
 9026TIP3   OH248492   0.984   0.871   3.415 -0.5104  0.0169 -0.1875
 9026TIP3    H148493   0.971   0.959   3.449 -0.0540  0.8552 -2.0987
 9026TIP3    H248494   0.934   0.869   3.334  2.3848 -0.2329 -2.0587
 9027TIP3   OH248495   2.822   6.677  14.103 -0.7153 -0.6728 -0.6826
 9027TIP3    H148496   2.785   6.656  14.189  1.3123 -1.0980  0.1119
 9027TIP3    H248497   2.841   6.592  14.063  0.3581 -0.4563 -0.6445
 9028TIP3   OH248498   0.659   3.916  16.424  0.1633  0.4575 -0.1645
 9028TIP3    H148499   0.685   3.824  16.415  1.7742  0.9029 -0.3307
 9028TIP3    H248500   0.605   3.934  16.347 -1.1792 -0.6797  0.5073
 9029TIP3   OH248501   5.824   1.822  10.428  0.2272 -0.2800 -0.0164
 9029TIP3    H148502   5.831   1.729  10.406  0.4050 -0.6831  1.6568
 9029TIP3    H248503   5.879   1.866  10.364  0.6407 -1.3912 -0.4382
 9030TIP3   OH248504   0.964   1.469   4.770 -0.0054  0.2993  0.0343
 9030TIP3    H148505   0.946   1.552   4.813 -0.8582 -0.1006  0.4737
 9030TIP3    H248506   1.047   1.482   4.725  0.0893  1.2389  0.4781
 9031TIP3   OH248507   3.432   1.942   1.601 -0.1018 -0.1035 -0.0179
 9031TIP3    H148508   3.507   1.884   1.606  0.1870  0.2764  0.1089
 9031TIP3    H248509   3.452   2.012   1.663 -0.5293  0.0335 -0.0315
 9032TIP3   OH248510   6.513   0.846   5.463  0.1147 -0.2050 -0.1867
 9032TIP3    H148511   6.565   0.776   5.423 -1.2217 -1.4136  0.1570
 9032TIP3    H248512   6.539   0.925   5.416  1.7616 -0.9009 -0.4759
 9033TIP3   OH248513   5.422   5.597   1.845 -0.3763  0.0239  0.6403
 9033TIP3    H148514   5.417   5.597   1.941 -0.0817 -0.1037  0.6569
 9033TIP3    H248515   5.469   5.516   1.824  0.6115  0.6385  0.4498
 9034TIP3   OH248516   3.907   1.587   3.947 -0.1186 -0.5579 -0.5282
 9034TIP3    H148517   3.844   1.656   3.927  0.6314 -0.0838 -1.2632
 9034TIP3    H248518   3.952   1.618   4.025  1.0360  0.3391 -1.5444
 9035TIP3   OH248519   2.991   5.412   0.918 -0.3209  0.2008 -0.0228
 9035TIP3    H148520   2.961   5.356   0.989  2.5301 -1.5390 -0.1174
 9035TIP3    H248521   2.927   5.399   0.848 -2.1943  0.6112  1.5740
 9036TIP3   OH248522   2.246   1.048   2.532 -0.5743 -0.6769 -0.0624
 9036TIP3    H148523   2.334   1.010   2.534 -0.0305  0.5890  1.9316
 9036TIP3    H248524   2.211   1.023   2.446  1.0783 -2.6289 -0.2093
 9037TIP3   OH248525   4.104   6.457  16.396 -0.8531 -0.2834 -0.4126
 9037TIP3    H148526   4.179   6.398  16.391 -0.6482 -0.0945  0.3789
 9037TIP3    H248527   4.038   6.418  16.338 -0.7693 -1.3566  0.2115
 9038TIP3   OH248528   0.533   1.317  10.940 -0.0794 -0.1355  0.1601
 9038TIP3    H148529   0.601   1.252  10.957 -0.2430 -0.3534 -0.0178
 9038TIP3    H248530   0.455   1.266  10.917 -0.7492  0.0405  1.8665
 9039TIP3   OH248531   6.302   0.817   3.418 -0.2589 -0.1555 -0.0647
 9039TIP3    H148532   6.328   0.727   3.436  0.7060 -0.0681 -0.9780
 9039TIP3    H248533   6.382   0.868   3.429 -0.7153  0.5405  0.0590
 9040TIP3   OH248534   4.062   4.940  11.648 -0.2411 -0.2672  0.4954
 9040TIP3    H148535   3.986   4.898  11.689  0.3426 -2.4404 -0.5759
 9040TIP3    H248536   4.027   4.983  11.570 -0.6314  0.1052  0.8761
 9041TIP3   OH248537   0.794   4.366  11.808 -0.2222  0.1290 -0.7683
 9041TIP3    H148538   0.843   4.324  11.737  0.2092  1.2790 -1.1532
 9041TIP3    H248539   0.793   4.300  11.878  1.1915 -0.2162 -1.0559
 9042TIP3   OH248540   5.508   2.188  11.773  0.1657  0.0867  0.1986
 9042TIP3    H148541   5.566   2.259  11.747  2.2355 -0.7931  2.2246
 9042TIP3    H248542   5.515   2.124  11.701  1.2779  0.2435  0.1550
 9043TIP3   OH248543   5.157   5.139  15.607 -0.0246  0.5448  0.0544
 9043TIP3    H148544   5.176   5.056  15.562 -0.1776 -0.1902  1.3211
 9043TIP3    H248545   5.237   5.191  15.597  0.9382 -0.6596  1.2260
 9044TIP3   OH248546   3.730   6.122   1.336 -0.2527  0.1023 -0.0555
 9044TIP3    H148547   3.693   6.046   1.382  1.5691 -0.2070  0.9505
 9044TIP3    H248548   3.794   6.084   1.276  1.0378  0.8674  0.8219
 9045TIP3   OH248549   1.314   0.914  11.085  0.2755 -0.0095 -0.4366
 9045TIP3    H148550   1.356   0.895  11.002 -0.1371  1.1165 -0.9101
 9045TIP3    H248551   1.271   0.832  11.110  1.0214 -0.5607 -0.9626
 9046TIP3   OH248552   4.093   1.880  17.085  0.5933  0.3844 -0.3391
 9046TIP3    H148553   4.040   1.817  17.036  1.9924 -0.2504 -1.0786
 9046TIP3    H248554   4.171   1.894  17.029  0.7905  1.9595  0.3001
 9047TIP3   OH248555   5.080   4.910   0.941 -0.3708  0.8776  0.3814
 9047TIP3    H148556   5.015   4.844   0.965  0.8787 -0.2225  0.7704
 9047TIP3    H248557   5.146   4.905   1.010  0.1812  1.9375 -0.0554
 9048TIP3   OH248558   1.055   4.467   2.703  0.5066 -0.1490  0.2621
 9048TIP3    H148559   1.028   4.403   2.768 -1.7074  0.0338 -0.4265
 9048TIP3    H248560   0.974   4.513   2.680  1.6873  1.4390 -0.8174
 9049TIP3   OH248561   1.601   1.650   1.481 -0.2754  0.0143 -0.3019
 9049TIP3    H148562   1.656   1.635   1.405  3.0391  0.2165  1.9087
 9049TIP3    H248563   1.561   1.736   1.466  1.5643  0.7413 -1.1473
 9050TIP3   OH248564   5.609   2.601   2.817 -0.4979  0.6742 -0.2419
 9050TIP3    H148565   5.555   2.523   2.829 -1.1499  1.4475  2.1747
 9050TIP3    H248566   5.681   2.591   2.880 -0.4666  1.9206 -0.0616
 9051TIP3   OH248567   5.748   4.136   0.044 -0.3720 -0.2984 -0.0500
 9051TIP3    H148568   5.713   4.055   0.009  0.0623 -0.6892  0.4193
 9051TIP3    H248569   5.707   4.145   0.130  0.0573 -0.3391  0.1602
 9052TIP3   OH248570   0.170   4.953   2.784  0.1024 -0.3127 -0.3325
 9052TIP3    H148571   0.171   5.018   2.855  0.7482 -0.8310  0.1344
 9052TIP3    H248572   0.258   4.957   2.747  0.2567 -1.1748 -0.0707
 9053TIP3   OH248573   0.698   0.496  10.286  0.9772 -0.0785 -0.0594
 9053TIP3    H148574   0.702   0.436  10.211  0.3503  0.5764 -0.6216
 9053TIP3    H248575   0.606   0.496  10.312  0.9805  0.6033 -0.0320
 9054TIP3   OH248576   2.507   1.335  17.134 -0.4306 -0.6581 -0.1657
 9054TIP3    H148577   2.571   1.377  17.192 -2.9243  1.1613  1.3588
 9054TIP3    H248578   2.466   1.268  17.187  0.5540 -2.2124 -1.3209
 9055TIP3   OH248579   2.515   6.176  10.783 -0.2597  0.1661 -0.0220
 9055TIP3    H148580   2.536   6.099  10.837  0.1116 -0.5663 -1.1860
 9055TIP3    H248581   2.600   6.215  10.762 -0.3389 -0.0592 -0.7904
 9056TIP3   OH248582   4.365   4.531   0.156  0.3850  0.1227 -0.1823
 9056TIP3    H148583   4.292   4.526   0.095  0.9803  0.9448 -0.9775
 9056TIP3    H248584   4.431   4.472   0.119 -0.0145 -0.9291  0.7452
 9057TIP3   OH248585   3.657   2.424   1.098 -0.3051  0.1487  0.3390
 9057TIP3    H148586   3.600   2.390   1.030 -1.8553 -1.0660  2.2067
 9057TIP3    H248587   3.661   2.518   1.080 -0.8737 -0.1125 -1.2713
 9058TIP3   OH248588   2.215   2.510  15.317  0.2412  0.0533  0.7339
 9058TIP3    H148589   2.223   2.530  15.410  1.9500 -1.0016  0.8348
 9058TIP3    H248590   2.174   2.423  15.314  0.0512  0.1500  0.4885
 9059TIP3   OH248591   6.147   2.628   1.701 -0.4669 -0.2384 -0.3891
 9059TIP3    H148592   6.152   2.551   1.644  1.5123  0.4125 -1.1669
 9059TIP3    H248593   6.054   2.649   1.705 -0.7411 -0.8819 -2.6308
 9060TIP3   OH248594   5.195   2.976  15.486 -0.0355  0.6970 -0.4356
 9060TIP3    H148595   5.150   2.996  15.404 -0.2696 -0.9966 -0.7496
 9060TIP3    H248596   5.231   3.059  15.515 -1.0915  1.5667 -1.5727
 9061TIP3   OH248597   3.823   5.375  12.394 -0.0675  0.3905  0.0874
 9061TIP3    H148598   3.794   5.284  12.403  1.8107 -0.0933  1.4512
 9061TIP3    H248599   3.782   5.421  12.467  0.9638  0.1207  0.8421
 9062TIP3   OH248600   3.212   2.517   0.485 -0.0024  0.0398  0.6372
 9062TIP3    H148601   3.171   2.585   0.539  2.1339 -0.2087  2.6350
 9062TIP3    H248602   3.302   2.546   0.473 -0.0743 -0.6010 -1.6812
 9063TIP3   OH248603   4.425   5.535   4.252  0.4657 -0.7119  1.0899
 9063TIP3    H148604   4.404   5.531   4.345  4.0046 -1.1475  1.9316
 9063TIP3    H248605   4.475   5.616   4.242  1.5477 -1.5063 -0.0900
 9064TIP3   OH248606   5.663   0.263  13.514 -0.1909  0.1645  0.1649
 9064TIP3    H148607   5.735   0.272  13.452 -1.5532  3.8841 -1.0085
 9064TIP3    H248608   5.705   0.258  13.600  1.5067  0.4902 -0.6446
 9065TIP3   OH248609   2.539   2.474  14.394  0.1392  0.4066 -0.0180
 9065TIP3    H148610   2.565   2.465  14.486 -2.2322 -0.2960  0.6091
 9065TIP3    H248611   2.575   2.396  14.352 -0.0397 -0.0296  0.6256
 9066TIP3   OH248612   4.754   4.662  12.300 -0.3570  0.3300  0.3162
 9066TIP3    H148613   4.678   4.690  12.351 -0.8342 -0.3679 -0.0171
 9066TIP3    H248614   4.826   4.716  12.333 -1.3486  2.2640 -0.5850
 9067TIP3   OH248615   6.511   3.511  12.471  1.0136  0.2903  0.3777
 9067TIP3    H148616   6.582   3.521  12.407  0.3387 -0.8661 -0.5679
 9067TIP3    H248617   6.438   3.559  12.433  0.8360  0.2218  0.6339
 9068TIP3   OH248618   6.064   3.713   4.422 -0.5279  0.4312 -0.0495
 9068TIP3    H148619   6.081   3.803   4.396 -1.0063 -0.0008 -2.0082
 9068TIP3    H248620   6.150   3.672   4.423 -0.0040  1.4599  3.2804
 9069TIP3   OH248621   5.662   6.320  13.862 -0.6965 -0.6361  0.1683
 9069TIP3    H148622   5.732   6.289  13.919  0.4650  3.4561  1.1267
 9069TIP3    H248623   5.588   6.335  13.921 -1.4117 -1.8839 -0.3694
 9070TIP3   OH248624   6.577   0.809  14.088  0.0479 -0.2257  0.3653
 9070TIP3    H148625   6.525   0.840  14.014  2.5283 -3.9518 -3.1755
 9070TIP3    H248626   6.529   0.733  14.120  0.0211  0.1998  1.3591
 9071TIP3   OH248627   0.196   4.549   7.010 -0.0645 -0.0144  0.1851
 9071TIP3    H148628   0.276   4.535   7.062  0.3304  0.0830 -0.3833
 9071TIP3    H248629   0.220   4.521   6.922 -0.3796  0.8552 -0.1860
 9072TIP3   OH248630   6.713   6.554   2.254  0.7712 -0.3004  0.6291
 9072TIP3    H148631   6.661   6.599   2.321  1.7733  1.9773 -0.0462
 9072TIP3    H248632   6.651   6.539   2.183  0.7894  1.6465  0.1637
 9073TIP3   OH248633   5.927   2.995  16.943  0.1969 -0.2618 -0.1646
 9073TIP3    H148634   5.948   2.915  16.894 -2.3948 -0.4209 -1.0996
 9073TIP3    H248635   5.946   3.066  16.882  2.8798 -0.0998  0.8030
 9074TIP3   OH248636   4.452   2.978  14.469 -0.1670  0.7208  0.1173
 9074TIP3    H148637   4.359   2.965  14.488 -0.9805  0.5195 -3.7245
 9074TIP3    H248638   4.454   3.058  14.416  1.6823 -0.1101 -1.0960
 9075TIP3   OH248639   3.396   2.099  10.860 -0.4479  0.1792  0.2164
 9075TIP3    H148640   3.402   2.122  10.953  0.6067  0.2425  0.1382
 9075TIP3    H248641   3.438   2.172  10.815  0.0902 -0.3977 -0.2319
 9076TIP3   OH248642   1.822   2.646   2.938  0.3458  0.2166  0.7211
 9076TIP3    H148643   1.798   2.555   2.922 -0.6056  0.3409  1.3963
 9076TIP3    H248644   1.880   2.643   3.014 -0.0999  0.2116  1.0671
 9077TIP3   OH248645   3.068   6.402   2.352 -0.3064  0.2937  0.4992
 9077TIP3    H148646   3.053   6.397   2.258 -0.5807 -2.3575  0.6561
 9077TIP3    H248647   3.152   6.448   2.361  0.5709 -0.9730 -1.1118
 9078TIP3   OH248648   5.183   5.638   0.480 -0.3595 -0.4638 -0.0551
 9078TIP3    H148649   5.095   5.606   0.503 -0.5899  1.2349  1.5201
 9078TIP3    H248650   5.241   5.565   0.502 -1.3557 -1.5625 -1.0122
 9079TIP3   OH248651   6.591   6.416   1.684  0.0768  0.2779  0.0161
 9079TIP3    H148652   6.499   6.416   1.658 -0.0383  2.2480  0.3710
 9079TIP3    H248653   6.589   6.412   1.779  0.3824 -0.4587 -0.0045
 9080TIP3   OH248654   0.512   0.258  16.983 -0.3576  0.0926  0.2671
 9080TIP3    H148655   0.605   0.236  16.987 -0.0988  0.7722 -1.4428
 9080TIP3    H248656   0.510   0.353  16.995 -0.9217 -0.0428  1.2738
 9081TIP3   OH248657   1.292   3.296   2.834  0.2447 -0.1099  0.1044
 9081TIP3    H148658   1.213   3.260   2.794  0.3220 -0.7092  0.4932
 9081TIP3    H248659   1.291   3.388   2.808  1.4389 -0.9406 -3.1060
 9082TIP3   OH248660   5.225   3.584   5.755  0.1975 -0.3532 -0.3045
 9082TIP3    H148661   5.258   3.601   5.667 -1.2132 -1.9685 -1.1912
 9082TIP3    H248662   5.181   3.499   5.748 -0.0316 -0.4554  1.9364
 9083TIP3   OH248663   5.435   2.314   4.499  0.5107  0.0132 -0.8972
 9083TIP3    H148664   5.457   2.383   4.437  1.1391  1.6528  1.0892
 9083TIP3    H248665   5.347   2.287   4.475 -0.3281  2.5274 -0.8296
 9084TIP3   OH248666   5.865   3.031   4.074  0.4956  0.4919  0.2870
 9084TIP3    H148667   5.897   3.007   3.988  0.4800  1.3611  0.0266
 9084TIP3    H248668   5.795   2.968   4.093  0.4346  0.3598 -0.3775
 9085TIP3   OH248669   2.689   2.796  11.777 -0.0126 -0.1442 -0.4346
 9085TIP3    H148670   2.605   2.757  11.753 -1.1630  0.3958  2.4445
 9085TIP3    H248671   2.682   2.887  11.750 -0.9353  0.2388  1.0243
 9086TIP3   OH248672   0.682   3.620  16.219  0.0255 -0.2830  0.4781
 9086TIP3    H148673   0.701   3.529  16.198  0.0530 -0.0405 -0.5771
 9086TIP3    H248674   0.690   3.625  16.314  3.5640 -0.6111  0.2933
 9087TIP3   OH248675   2.819   6.018  15.943 -0.7379  0.5103  0.2243
 9087TIP3    H148676   2.815   5.952  15.873 -0.2384  1.5834 -0.8294
 9087TIP3    H248677   2.881   5.981  16.007  0.7547  0.6577 -1.1068
 9088TIP3   OH248678   2.221   6.057   1.739 -0.5014 -0.0561 -0.4154
 9088TIP3    H148679   2.181   6.098   1.817 -1.0585 -0.3701 -0.5364
 9088TIP3    H248680   2.192   6.111   1.666  1.3402  1.2130 -0.2540
 9089TIP3   OH248681   4.037   1.649  12.770 -0.1659 -0.1120  0.2046
 9089TIP3    H148682   3.942   1.651  12.758 -0.0563 -0.3517 -0.7023
 9089TIP3    H248683   4.066   1.738  12.752 -0.5112  0.6254  3.0363
 9090TIP3   OH248684   2.977   3.325   1.789 -0.0570 -0.4936 -0.3165
 9090TIP3    H148685   3.062   3.367   1.785  0.2547 -1.1479 -0.7076
 9090TIP3    H248686   2.938   3.356   1.871  0.9237 -0.8763  0.3048
 9091TIP3   OH248687   3.553   3.866  11.885 -0.6260  0.4614 -0.6870
 9091TIP3    H148688   3.474   3.885  11.935 -0.9034 -1.2985 -0.4175
 9091TIP3    H248689   3.525   3.864  11.794 -0.2862  2.8433 -0.8567
 9092TIP3   OH248690   3.650   5.789  12.854  0.0858  0.0254 -0.8806
 9092TIP3    H148691   3.614   5.781  12.942 -0.6473  0.2441 -1.1583
 9092TIP3    H248692   3.578   5.823  12.801  0.4508 -0.3167 -1.6133
 9093TIP3   OH248693   4.668   3.641   4.750  0.0637  0.0347 -0.4154
 9093TIP3    H148694   4.676   3.641   4.846  0.2749 -1.0032 -0.4267
 9093TIP3    H248695   4.636   3.728   4.729  1.7211  0.8835  0.4693
 9094TIP3   OH248696   4.106   3.378  15.424 -0.0820  0.0006 -0.0161
 9094TIP3    H148697   4.121   3.317  15.496  2.7664 -0.9301 -1.3169
 9094TIP3    H248698   4.012   3.395  15.425 -0.6132 -2.8489  1.6281
 9095TIP3   OH248699   2.279   2.022   4.740 -0.0307 -0.0592 -0.3236
 9095TIP3    H148700   2.373   2.043   4.737 -0.0438  0.0650  0.1820
 9095TIP3    H248701   2.237   2.093   4.691  0.1832 -0.3786 -0.9833
 9096TIP3   OH248702   0.514   0.972  15.717  0.3012 -0.8649  0.1839
 9096TIP3    H148703   0.438   0.964  15.776 -0.5975 -0.0707 -0.8428
 9096TIP3    H248704   0.489   0.922  15.639  0.6343 -0.2072 -0.3508
 9097TIP3   OH248705   4.682   1.097  15.241 -0.9291 -0.1981  0.1729
 9097TIP3    H148706   4.616   1.057  15.185  0.7056 -0.3451 -1.7100
 9097TIP3    H248707   4.692   1.037  15.314  0.4555 -2.5364 -1.8837
 9098TIP3   OH248708   0.587   6.698   0.993 -0.1510  0.5307  0.3679
 9098TIP3    H148709   0.672   6.717   0.954 -0.6072  1.4559 -0.1963
 9098TIP3    H248710   0.550   6.629   0.938  0.7333 -0.7302  1.3292
 9099TIP3   OH248711   5.531   0.913   2.220  0.3530 -0.0020  0.3583
 9099TIP3    H148712   5.515   0.838   2.163  2.0511 -0.8401  0.9163
 9099TIP3    H248713   5.573   0.978   2.164  0.1134 -0.0138  0.1692
 9100TIP3   OH248714   4.087   4.659   3.268  0.2572 -0.2589  0.1570
 9100TIP3    H148715   4.167   4.686   3.223 -0.4095 -0.3824 -1.1244
 9100TIP3    H248716   4.093   4.700   3.355  2.4132 -1.5008  0.6157
 9101TIP3   OH248717   1.596   4.630   2.707 -0.1054 -0.6740  0.0135
 9101TIP3    H148718   1.577   4.721   2.687  1.9017 -0.4206 -0.8605
 9101TIP3    H248719   1.537   4.608   2.779 -0.3004  1.4550  0.5267
 9102TIP3   OH248720   6.310   5.724  16.300 -0.0172  0.4144  0.3590
 9102TIP3    H148721   6.378   5.746  16.236  0.7755 -0.2010  0.9732
 9102TIP3    H248722   6.304   5.629  16.297 -1.0224  0.4813  0.1463
 9103TIP3   OH248723   6.298   4.184  15.723 -0.0994 -0.7127  0.3575
 9103TIP3    H148724   6.268   4.213  15.637 -0.9240 -0.7946  0.6150
 9103TIP3    H248725   6.226   4.132  15.757  0.5867 -1.4236  0.7266
 9104TIP3   OH248726   4.656   2.095  14.392  0.2984 -0.1143 -0.0381
 9104TIP3    H148727   4.677   2.138  14.475  0.4462 -0.9080  0.3441
 9104TIP3    H248728   4.738   2.094  14.343 -0.2805  2.3365 -1.1261
 9105TIP3   OH248729   0.030   4.520   3.283 -0.3641  0.0143  0.3153
 9105TIP3    H148730   0.102   4.564   3.327 -1.7831  0.9083  1.8050
 9105TIP3    H248731   0.028   4.558   3.195  1.2124 -0.3098  0.1301
 9106TIP3   OH248732   5.162   2.290   6.397  0.4970 -0.4373 -0.3177
 9106TIP3    H148733   5.089   2.249   6.442 -1.5123 -0.8742 -3.7602
 9106TIP3    H248734   5.201   2.219   6.346  0.3941  0.7549 -2.0898
 9107TIP3   OH248735   6.058   2.769  14.072 -0.0950  0.0299 -0.5037
 9107TIP3    H148736   6.075   2.692  14.018  1.3067  1.5869 -2.3697
 9107TIP3    H248737   6.010   2.735  14.148  1.1393 -2.7779 -0.9038
 9108TIP3   OH248738   4.541   0.313  16.701 -0.2723  0.1104 -0.2079
 9108TIP3    H148739   4.580   0.382  16.754  0.8212 -0.8910  0.3151
 9108TIP3    H248740   4.448   0.312  16.726 -0.1435  0.9065  0.2881
 9109TIP3   OH248741   2.152   1.548  15.744  0.2255  0.6075 -0.2473
 9109TIP3    H148742   2.076   1.585  15.700  0.3101  0.7039 -0.3126
 9109TIP3    H248743   2.171   1.609  15.816  1.1709  1.4005 -1.1538
 9110TIP3   OH248744   5.484   3.813   1.749 -0.6567  0.3576  0.3466
 9110TIP3    H148745   5.443   3.839   1.666 -0.7266 -0.0382  0.2533
 9110TIP3    H248746   5.473   3.888   1.806  0.0779  0.9214 -0.2528
 9111TIP3   OH248747   3.350   6.570   1.436  0.0837 -0.2361 -0.6220
 9111TIP3    H148748   3.440   6.567   1.401 -0.2242 -1.8561 -1.3574
 9111TIP3    H248749   3.297   6.600   1.363 -0.0974 -0.1500 -0.4550
 9112TIP3   OH248750   4.211   6.332   2.872  0.4236  0.1236 -0.3578
 9112TIP3    H148751   4.126   6.369   2.849  0.1764 -0.0713  0.2217
 9112TIP3    H248752   4.207   6.241   2.843  0.7267  0.3230 -1.0382
 9113TIP3   OH248753   1.106   5.164  15.513  0.0503  0.0590  0.4448
 9113TIP3    H148754   1.183   5.214  15.541  0.3864  0.5724 -1.3432
 9113TIP3    H248755   1.129   5.073  15.532 -0.4712  0.4874  3.5049
 9114TIP3   OH248756   6.119   1.603  12.707  0.3508  0.1727 -0.0017
 9114TIP3    H148757   6.046   1.571  12.655  0.3279  0.8966 -0.4178
 9114TIP3    H248758   6.155   1.524  12.749 -0.6855 -0.1753  0.2381
 9115TIP3   OH248759   0.920   1.438  14.242 -0.3248 -0.3746  0.2470
 9115TIP3    H148760   0.846   1.499  14.252 -0.6608 -0.8558  0.7688
 9115TIP3    H248761   0.994   1.493  14.217 -0.2935  0.4459  2.0667
 9116TIP3   OH248762   4.940   0.747   3.845 -0.0899  0.1224 -0.6428
 9116TIP3    H148763   4.990   0.734   3.765  0.9568 -0.3203  0.0569
 9116TIP3    H248764   5.001   0.794   3.903 -1.4385  2.0065 -0.7203
 9117TIP3   OH248765   6.253   2.433   1.031 -0.0350 -0.4545 -0.1283
 9117TIP3    H148766   6.159   2.417   1.042 -0.2997  0.1541 -1.3643
 9117TIP3    H248767   6.263   2.452   0.937  1.0672  1.1495  0.2957
 9118TIP3   OH248768   4.575   6.734  14.313  0.6287  0.0763  0.0446
 9118TIP3    H148769   4.509   6.666  14.325  0.0851  0.6672  0.4485
 9118TIP3    H248770   4.554   6.799  14.379  1.7407  0.1780  0.2979
 9119TIP3   OH248771   5.363   1.290   4.969  0.0743  0.2179 -0.6374
 9119TIP3    H148772   5.420   1.235   5.023  0.7048  0.4272 -1.0867
 9119TIP3    H248773   5.395   1.278   4.880 -0.5863  0.3386 -0.8935
 9120TIP3   OH248774   1.528   0.940  12.039  0.4290 -0.1310 -0.0009
 9120TIP3    H148775   1.443   0.944  11.996  0.4938  0.5763 -0.0625
 9120TIP3    H248776   1.512   0.970  12.128  0.6333  0.1249 -0.0486
 9121TIP3   OH248777   0.294   5.622   6.192 -0.2011  0.2793  0.1615
 9121TIP3    H148778   0.320   5.530   6.189 -0.0417  0.3060  0.6440
 9121TIP3    H248779   0.377   5.670   6.196 -0.2101  0.5600 -2.5666
 9122TIP3   OH248780   3.639   5.506   4.017 -0.3364  0.2457  0.2366
 9122TIP3    H148781   3.701   5.480   4.086 -0.2474 -0.8745 -0.2555
 9122TIP3    H248782   3.585   5.573   4.058 -0.9859 -1.1670  1.7484
 9123TIP3   OH248783   3.079   2.358   5.194  0.2534  0.0577 -0.0166
 9123TIP3    H148784   2.985   2.375   5.193  0.2390  0.0132 -1.5419
 9123TIP3    H248785   3.117   2.436   5.152  0.7091 -0.8520 -1.3261
 9124TIP3   OH248786   6.687   6.395   2.898  0.5548 -0.1748  0.2033
 9124TIP3    H148787   6.719   6.460   2.961  0.4282 -2.1898  2.4197
 9124TIP3    H248788   6.763   6.339   2.881  0.6726  0.5296 -1.7161
 9125TIP3   OH248789   2.758   5.112   3.754  0.1208  0.3936  0.2721
 9125TIP3    H148790   2.703   5.189   3.770 -0.3711  0.2033 -0.4713
 9125TIP3    H248791   2.723   5.045   3.812 -2.0254 -0.4723 -1.9358
 9126TIP3   OH248792   0.194   2.284  16.022  0.0243 -0.5974  0.3093
 9126TIP3    H148793   0.151   2.353  16.072  0.3479 -0.6129  0.6109
 9126TIP3    H248794   0.146   2.205  16.045  0.8304 -0.7743  1.3974
 9127TIP3   OH248795   2.231   5.835   6.867 -0.2000  0.6983  0.3628
 9127TIP3    H148796   2.274   5.764   6.915 -0.7945  0.1947  0.1588
 9127TIP3    H248797   2.266   5.828   6.778 -0.5145  0.4540  0.2607
 9128TIP3   OH248798   3.140   5.286   2.496 -0.0862 -0.2479  0.1312
 9128TIP3    H148799   3.125   5.219   2.429  1.1305  0.3521 -0.7562
 9128TIP3    H248800   3.235   5.288   2.507 -0.2483 -0.0375  1.5827
 9129TIP3   OH248801   3.509   4.633  17.064  0.3125  0.2685 -0.2313
 9129TIP3    H148802   3.464   4.702  17.016  2.1770  2.0972  0.5866
 9129TIP3    H248803   3.470   4.635  17.151  0.3274  0.2681 -0.2238
 9130TIP3   OH248804   0.421   2.626   6.702  0.0110  0.5373  0.2662
 9130TIP3    H148805   0.349   2.680   6.735  0.0453  1.0468 -0.4827
 9130TIP3    H248806   0.420   2.640   6.607 -0.0999 -0.9397  0.0421
 9131TIP3   OH248807   6.491   6.619  15.940 -0.0688  0.1261  0.1421
 9131TIP3    H148808   6.518   6.528  15.929  0.3439  0.0815  1.4622
 9131TIP3    H248809   6.475   6.628  16.034 -0.6117  1.2741 -0.0554
 9132TIP3   OH248810   1.872   1.160  16.935 -0.2884 -0.2512  0.6282
 9132TIP3    H148811   1.855   1.184  17.026  1.1110 -0.3597  0.9366
 9132TIP3    H248812   1.821   1.222  16.883 -0.2287  0.5059  1.4721
 9133TIP3   OH248813   6.781   5.999   5.280 -0.0729  0.0801  0.3000
 9133TIP3    H148814   6.837   5.986   5.204 -0.4884  0.9423 -0.1728
 9133TIP3    H248815   6.839   6.033   5.348  0.2813 -0.5933  0.3300
 9134TIP3   OH248816   4.761   6.379   1.929 -0.0486  0.2782 -0.1612
 9134TIP3    H148817   4.707   6.427   1.992 -1.5094 -1.5958  0.0620
 9134TIP3    H248818   4.707   6.375   1.850  1.7542  2.5732 -1.5729
 9135TIP3   OH248819   3.698   4.771   0.248 -0.0405  0.0292  0.3284
 9135TIP3    H148820   3.676   4.678   0.257  1.3157 -0.2465  0.9506
 9135TIP3    H248821   3.675   4.809   0.333 -3.6240  0.9399 -0.9652
 9136TIP3   OH248822   5.899   0.871   1.585  0.2379  0.8114 -0.0668
 9136TIP3    H148823   5.907   0.965   1.598  1.8635  0.5811  0.7523
 9136TIP3    H248824   5.874   0.837   1.672  0.7782  0.3729 -0.0827
 9137TIP3   OH248825   4.288   3.666   3.849  0.1968 -1.2861  0.0919
 9137TIP3    H148826   4.363   3.616   3.816 -0.7858 -0.5906 -3.4744
 9137TIP3    H248827   4.319   3.757   3.849  0.0010 -1.2236  0.5038
 9138TIP3   OH248828   5.085   4.279  14.536 -0.1666 -0.2025  0.4813
 9138TIP3    H148829   5.162   4.280  14.479 -0.3657 -0.0012  0.2161
 9138TIP3    H248830   5.111   4.225  14.610  0.3215  0.0821  0.5168
 9139TIP3   OH248831   0.497   0.743  16.136 -0.9707 -0.2333  0.6256
 9139TIP3    H148832   0.427   0.749  16.071 -0.4647  1.0454  0.1923
 9139TIP3    H248833   0.452   0.713  16.216 -1.9562  0.2529  0.2643
 9140TIP3   OH248834   6.093   4.114  14.122  0.4564 -0.2233 -0.8139
 9140TIP3    H148835   6.092   4.091  14.029 -3.4280 -1.0568 -0.6666
 9140TIP3    H248836   6.060   4.204  14.125  2.3457  0.4808 -0.3409
 9141TIP3   OH248837   1.283   2.311  13.569  0.6410  0.5170 -0.2862
 9141TIP3    H148838   1.371   2.277  13.585 -0.0520 -1.7437 -1.0922
 9141TIP3    H248839   1.284   2.337  13.477  0.4378  0.4254 -0.3138
 9142TIP3   OH248840   4.685   5.915  12.561  0.0880  0.5276  0.1031
 9142TIP3    H148841   4.686   5.873  12.648  0.1121  1.0002  0.3339
 9142TIP3    H248842   4.627   5.990  12.572 -1.1013 -0.2559 -0.6909
 9143TIP3   OH248843   4.909   0.416  14.682 -0.3610 -0.3220  0.0426
 9143TIP3    H148844   4.880   0.507  14.686  1.6671  0.3164  0.9311
 9143TIP3    H248845   4.919   0.390  14.773 -0.1578 -1.1730 -0.2154
 9144TIP3   OH248846   5.949   6.345  14.507  0.2362 -0.2720  0.0993
 9144TIP3    H148847   6.033   6.316  14.542  1.1291 -0.2896 -1.9958
 9144TIP3    H248848   5.935   6.431  14.547  0.7114 -0.7174  1.2666
 9145TIP3   OH248849   6.433   3.391   3.129  0.2547  0.3650  0.2301
 9145TIP3    H148850   6.480   3.388   3.213 -0.6508 -0.8859  0.7102
 9145TIP3    H248851   6.471   3.320   3.078 -1.3583 -0.9101  0.7679
 9146TIP3   OH248852   5.502   3.983   5.420  0.6883  0.2130  0.2670
 9146TIP3    H148853   5.441   3.942   5.482  1.3964 -0.9988  0.1710
 9146TIP3    H248854   5.471   3.955   5.334 -0.6673  2.4031  0.0082
 9147TIP3   OH248855   1.521   4.084   5.408 -0.0758  0.3629  0.4970
 9147TIP3    H148856   1.538   3.992   5.429 -1.5431  0.1797  0.9611
 9147TIP3    H248857   1.431   4.084   5.375  0.3482  1.4580 -0.6666
 9148TIP3   OH248858   1.510   5.287   2.084 -0.1141  0.8173  0.0181
 9148TIP3    H148859   1.599   5.322   2.082  0.4176 -0.2725  2.4569
 9148TIP3    H248860   1.465   5.338   2.151 -1.2846  1.2037 -1.0350
 9149TIP3   OH248861   3.374   2.841   0.526  0.3959  0.5426 -0.1825
 9149TIP3    H148862   3.397   2.914   0.584  0.6835  0.0024  0.3842
 9149TIP3    H248863   3.452   2.786   0.525 -0.2796 -0.4315  0.4074
 9150TIP3   OH248864   3.986   0.649  13.149 -0.2975  0.0810 -0.3750
 9150TIP3    H148865   3.898   0.647  13.113 -0.5436 -1.1520  0.2858
 9150TIP3    H248866   4.016   0.739  13.134 -1.3373  0.2723 -1.3577
 9151TIP3   OH248867   3.518   3.626   1.259 -0.1200  0.2883  0.0477
 9151TIP3    H148868   3.531   3.681   1.182  0.0209 -0.4254 -0.4415
 9151TIP3    H248869   3.586   3.559   1.253  0.6493  0.9215  1.4261
 9152TIP3   OH248870   1.376   4.370   5.169  0.2189 -1.0146  0.9059
 9152TIP3    H148871   1.428   4.448   5.190  0.8055 -1.7070  2.0620
 9152TIP3    H248872   1.307   4.369   5.236 -0.9038 -0.4749 -0.2170
 9153TIP3   OH248873   0.170   0.966   1.630  0.2111 -0.0295 -0.0546
 9153TIP3    H148874   0.135   0.890   1.585 -1.3754 -0.3908  1.7280
 9153TIP3    H248875   0.116   1.039   1.599  1.2401  0.2578 -1.1907
 9154TIP3   OH248876   5.888   4.530   6.174  0.6996 -0.1064 -0.1295
 9154TIP3    H148877   5.812   4.588   6.170  0.0605 -0.8989  0.2604
 9154TIP3    H248878   5.891   4.501   6.265 -0.0946 -2.1140 -0.7096
 9155TIP3   OH248879   5.595   4.179   5.838 -0.4560 -0.4674 -0.2685
 9155TIP3    H148880   5.681   4.142   5.856 -0.5456 -0.3714  0.3682
 9155TIP3    H248881   5.543   4.159   5.916 -0.3477  1.4684  0.3375
 9156TIP3   OH248882   4.013   3.607  13.816 -0.1549 -0.2714  0.2883
 9156TIP3    H148883   4.094   3.563  13.793 -1.6663 -1.9928 -1.9367
 9156TIP3    H248884   4.009   3.683  13.757  0.0329  0.0332  0.6676
 9157TIP3   OH248885   1.638   1.322   3.077  0.1095 -0.5768  0.2932
 9157TIP3    H148886   1.613   1.371   2.999  1.7726 -0.7897 -0.3984
 9157TIP3    H248887   1.561   1.269   3.098 -0.9471  0.7257 -0.1984
 9158TIP3   OH248888   0.262   6.094   4.823  0.1823  0.7948  0.5565
 9158TIP3    H148889   0.331   6.124   4.882  0.2625  1.6490  0.0412
 9158TIP3    H248890   0.307   6.036   4.761  0.4134  1.2269  0.3157
 9159TIP3   OH248891   1.197   2.514   1.711 -1.0489  0.0709 -0.1567
 9159TIP3    H148892   1.169   2.434   1.755 -1.4725  0.7838  0.8897
 9159TIP3    H248893   1.236   2.567   1.781 -1.5136  1.1241 -0.6931
 9160TIP3   OH248894   0.728   1.063   5.188 -0.1127  0.2110 -0.1765
 9160TIP3    H148895   0.712   0.999   5.118 -0.7341 -0.0701  0.2183
 9160TIP3    H248896   0.642   1.077   5.227 -0.1731  2.0635 -0.9086
 9161TIP3   OH248897   4.356   3.748  16.355  0.7103  0.0809  0.5114
 9161TIP3    H148898   4.428   3.693  16.322 -0.7915 -0.8744 -1.2396
 9161TIP3    H248899   4.383   3.837  16.333  1.5059 -0.2433  0.1198
 9162TIP3   OH248900   1.094   4.484   4.841  0.7574  0.0102 -0.3226
 9162TIP3    H148901   1.167   4.423   4.836 -0.8939 -1.9474 -1.0066
 9162TIP3    H248902   1.020   4.430   4.868 -0.3859  2.0162  0.6227
 9163TIP3   OH248903   4.253   0.408  16.562  0.1634 -0.1487 -0.1721
 9163TIP3    H148904   4.256   0.361  16.646  1.9231 -0.1918 -0.2479
 9163TIP3    H248905   4.242   0.339  16.497 -0.0428 -0.2085 -0.0772
 9164TIP3   OH248906   1.837   2.349   1.484  0.3629  0.0675  0.2369
 9164TIP3    H148907   1.800   2.264   1.460 -0.2909  0.9650 -2.0392
 9164TIP3    H248908   1.801   2.410   1.421 -1.4198  2.5912  3.5155
 9165TIP3   OH248909   3.783   1.454  10.830  0.0627 -0.0998 -0.1211
 9165TIP3    H148910   3.759   1.427  10.919 -0.4085  2.0132  0.4273
 9165TIP3    H248911   3.786   1.550  10.835  3.7572 -0.0889 -1.4142
 9166TIP3   OH248912   3.485   6.081  13.031  1.0004  0.2817  0.0476
 9166TIP3    H148913   3.390   6.076  13.025  0.7949  2.4718  1.0883
 9166TIP3    H248914   3.513   5.991  13.049 -0.8803 -0.3274 -0.0307
 9167TIP3   OH248915   2.064   0.981  16.868  0.1515 -0.5246  0.5793
 9167TIP3    H148916   2.064   1.021  16.781  0.5443 -2.7160 -0.4445
 9167TIP3    H248917   1.990   1.022  16.913 -1.0398 -0.5469 -1.3333
 9168TIP3   OH248918   5.854   0.035   1.558 -0.4127 -0.0473 -0.2178
 9168TIP3    H148919   5.938   0.060   1.520 -0.3169 -0.7592 -0.4814
 9168TIP3    H248920   5.862   0.057   1.650 -1.0466  2.7315 -0.7785
 9169TIP3   OH248921   6.787   5.673   5.431 -0.3389  0.0837  0.8019
 9169TIP3    H148922   6.825   5.753   5.395  0.0134 -1.0680 -1.5039
 9169TIP3    H248923   6.852   5.606   5.414  0.1049 -0.4537  4.2110
 9170TIP3   OH248924   3.264   2.180   3.021 -0.8469 -0.4066 -0.4948
 9170TIP3    H148925   3.239   2.211   3.108  0.6088  2.3761 -1.0087
 9170TIP3    H248926   3.193   2.210   2.964 -0.4814  0.1516 -0.6633
 9171TIP3   OH248927   1.430   0.371  14.573  0.3466  0.0827 -0.1158
 9171TIP3    H148928   1.504   0.360  14.632  1.5909  0.4238 -1.5780
 9171TIP3    H248929   1.431   0.464  14.550 -1.7623  0.5237  1.4087
 9172TIP3   OH248930   1.446   3.717   1.845 -0.0721 -0.1890 -0.5801
 9172TIP3    H148931   1.533   3.708   1.884  1.5180  0.0882 -3.8851
 9172TIP3    H248932   1.443   3.649   1.778 -2.4764 -0.2885 -0.4012
 9173TIP3   OH248933   2.325   3.849  15.857 -0.4606 -0.2706 -0.6571
 9173TIP3    H148934   2.351   3.920  15.797  0.2377  0.6388  0.6975
 9173TIP3    H248935   2.230   3.857  15.864 -0.6212 -0.7375 -2.0630
 9174TIP3   OH248936   4.538   4.230   3.999 -0.0361 -0.7712  0.2922
 9174TIP3    H148937   4.452   4.246   3.959 -0.8935  1.0389  2.7004
 9174TIP3    H248938   4.524   4.154   4.055 -0.1211 -0.3833  0.8015
 9175TIP3   OH248939   5.404   0.126  14.610 -0.0789  0.6924  0.3963
 9175TIP3    H148940   5.435   0.204  14.563 -0.5299  0.9313  0.4892
 9175TIP3    H248941   5.482   0.073  14.624 -0.1125  0.0926 -1.6101
 9176TIP3   OH248942   4.688   2.193  11.570  0.2403 -0.1414 -0.2243
 9176TIP3    H148943   4.779   2.208  11.596  0.0274 -1.7595  1.4610
 9176TIP3    H248944   4.636   2.238  11.636 -0.2447 -1.6812  0.4469
 9177TIP3   OH248945   4.516   1.268   1.959 -0.2241  0.3109  0.0538
 9177TIP3    H148946   4.564   1.202   1.908 -0.6525 -0.7572  1.0104
 9177TIP3    H248947   4.441   1.220   1.995  0.8752  0.6988  2.9280
 9178TIP3   OH248948   5.104   5.194   1.376  0.3790 -0.7455  0.5901
 9178TIP3    H148949   5.059   5.155   1.301  2.4912 -1.3827 -0.3774
 9178TIP3    H248950   5.034   5.234   1.427 -1.2058 -1.0855 -1.2432
 9179TIP3   OH248951   1.067   0.510   0.293 -0.0322 -0.9492 -0.8546
 9179TIP3    H148952   1.127   0.437   0.275  1.7507  0.5689 -1.2118
 9179TIP3    H248953   1.106   0.553   0.369 -0.3916  0.3704 -1.4192
 9180TIP3   OH248954   2.109   1.375   1.958  0.2912  0.8302 -0.4130
 9180TIP3    H148955   2.198   1.341   1.954  0.5913  1.6554 -0.7199
 9180TIP3    H248956   2.053   1.297   1.950  0.9738  0.1514  1.2374
 9181TIP3   OH248957   0.721   6.201  12.076 -0.0262 -0.1306 -0.3890
 9181TIP3    H148958   0.753   6.192  11.986 -0.6343 -0.2155 -0.6014
 9181TIP3    H248959   0.630   6.170  12.072 -0.2612  0.4887  0.1183
 9182TIP3   OH248960   1.592   6.462   2.982  0.2190  0.2802  0.3026
 9182TIP3    H148961   1.605   6.388   3.041  1.5682 -0.0869 -0.4461
 9182TIP3    H248962   1.518   6.437   2.927  0.4741 -0.3816  0.2626
 9183TIP3   OH248963   5.255   0.033  17.166 -0.3533  0.6650  0.0270
 9183TIP3    H148964   5.340   0.043  17.208 -0.2999  0.1632  0.0419
 9183TIP3    H248965   5.236   0.119  17.129 -0.1626  0.9693  0.6310
 9184TIP3   OH248966   1.852   3.798  14.668  0.2466 -0.0388 -0.0890
 9184TIP3    H148967   1.945   3.788  14.686  0.0869  0.1330  0.8547
 9184TIP3    H248968   1.809   3.783  14.752 -0.6359 -0.9513 -0.6884
 9185TIP3   OH248969   2.514   3.071   4.058 -0.0279  0.2684  0.0424
 9185TIP3    H148970   2.479   3.029   4.137  0.5449  3.7757  2.2840
 9185TIP3    H248971   2.479   3.019   3.986 -2.1484 -1.9279  2.5399
 9186TIP3   OH248972   2.962   0.481   4.201  0.1375 -0.2405 -0.0986
 9186TIP3    H148973   3.006   0.565   4.188  0.0506 -0.1819 -0.0048
 9186TIP3    H248974   3.022   0.431   4.256 -0.5960  0.3730  1.2640
 9187TIP3   OH248975   5.279   0.469   5.869  0.1971 -0.5744 -0.2258
 9187TIP3    H148976   5.259   0.445   5.960  0.8978  2.4057  0.7732
 9187TIP3    H248977   5.194   0.494   5.832  0.2058  0.0611  0.1897
 9188TIP3   OH248978   5.435   5.696  17.189  0.3053  0.3884  0.6161
 9188TIP3    H148979   5.415   5.778  17.144  1.0823  0.8065  1.0404
 9188TIP3    H248980   5.511   5.661  17.143 -0.9019 -0.8307 -0.4996
 9189TIP3   OH248981   4.339   6.407   1.019  0.1353 -0.2024  0.0044
 9189TIP3    H148982   4.307   6.462   1.090  1.9739  0.5814  0.2476
 9189TIP3    H248983   4.265   6.350   0.998 -1.3970  1.5308  0.5651
 9190TIP3   OH248984   1.413   5.727  13.280 -0.1597  0.7015  0.2919
 9190TIP3    H148985   1.508   5.730  13.272 -0.0526  2.6703  2.0049
 9190TIP3    H248986   1.381   5.789  13.215 -0.1654  1.8346  1.3752
 9191TIP3   OH248987   2.595   1.242  12.169 -0.1962 -0.2839  0.2775
 9191TIP3    H148988   2.554   1.275  12.089 -0.4995 -0.3333  0.4090
 9191TIP3    H248989   2.522   1.233  12.230  0.3692  1.9245  1.2941
 9192TIP3   OH248990   1.072   2.724   3.829  0.2075  0.5510 -0.1874
 9192TIP3    H148991   1.159   2.736   3.791  1.7481 -0.3377  2.8455
 9192TIP3    H248992   1.032   2.655   3.775  1.4418  0.8307 -1.5043
 9193TIP3   OH248993   5.317   6.647   5.319  0.0255 -0.2258  0.0012
 9193TIP3    H148994   5.291   6.610   5.404  0.4336 -1.0014 -0.2035
 9193TIP3    H248995   5.234   6.671   5.278 -0.1853  0.0143  0.5575
 9194TIP3   OH248996   5.748   5.922  14.722  0.1939 -0.3455  0.1725
 9194TIP3    H148997   5.720   6.009  14.751  0.9473 -0.6415  1.8048
 9194TIP3    H248998   5.833   5.936  14.681 -1.3953  0.2613 -3.0920
 9195TIP3   OH248999   1.459   1.782   5.374 -0.8998  0.4760 -0.1100
 9195TIP3    H149000   1.369   1.752   5.386 -0.4633  0.1573  2.8816
 9195TIP3    H249001   1.512   1.717   5.421  0.8594  0.9679 -1.3479
 9196TIP3   OH249002   5.290   6.383   0.271 -0.0736  0.0028  0.0122
 9196TIP3    H149003   5.252   6.295   0.268 -0.0404 -0.0134  0.0957
 9196TIP3    H249004   5.214   6.441   0.279 -0.0255 -0.0858  1.1959
 9197TIP3   OH249005   4.053   6.541   0.234  0.1688 -0.1433 -0.1160
 9197TIP3    H149006   3.966   6.520   0.266  1.2313  1.3941  4.0780
 9197TIP3    H249007   4.107   6.466   0.259  0.0688 -1.1896 -2.8832
 9198TIP3   OH249008   0.729   5.425  17.038 -0.5169 -0.1408 -0.5144
 9198TIP3    H149009   0.741   5.423  17.133  0.9806  1.6348 -0.6352
 9198TIP3    H249010   0.807   5.381  17.003 -1.2280 -1.0921 -0.9251
 9199TIP3   OH249011   0.797   1.113   0.612  0.0653 -0.4995 -0.0662
 9199TIP3    H149012   0.833   1.170   0.679 -2.4628  1.9310 -0.6869
 9199TIP3    H249013   0.752   1.172   0.551  0.5805 -2.8099 -2.8122
 9200TIP3   OH249014   1.595   5.689  14.659  0.4868  0.4710 -0.2873
 9200TIP3    H149015   1.664   5.672  14.595 -0.4158 -0.0067 -1.1437
 9200TIP3    H249016   1.523   5.725  14.608  0.2158  1.2936  0.6563
 9201TIP3   OH249017   0.919   2.443  12.676  0.4473  0.0361  0.3090
 9201TIP3    H149018   0.983   2.400  12.620 -2.2133 -0.1768 -2.7376
 9201TIP3    H249019   0.942   2.536  12.675  1.3014 -0.1820  0.1009
 9202TIP3   OH249020   2.472   4.892  11.428  0.6622 -0.3633  0.1756
 9202TIP3    H149021   2.439   4.979  11.451 -0.1014 -1.0762  1.9571
 9202TIP3    H249022   2.473   4.891  11.333  0.3013  1.4514  0.1201
 9203TIP3   OH249023   5.627   4.324  14.076 -0.0638 -0.0491  0.3032
 9203TIP3    H149024   5.612   4.325  14.171  1.9979 -1.4087  0.6581
 9203TIP3    H249025   5.619   4.232  14.051 -1.6747  0.4280 -1.0583
 9204TIP3   OH249026   0.148   4.226   4.263 -0.1555  0.0133  0.1110
 9204TIP3    H149027   0.102   4.204   4.182  2.6905  1.3673 -1.9757
 9204TIP3    H249028   0.172   4.141   4.300 -1.6642 -0.6295 -0.3573
 9205TIP3   OH249029   5.206   2.946   6.124  0.4131  0.1918  0.1671
 9205TIP3    H149030   5.121   2.903   6.134 -0.1778  0.9661 -1.3579
 9205TIP3    H249031   5.208   3.014   6.192 -0.5493  0.7250 -0.3331
 9206TIP3   OH249032   0.978   4.604   6.197  0.0495 -0.1452  0.2444
 9206TIP3    H149033   1.004   4.539   6.261  2.0834 -0.8113 -1.2091
 9206TIP3    H249034   1.028   4.582   6.118  1.1881  3.4361 -0.1414
 9207TIP3   OH249035   3.594   2.065  10.564 -0.7592  0.2494  0.0590
 9207TIP3    H149036   3.620   2.093  10.476 -0.5180  1.6720  0.5736
 9207TIP3    H249037   3.656   1.995  10.586 -1.3044 -0.6452 -1.1958
 9208TIP3   OH249038   2.589   0.771   4.613  0.3135 -0.1584  0.9605
 9208TIP3    H149039   2.623   0.802   4.697 -0.4881 -0.7603  1.5058
 9208TIP3    H249040   2.519   0.834   4.591  1.2627  0.6512  0.1927
 9209TIP3   OH249041   5.055   2.498  14.691  0.5982 -0.0505 -0.3187
 9209TIP3    H149042   5.028   2.452  14.771  0.9715 -1.8703 -1.2246
 9209TIP3    H249043   5.099   2.577  14.724 -1.6130  0.5881  1.2266
 9210TIP3   OH249044   2.127   6.007  16.167  0.3033 -0.4016 -0.3260
 9210TIP3    H149045   2.039   6.023  16.134  0.5439 -2.1444 -1.8916
 9210TIP3    H249046   2.114   5.990  16.261 -0.8401  0.7460 -0.2579
 9211TIP3   OH249047   2.292   1.631  14.366  0.3019  0.1389  0.2782
 9211TIP3    H149048   2.347   1.710  14.364 -3.1399  2.7377  2.3831
 9211TIP3    H249049   2.297   1.600  14.457 -2.5724  1.1636  0.8550
 9212TIP3   OH249050   4.070   5.630  13.222  0.4456 -0.0166 -0.2478
 9212TIP3    H149051   4.143   5.683  13.192  0.6515  1.3263  2.5043
 9212TIP3    H249052   4.006   5.635  13.151  2.7040 -0.6305 -2.3716
 9213TIP3   OH249053   6.706   6.640  11.946 -0.1268 -0.5729  0.1403
 9213TIP3    H149054   6.698   6.619  11.853 -1.1272 -1.3289  0.3825
 9213TIP3    H249055   6.626   6.605  11.985  0.6108 -0.8971  1.3942
 9214TIP3   OH249056   4.721   4.222   0.811  0.0981 -0.0909  0.1567
 9214TIP3    H149057   4.687   4.305   0.844  0.1871  0.0057  0.0071
 9214TIP3    H249058   4.753   4.177   0.889  1.9040  0.8808  0.0001
 9215TIP3   OH249059   1.227   3.447   4.227  0.6078  0.1028  0.2631
 9215TIP3    H149060   1.298   3.509   4.210  1.8756 -0.5989  2.7372
 9215TIP3    H249061   1.151   3.502   4.246  1.0628  0.8736 -0.1161
 9216TIP3   OH249062   0.465   5.886   5.474  0.3345  0.3148  0.0354
 9216TIP3    H149063   0.391   5.922   5.425  0.4069  1.3167  0.6636
 9216TIP3    H249064   0.426   5.853   5.555  0.5384  0.6097  0.2541
 9217TIP3   OH249065   2.036   2.902  12.505 -0.0463 -0.5375 -0.3112
 9217TIP3    H149066   2.024   2.970  12.571 -1.0496 -0.8730 -0.1350
 9217TIP3    H249067   1.953   2.901  12.457  0.9399  0.2307 -2.0789
 9218TIP3   OH249068   3.273   6.643  13.660 -0.3785  0.1370 -0.0891
 9218TIP3    H149069   3.249   6.725  13.616  0.1338  0.2628 -0.1368
 9218TIP3    H249070   3.207   6.633  13.729 -0.8539  0.2288 -0.5251
 9219TIP3   OH249071   4.444   0.553  11.376 -0.0251  0.2139 -0.0872
 9219TIP3    H149072   4.366   0.547  11.432 -0.2430  1.0606 -0.2896
 9219TIP3    H249073   4.417   0.513  11.294  0.1041 -0.4969  0.2165
 9220TIP3   OH249074   1.522   6.022   3.318 -0.0638 -0.8702 -0.5233
 9220TIP3    H149075   1.493   5.952   3.260  2.0730  0.6053 -3.4568
 9220TIP3    H249076   1.578   5.978   3.382 -0.0018 -2.0621 -1.3851
 9221TIP3   OH249077   2.700   5.226   2.604 -0.5147 -0.0704  0.3767
 9221TIP3    H149078   2.781   5.177   2.618 -0.0685  0.6270  0.2387
 9221TIP3    H249079   2.709   5.262   2.516 -1.3122 -0.6264  0.0672
 9222TIP3   OH249080   6.480   0.566  14.192 -0.2642  0.4276  0.0092
 9222TIP3    H149081   6.411   0.578  14.258  1.1470 -0.1517  1.6209
 9222TIP3    H249082   6.450   0.493  14.139 -0.3987 -0.5240  1.3666
 9223TIP3   OH249083   4.065   6.392   3.957 -0.2245  0.6827 -0.2241
 9223TIP3    H149084   4.071   6.464   4.020  0.3997  1.1442 -0.7976
 9223TIP3    H249085   4.111   6.319   4.000 -0.8735  0.6219  0.3649
 9224TIP3   OH249086   6.552   2.060  11.305  0.3931 -0.5766 -0.1677
 9224TIP3    H149087   6.544   1.997  11.234 -1.7501  0.7206 -1.1244
 9224TIP3    H249088   6.570   2.007  11.383 -1.3286 -2.3537 -0.9609
 9225TIP3   OH249089   2.802   1.259  12.351  0.5345  0.4357  0.0095
 9225TIP3    H149090   2.824   1.168  12.371 -2.1277 -0.0035  1.2858
 9225TIP3    H249091   2.737   1.253  12.281  1.1528  1.4063 -0.6484
 9226TIP3   OH249092   3.112   5.096   0.674  0.3169 -0.4348  0.0434
 9226TIP3    H149093   3.193   5.086   0.724 -0.1885  0.4614  1.0490
 9226TIP3    H249094   3.048   5.130   0.737 -0.6887 -0.5521 -0.8861
 9227TIP3   OH249095   0.278   4.633   4.650 -0.2166  0.4545 -0.3391
 9227TIP3    H149096   0.247   4.652   4.562  0.7467 -0.7356 -0.9516
 9227TIP3    H249097   0.367   4.599   4.637  0.1819  0.8889  1.1375
 9228TIP3   OH249098   1.366   2.974   6.953  0.0561  0.6828  0.2001
 9228TIP3    H149099   1.440   3.013   6.906  0.6723 -1.1412 -0.4006
 9228TIP3    H249100   1.294   2.977   6.891 -0.2879  2.1529  0.6631
 9229TIP3   OH249101   6.225   5.907  12.925 -0.2069 -0.5431 -0.0655
 9229TIP3    H149102   6.234   6.002  12.931  0.0006 -0.6793  1.9890
 9229TIP3    H249103   6.314   5.875  12.911  0.1671 -0.6351  2.3698
 9230TIP3   OH249104   5.474   0.538  11.825 -0.0026  0.9680  0.2297
 9230TIP3    H149105   5.536   0.594  11.872  0.8727 -0.8451  1.2919
 9230TIP3    H249106   5.515   0.523  11.740  0.5949  0.5358  0.5850
 9231TIP3   OH249107   6.564   4.748  11.243 -0.0556 -0.2836  0.4724
 9231TIP3    H149108   6.495   4.767  11.179  1.0327 -0.7382 -0.8553
 9231TIP3    H249109   6.566   4.653  11.249  2.4884 -0.4173 -1.7896
 9232TIP3   OH249110   3.145   1.288  11.678  0.6727  0.0612  0.0441
 9232TIP3    H149111   3.094   1.207  11.675 -1.1152  1.1015  1.4747
 9232TIP3    H249112   3.236   1.259  11.671  0.0935 -2.1363  1.1168
 9233TIP3   OH249113   3.794   1.719   5.782  0.7379  0.2682  0.1494
 9233TIP3    H149114   3.852   1.773   5.836 -1.6880  0.9272  2.1613
 9233TIP3    H249115   3.774   1.643   5.837  0.4287 -0.4243 -0.8998
 9234TIP3   OH249116   3.741   5.405   5.426  0.0854  0.0128 -0.2100
 9234TIP3    H149117   3.729   5.460   5.348  2.3227  0.9251  0.0653
 9234TIP3    H249118   3.834   5.384   5.427 -0.2733 -1.6391  1.1464
 9235TIP3   OH249119   4.078   4.136   6.801  0.0743 -0.3026  0.1480
 9235TIP3    H149120   4.049   4.045   6.803  2.2747 -1.0435 -0.2628
 9235TIP3    H249121   4.077   4.160   6.708  0.0756 -0.1014  0.1991
 9236TIP3   OH249122   3.021   5.707  17.134  0.0302 -0.0496 -0.1802
 9236TIP3    H149123   3.050   5.632  17.082  0.0421 -0.3623  0.2724
 9236TIP3    H249124   2.931   5.723  17.105 -0.0260 -0.3370 -0.1681
 9237TIP3   OH249125   2.041   4.017  14.842 -0.2806  0.2320  0.2716
 9237TIP3    H149126   2.041   3.975  14.928 -0.3524 -0.4135 -0.0345
 9237TIP3    H249127   1.948   4.033  14.823 -0.3701 -0.8740 -0.2716
 9238TIP3   OH249128   1.324   6.786  13.988  0.4352 -0.3263  0.5743
 9238TIP3    H149129   1.374   6.868  13.985  2.6701 -1.6551  0.4926
 9238TIP3    H249130   1.240   6.809  13.949  1.3725  1.6977 -0.3840
 9239TIP3   OH249131   2.143   1.361  13.431 -0.0094 -0.1031  0.4347
 9239TIP3    H149132   2.210   1.381  13.366  0.2327 -2.7011 -0.1660
 9239TIP3    H249133   2.182   1.294  13.486 -0.8904  0.7786  2.1720
 9240TIP3   OH249134   6.348   1.312  15.838 -0.1971 -0.4002  0.5542
 9240TIP3    H149135   6.370   1.247  15.771 -3.1764 -1.3797  0.4440
 9240TIP3    H249136   6.347   1.395  15.791  1.5997 -0.5366  0.2479
 9241TIP3   OH249137   2.867   6.568  11.315  0.2232 -0.8494 -0.1604
 9241TIP3    H149138   2.911   6.605  11.238 -0.3774  0.6221  0.1811
 9241TIP3    H249139   2.783   6.538  11.282  0.8083 -2.1470 -0.4863
 9242TIP3   OH249140   6.072   2.112   3.050  0.0888  0.1488 -0.5696
 9242TIP3    H149141   6.009   2.145   3.113  0.4010 -1.3188  0.5374
 9242TIP3    H249142   6.127   2.187   3.029  0.8757  0.3368  1.9848
 9243TIP3   OH249143   6.423   1.725   2.612 -0.4825  0.0326 -0.2263
 9243TIP3    H149144   6.451   1.658   2.675 -0.6715  0.1311 -0.0333
 9243TIP3    H249145   6.404   1.802   2.667  0.1810  0.3906 -0.4940
 9244TIP3   OH249146   1.863   2.144   6.404  0.4606  0.1090  0.1412
 9244TIP3    H149147   1.807   2.066   6.403  1.8864 -0.9534  1.1525
 9244TIP3    H249148   1.841   2.190   6.323 -1.3514 -0.6545  0.1676
 9245TIP3   OH249149   3.064   6.463  11.881  0.1982 -0.3708 -0.2538
 9245TIP3    H149150   3.013   6.415  11.946  0.1919 -0.7445 -0.5353
 9245TIP3    H249151   3.002   6.523  11.840  0.4364  0.6638  0.8545
 9246TIP3   OH249152   1.503   2.274   1.654 -0.0619  0.1016  0.8563
 9246TIP3    H149153   1.560   2.248   1.581  0.2910  0.3803  1.0333
 9246TIP3    H249154   1.461   2.193   1.682 -0.2482  0.0024  0.2992
 9247TIP3   OH249155   1.169   2.947  15.977  0.4609  0.1106 -0.3498
 9247TIP3    H149156   1.113   2.902  15.913  0.7853 -1.0600  0.1829
 9247TIP3    H249157   1.209   3.019  15.927 -0.6580  0.2848 -1.0066
 9248TIP3   OH249158   0.012   1.398   3.700  1.0168 -0.5587  0.7800
 9248TIP3    H149159  -0.026   1.372   3.616  1.8457 -1.2334  0.6137
 9248TIP3    H249160   0.008   1.318   3.753 -0.0799  0.0276  1.5964
 9249TIP3   OH249161   0.316   2.389   3.833 -0.4490 -0.0270 -0.7175
 9249TIP3    H149162   0.336   2.349   3.918  0.5227 -0.6891 -1.2477
 9249TIP3    H249163   0.401   2.421   3.801 -0.8437  0.3951 -1.3538
 9250TIP3   OH249164   0.893   5.815  11.055  0.1918  0.1574  0.1301
 9250TIP3    H149165   0.888   5.908  11.075 -1.0794 -0.0914  1.0355
 9250TIP3    H249166   0.866   5.771  11.136  2.4509 -1.0399  0.2576
 9251TIP3   OH249167   0.507   6.727  16.243 -0.3598 -0.2690 -0.2572
 9251TIP3    H149168   0.556   6.784  16.301 -2.1691 -0.4597  1.5465
 9251TIP3    H249169   0.507   6.771  16.159  1.3031  0.6051  0.1889
 9252TIP3   OH249170   2.163   3.207  13.260  0.3508  0.1263  0.2469
 9252TIP3    H149171   2.108   3.228  13.336  1.1022  2.0067  0.3091
 9252TIP3    H249172   2.137   3.118  13.235 -0.8507 -0.0060  1.8798
 9253TIP3   OH249173   3.627   4.434   0.868 -0.1256 -0.2886  0.0985
 9253TIP3    H149174   3.621   4.340   0.852  0.4306 -0.3599  0.2994
 9253TIP3    H249175   3.574   4.448   0.947 -1.7107 -0.1475 -0.9641
 9254TIP3   OH249176   0.783   3.796   1.423 -0.5086  0.4768 -0.3320
 9254TIP3    H149177   0.699   3.749   1.431  0.2899 -1.3065 -1.9394
 9254TIP3    H249178   0.831   3.772   1.503  0.1467 -2.0634 -1.4328
 9255TIP3   OH249179   5.020   2.574  11.742 -0.5249  0.7892  0.1551
 9255TIP3    H149180   4.991   2.649  11.794  0.1087  1.0388  0.1545
 9255TIP3    H249181   4.985   2.591  11.655  1.7057  2.3739 -0.4951
 9256TIP3   OH249182   2.756   6.033  11.423 -0.0787  0.3154 -0.1994
 9256TIP3    H149183   2.693   6.043  11.351 -0.1123 -0.3853 -0.2659
 9256TIP3    H249184   2.739   6.108  11.480 -1.4266 -0.2190  0.1199
 9257TIP3   OH249185   5.812   3.377   0.703  0.4323 -0.4825  0.3866
 9257TIP3    H149186   5.800   3.303   0.762  1.4634 -0.8499  0.1489
 9257TIP3    H249187   5.903   3.369   0.673 -0.1250 -0.3955 -1.3707
 9258TIP3   OH249188   4.729   0.284   1.176  0.2598 -0.9987 -0.0133
 9258TIP3    H149189   4.762   0.302   1.088 -0.9081  2.4774  0.1888
 9258TIP3    H249190   4.634   0.286   1.167  0.1165 -1.9831  1.0962
 9259TIP3   OH249191   1.640   5.819  14.890  0.1501 -0.0291 -0.3862
 9259TIP3    H149192   1.668   5.907  14.863 -1.8041  0.1078 -2.0565
 9259TIP3    H249193   1.612   5.777  14.809 -0.3197 -1.6904  0.6173
 9260TIP3   OH249194   0.224   6.486  11.924  0.0792 -0.1637 -0.4051
 9260TIP3    H149195   0.250   6.394  11.920 -2.6291 -0.9310 -1.3968
 9260TIP3    H249196   0.151   6.488  11.987 -0.1227  1.2262 -0.6476
 9261TIP3   OH249197   0.666   3.366  11.767 -0.0879 -0.1416 -0.4482
 9261TIP3    H149198   0.726   3.440  11.759  1.2193 -0.9986  0.9795
 9261TIP3    H249199   0.580   3.401  11.744  0.7742  1.4035 -1.3860
 9262TIP3   OH249200   5.372   1.439   3.888 -0.0308  0.5451 -0.2508
 9262TIP3    H149201   5.341   1.518   3.845  0.7730  0.5403 -0.8594
 9262TIP3    H249202   5.467   1.450   3.892  0.0368 -0.1565  0.1380
 9263TIP3   OH249203   0.274   3.520  16.379 -0.3622  0.3496  0.3045
 9263TIP3    H149204   0.335   3.525  16.306 -0.8252 -0.7611 -0.1696
 9263TIP3    H249205   0.322   3.475  16.448  0.0715  1.3893  0.6876
 9264TIP3   OH249206   5.840   0.151  15.229  0.4952  0.0957  0.1243
 9264TIP3    H149207   5.806   0.066  15.200  1.2907  0.6610 -2.6138
 9264TIP3    H249208   5.890   0.131  15.309 -0.9016 -1.7048  0.5738
 9265TIP3   OH249209   3.522   1.736  14.403 -0.0060  0.0087 -0.1010
 9265TIP3    H149210   3.572   1.759  14.482 -1.1145  0.0077  0.6017
 9265TIP3    H249211   3.474   1.816  14.382  0.2126 -0.0239 -0.7244
 9266TIP3   OH249212   5.482   6.187   0.276  0.0085 -0.1659 -0.6744
 9266TIP3    H149213   5.450   6.276   0.258  0.7784  0.0891 -0.7863
 9266TIP3    H249214   5.464   6.174   0.369  2.3288  1.1246 -0.0080
 9267TIP3   OH249215   1.342   5.547   3.647  0.1944 -0.4863  0.6575
 9267TIP3    H149216   1.403   5.582   3.581 -0.5268 -2.2503 -1.0026
 9267TIP3    H249217   1.275   5.615   3.655 -0.0714 -0.5203 -0.9575
 9268TIP3   OH249218   5.784   6.660   5.605 -0.7068 -0.3668 -0.4252
 9268TIP3    H149219   5.874   6.664   5.636  0.2167 -0.5032 -2.9904
 9268TIP3    H249220   5.771   6.741   5.557 -1.7194 -0.6984 -0.7290
 9269TIP3   OH249221   4.522   3.667  16.938  0.1466 -0.4730 -0.3142
 9269TIP3    H149222   4.582   3.606  16.896 -0.7267 -1.0307 -0.7843
 9269TIP3    H249223   4.457   3.687  16.870  0.5072  1.1050 -0.2273
 9270TIP3   OH249224   0.102   3.789  16.509 -0.3972  0.7857  0.3285
 9270TIP3    H149225   0.038   3.857  16.488 -1.0439 -0.8750 -3.6468
 9270TIP3    H249226   0.057   3.707  16.488  1.6929 -0.6335  1.2577
 9271TIP3   OH249227   1.490   2.182   0.511 -0.2671 -0.3225 -0.6904
 9271TIP3    H149228   1.520   2.211   0.425  2.2924  0.8609  0.5566
 9271TIP3    H249229   1.489   2.261   0.564  1.2436 -1.5540  1.2184
 9272TIP3   OH249230   3.015   1.800   5.099 -0.2958 -0.2880  0.0656
 9272TIP3    H149231   3.014   1.791   5.004 -2.6580  0.9794 -0.0552
 9272TIP3    H249232   3.049   1.716   5.130 -1.0364 -1.3184 -1.8309
 9273TIP3   OH249233   4.446   5.627  16.662 -0.4118 -0.0105  0.1708
 9273TIP3    H149234   4.364   5.640  16.615  0.5410 -1.1011 -1.8818
 9273TIP3    H249235   4.467   5.712  16.700 -1.0127  1.0185 -1.7496
 9274TIP3   OH249236   5.115   4.189  17.024 -0.4749 -0.1127 -0.4013
 9274TIP3    H149237   5.033   4.214  17.066 -1.7638 -0.5988 -2.5200
 9274TIP3    H249238   5.141   4.107  17.066 -2.4895 -1.3505 -1.5097
 9275TIP3   OH249239   0.770   1.315   5.377 -0.1274 -0.3983 -0.3620
 9275TIP3    H149240   0.854   1.284   5.411  0.8712  1.0945 -1.4158
 9275TIP3    H249241   0.752   1.257   5.303 -0.8026 -1.6875  0.7727
 9276TIP3   OH249242   2.910   2.007  13.276  0.0032  0.3135  0.2953
 9276TIP3    H149243   2.946   2.091  13.249  0.0050  0.7359  1.5757
 9276TIP3    H249244   2.983   1.961  13.318 -0.4670  0.4264  1.2485
 9277TIP3   OH249245   0.697   2.377  17.192  0.0795 -0.1914  0.2262
 9277TIP3    H149246   0.690   2.356  17.099  1.0595 -0.2250  0.1502
 9277TIP3    H249247   0.754   2.454  17.195 -0.1419 -0.0436  0.7799
 9278TIP3   OH249248   6.305   2.038   0.124  0.7391  0.8138 -0.5762
 9278TIP3    H149249   6.380   2.039   0.184  0.0109  2.6944  0.3462
 9278TIP3    H249250   6.303   1.948   0.090  2.4174  0.2858  0.6233
 9279TIP3   OH249251   1.893   1.686   6.347 -0.2105  0.6961  0.0097
 9279TIP3    H149252   1.819   1.740   6.371  1.2425  2.0517  1.5396
 9279TIP3    H249253   1.966   1.747   6.337  0.9052 -0.6932 -0.6265
 9280TIP3   OH249254   6.186   0.146   4.612  0.3893  0.0486 -0.5630
 9280TIP3    H149255   6.114   0.134   4.550 -0.4864  0.9733  0.2621
 9280TIP3    H249256   6.170   0.082   4.681  0.3652  0.2436 -0.3870
 9281TIP3   OH249257   1.422   3.572   2.625  0.4476 -0.3611 -0.0475
 9281TIP3    H149258   1.353   3.561   2.690  1.2214 -1.8053  0.5398
 9281TIP3    H249259   1.492   3.619   2.671 -0.0747  0.9974 -0.6084
 9282TIP3   OH249260   4.647   0.938  13.187  0.2494 -0.7898 -0.3493
 9282TIP3    H149261   4.622   0.855  13.228 -2.0911 -0.3700 -0.8340
 9282TIP3    H249262   4.613   1.006  13.246  2.1750 -0.1522  0.0588
 9283TIP3   OH249263   0.857   3.936  10.842 -0.7305 -0.0429 -0.5740
 9283TIP3    H149264   0.807   3.858  10.864 -3.0892  1.9636  1.5208
 9283TIP3    H249265   0.801   3.984  10.781  0.6539  0.0692 -1.7840
 9284TIP3   OH249266   0.897   2.468  12.254 -0.1262  0.0441  0.0913
 9284TIP3    H149267   0.983   2.508  12.239  0.0368  0.1222  1.2081
 9284TIP3    H249268   0.847   2.488  12.175  0.8344  0.1331 -0.4983
 9285TIP3   OH249269   1.576   1.461   5.267 -0.0125 -0.6240  0.5424
 9285TIP3    H149270   1.487   1.434   5.290 -0.0516 -0.7452  0.2522
 9285TIP3    H249271   1.628   1.381   5.276 -0.2247 -0.9370 -0.8416
 9286TIP3   OH249272   2.287   4.217   4.183 -0.5521  0.0878  0.0702
 9286TIP3    H149273   2.358   4.181   4.130 -0.4017  0.5725 -0.0541
 9286TIP3    H249274   2.292   4.311   4.170  0.3458  0.3263  2.0330
 9287TIP3   OH249275   2.859   5.901  11.850 -0.2058 -0.0446  0.2244
 9287TIP3    H149276   2.955   5.895  11.851 -0.0253  2.2271 -0.0960
 9287TIP3    H249277   2.833   5.844  11.777  1.0459  0.8266 -0.9328
 9288TIP3   OH249278   2.132   4.028  11.957  0.8514  0.4615  0.1109
 9288TIP3    H149279   2.108   3.985  11.875  1.2413 -1.4924  0.9866
 9288TIP3    H249280   2.053   4.020  12.012  1.0208  0.6260  0.3803
 9289TIP3   OH249281   2.591   4.832  14.565  0.4392  0.4679  0.4944
 9289TIP3    H149282   2.575   4.831  14.659 -0.9001 -0.1691  0.2720
 9289TIP3    H249283   2.618   4.922  14.547 -0.0746  0.8072  1.3635
 9290TIP3   OH249284   3.968   5.782  17.029  0.6710  0.3680  0.2215
 9290TIP3    H149285   3.937   5.715  17.090  2.4938 -0.4235  0.3287
 9290TIP3    H249286   3.929   5.758  16.945 -1.1002  0.9278  0.8612
 9291TIP3   OH249287   2.477   6.498   2.364  0.1193  0.7293 -0.2324
 9291TIP3    H149288   2.394   6.543   2.354  0.0854  0.2390 -2.5046
 9291TIP3    H249289   2.483   6.441   2.287  2.5964  0.8213 -0.1537
 9292TIP3   OH249290   1.189   4.802  14.458 -0.0632  0.0736  0.3166
 9292TIP3    H149291   1.158   4.853  14.384  0.0208 -0.7688 -0.3000
 9292TIP3    H249292   1.276   4.772  14.432 -0.2553 -0.6778  0.5415
 9293TIP3   OH249293   5.696   6.592  12.729 -0.4400  0.3105 -0.4525
 9293TIP3    H149294   5.761   6.594  12.799  0.2508  0.1133 -1.0781
 9293TIP3    H249295   5.715   6.671  12.678 -0.3671 -0.0103 -0.9229
 9294TIP3   OH249296   3.955   6.532   2.752  0.3742  1.1764 -0.8601
 9294TIP3    H149297   3.958   6.622   2.784  2.2113  0.7026  0.3932
 9294TIP3    H249298   4.006   6.534   2.670 -0.6549  1.5120 -1.5047
 9295TIP3   OH249299   2.657   0.325  15.210  0.6535  0.2427  0.3547
 9295TIP3    H149300   2.609   0.368  15.281  0.0585 -2.1665  1.4814
 9295TIP3    H249301   2.688   0.243  15.249 -0.4239 -1.5450 -2.3766
 9296TIP3   OH249302   0.249   0.412  13.749 -0.2868  0.0974  0.1840
 9296TIP3    H149303   0.240   0.421  13.654  0.2763  0.1869  0.1354
 9296TIP3    H249304   0.306   0.485  13.774 -1.7447  1.0372  0.8171
 9297TIP3   OH249305   2.573   4.058  14.906 -0.2196  0.7061 -0.6146
 9297TIP3    H149306   2.535   4.107  14.978  1.4948  0.7437  0.2883
 9297TIP3    H249307   2.498   4.030  14.854 -1.5251  0.0233  1.5881
 9298TIP3   OH249308   2.990   6.379   3.724 -0.0470 -0.1951 -0.0241
 9298TIP3    H149309   3.059   6.429   3.680 -0.2228  0.1324  0.0736
 9298TIP3    H249310   3.035   6.302   3.758  0.1658 -0.2630 -0.4468
 9299TIP3   OH249311   3.852   1.046   3.053 -0.1779 -0.1903  0.2708
 9299TIP3    H149312   3.915   0.979   3.027 -0.0434 -0.0224  0.1648
 9299TIP3    H249313   3.871   1.120   2.996 -1.7435 -0.8140 -1.1167
 9300TIP3   OH249314   5.194   2.806  14.445 -0.5405 -0.7603 -0.5118
 9300TIP3    H149315   5.221   2.714  14.438  2.1018 -0.0713  0.0339
 9300TIP3    H249316   5.223   2.846  14.363 -0.4946 -0.1295 -0.1902
 9301TIP3   OH249317   1.187   1.929   0.293 -0.2316  0.1022 -0.3511
 9301TIP3    H149318   1.244   1.865   0.336 -0.3435  1.0383  1.2184
 9301TIP3    H249319   1.116   1.876   0.257  0.6058 -0.8623 -0.6331
 9302TIP3   OH249320   6.570   4.608  14.454 -0.3182 -0.0355  0.4473
 9302TIP3    H149321   6.618   4.558  14.388 -0.5290  1.2711 -0.7150
 9302TIP3    H249322   6.490   4.559  14.467 -0.6555  0.1315 -0.9064
 9303TIP3   OH249323   5.744   2.346   3.084 -0.3728 -0.0460 -0.1544
 9303TIP3    H149324   5.831   2.377   3.109 -0.0912 -0.1628 -0.9906
 9303TIP3    H249325   5.701   2.327   3.168 -0.5021  2.4565  0.3918
 9304TIP3   OH249326   5.499   3.296   0.269 -0.3308 -0.0562 -0.4214
 9304TIP3    H149327   5.486   3.215   0.221 -0.1971 -0.2267 -0.1734
 9304TIP3    H249328   5.574   3.279   0.326  0.8548  0.8505 -1.6878
 9305TIP3   OH249329   0.640   3.454  15.888 -0.6285  0.0917  0.3027
 9305TIP3    H149330   0.675   3.402  15.816 -1.0545 -1.2640  1.0702
 9305TIP3    H249331   0.687   3.538  15.882  1.7324 -1.1802  0.4782
 9306TIP3   OH249332   4.050   1.544  11.593  0.0968  0.2137 -0.1164
 9306TIP3    H149333   4.089   1.529  11.680  0.2362 -2.1402 -0.5446
 9306TIP3    H249334   4.114   1.598  11.547  0.1273  1.2936  1.1711
 9307TIP3   OH249335   5.360   1.543  15.047 -0.0142 -0.5244  0.3333
 9307TIP3    H149336   5.449   1.510  15.049  0.1531 -0.2576 -1.7451
 9307TIP3    H249337   5.332   1.534  14.956 -1.2623  1.5757  0.4547
 9308TIP3   OH249338   1.382   3.804  12.811 -0.2701 -0.4585 -0.1238
 9308TIP3    H149339   1.409   3.883  12.765  1.0105 -1.1420 -0.5661
 9308TIP3    H249340   1.394   3.825  12.904 -0.1327 -0.0764 -0.2279
 9309TIP3   OH249341   0.255   6.358  15.987  0.1533 -0.4378  0.1888
 9309TIP3    H149342   0.300   6.392  16.065 -0.8867 -1.6294  1.3414
 9309TIP3    H249343   0.325   6.323  15.932  1.0775  2.0414 -0.2593
 9310TIP3   OH249344   6.510   6.069  16.541 -0.1699 -0.0722 -0.0049
 9310TIP3    H149345   6.529   5.990  16.490  0.4945  0.0920 -0.0112
 9310TIP3    H249346   6.424   6.097  16.509 -0.5800 -0.9939  0.2554
 9311TIP3   OH249347   6.420   1.668   6.435 -0.3886  0.2129 -1.0006
 9311TIP3    H149348   6.348   1.694   6.493 -0.4762 -0.9877 -0.5684
 9311TIP3    H249349   6.386   1.593   6.386  0.0447  0.5855 -1.8967
 9312TIP3   OH249350   0.412   4.651  14.353  0.0116  0.7496 -0.0073
 9312TIP3    H149351   0.503   4.630  14.335  0.8889  1.6915  2.9997
 9312TIP3    H249352   0.415   4.733  14.402 -2.2674 -0.3049  2.0243
 9313TIP3   OH249353   0.615   0.199   0.389  0.5823  0.5694  0.3018
 9313TIP3    H149354   0.588   0.269   0.330  1.6173  0.2204 -0.6055
 9313TIP3    H249355   0.549   0.130   0.377 -1.0254  1.7665  1.9603
 9314TIP3   OH249356   4.097   3.013  13.589  0.3083  0.3383 -0.0673
 9314TIP3    H149357   4.149   3.061  13.525 -0.6979 -0.0638 -1.2119
 9314TIP3    H249358   4.063   2.938  13.541  0.0511 -0.3113  1.1166
 9315TIP3   OH249359   3.892   5.416   4.213  0.2227 -0.7379 -0.7611
 9315TIP3    H149360   3.896   5.365   4.132 -1.9316 -1.2801 -0.5370
 9315TIP3    H249361   3.846   5.360   4.275 -0.9246  0.9141 -0.0896
 9316TIP3   OH249362   3.657   4.104   6.669 -0.0211 -0.1458 -0.0451
 9316TIP3    H149363   3.696   4.185   6.702  1.0984 -0.3261 -0.8843
 9316TIP3    H249364   3.573   4.098   6.712 -0.3861  1.8059 -0.4540
 9317TIP3   OH249365   3.266   2.819   2.455 -0.2344  0.4593  0.1951
 9317TIP3    H149366   3.252   2.754   2.386 -2.0283  1.6091 -0.5676
 9317TIP3    H249367   3.256   2.770   2.537  0.0537 -0.5312 -0.3558
 9318TIP3   OH249368   6.414   4.576  15.389  0.5978 -0.2918  0.0458
 9318TIP3    H149369   6.440   4.505  15.447 -0.4495  0.4456  1.4598
 9318TIP3    H249370   6.355   4.630  15.442 -0.1645  0.5582 -1.6105
 9319TIP3   OH249371   4.044   6.629  10.865  0.2785 -0.0189  0.1604
 9319TIP3    H149372   4.027   6.552  10.920 -1.3301 -0.2072 -0.5567
 9319TIP3    H249373   4.033   6.597  10.776  0.8584  0.7524 -0.1846
 9320TIP3   OH249374   6.633   5.779   3.698 -0.4646  0.0910 -0.1819
 9320TIP3    H149375   6.680   5.834   3.761 -0.0885  0.2005 -0.5514
 9320TIP3    H249376   6.560   5.833   3.669  0.8772  1.0751 -1.8338
 9321TIP3   OH249377   2.365   1.000  13.770 -0.5611 -0.1031  0.2045
 9321TIP3    H149378   2.459   0.989  13.757 -0.7496  0.6176 -1.9672
 9321TIP3    H249379   2.355   1.011  13.864  1.4575 -0.8224  0.5259
 9322TIP3   OH249380   6.782   1.184   1.535 -0.7606  0.5408  0.7900
 9322TIP3    H149381   6.849   1.244   1.567 -0.0905 -0.1895  0.7879
 9322TIP3    H249382   6.768   1.210   1.444  0.4921 -0.1307  0.3873
 9323TIP3   OH249383   3.928   0.731   0.035 -0.6130  0.0451 -0.3438
 9323TIP3    H149384   3.990   0.658   0.037  0.4129  0.8941 -0.9025
 9323TIP3    H249385   3.973   0.799  -0.015 -2.2127  0.4780 -1.2123
 9324TIP3   OH249386   1.547   2.179  16.620  0.6669 -1.1120 -0.0053
 9324TIP3    H149387   1.578   2.222  16.540 -0.2569 -2.1102 -0.9129
 9324TIP3    H249388   1.477   2.235  16.652 -0.0474 -1.5566 -0.7889
 9325TIP3   OH249389   4.601   3.680  14.876  1.1246  0.1647 -0.0527
 9325TIP3    H149390   4.524   3.641  14.835  0.4274  0.9680  0.4691
 9325TIP3    H249391   4.666   3.683  14.806 -0.1383  1.8055 -1.2233
 9326TIP3   OH249392   6.682   4.151   3.734 -0.3517  0.0362  1.1141
 9326TIP3    H149393   6.607   4.143   3.793 -0.5761 -1.5861  0.6251
 9326TIP3    H249394   6.715   4.240   3.750 -1.3914  0.1990  2.4975
 9327TIP3   OH249395   4.973   0.099   2.959 -0.0870 -0.0215 -0.1090
 9327TIP3    H149396   4.961   0.023   2.902  0.4659  0.4341 -0.8449
 9327TIP3    H249397   4.970   0.064   3.048 -0.9336 -0.7487 -0.4181
 9328TIP3   OH249398   6.422   3.268  14.776  0.1356  0.3759 -0.2296
 9328TIP3    H149399   6.438   3.314  14.859  1.0424  0.3444 -0.3846
 9328TIP3    H249400   6.434   3.175  14.798  3.0614  0.5277 -0.9760
 9329TIP3   OH249401   0.221   3.194   1.120  0.2393  0.1189 -0.1477
 9329TIP3    H149402   0.207   3.220   1.212 -2.9987  0.6140 -0.7283
 9329TIP3    H249403   0.247   3.102   1.125  3.4740  1.0214  1.4150
 9330TIP3   OH249404   1.155   6.276  13.848 -0.3915 -0.1041 -0.9162
 9330TIP3    H149405   1.147   6.371  13.841  0.2499 -0.0919 -1.5259
 9330TIP3    H249406   1.065   6.243  13.844 -0.6560  0.5126 -0.1428
 9331TIP3   OH249407   0.978   6.035   0.589  0.2964 -0.5776  0.4274
 9331TIP3    H149408   1.015   6.010   0.674  1.5696 -0.7968 -0.1815
 9331TIP3    H249409   1.055   6.052   0.534 -0.5266 -0.2211 -0.6105
 9332TIP3   OH249410   1.589   4.273  12.967  0.3587 -0.1840  0.2329
 9332TIP3    H149411   1.590   4.332  12.892 -0.7360 -0.1571  0.2249
 9332TIP3    H249412   1.566   4.188  12.931  1.9962 -0.6281  0.2397
 9333TIP3   OH249413   3.352   1.603   3.305 -0.6620 -0.2784 -0.2877
 9333TIP3    H149414   3.329   1.575   3.217 -0.0408 -0.1499 -0.4896
 9333TIP3    H249415   3.337   1.697   3.305  2.3758  0.2335 -1.2125
 9334TIP3   OH249416   6.058   0.480  15.932  0.5119  0.2956  0.1951
 9334TIP3    H149417   6.138   0.468  15.983  0.2982  0.4669  0.5756
 9334TIP3    H249418   6.073   0.560  15.882  0.9555 -0.1954 -0.4632
 9335TIP3   OH249419   0.361   2.695  11.898  0.1664  0.4023 -0.0221
 9335TIP3    H149420   0.448   2.678  11.861  0.5203  0.8303  0.6153
 9335TIP3    H249421   0.328   2.609  11.922  0.7416  0.3178  0.4726
 9336TIP3   OH249422   1.615   0.830   5.058 -0.6885 -0.0749  0.0186
 9336TIP3    H149423   1.531   0.871   5.035 -0.9789 -0.1443  0.9288
 9336TIP3    H249424   1.621   0.841   5.153  0.9197  1.0417 -0.1977
 9337TIP3   OH249425   1.599   5.855  14.225 -0.1594 -0.1376 -0.2571
 9337TIP3    H149426   1.515   5.809  14.234 -0.0726 -0.3111 -0.3317
 9337TIP3    H249427   1.650   5.800  14.166 -0.0139 -0.0007 -0.2585
 9338TIP3   OH249428   1.081   5.105  14.445 -0.5966 -0.6880 -0.1268
 9338TIP3    H149429   1.032   5.089  14.364 -1.5981 -3.0544  0.9206
 9338TIP3    H249430   1.036   5.178  14.486 -2.5659 -2.0782  0.2482
 9339TIP3   OH249431   0.797   2.116   4.856 -0.4080 -0.0596  0.1747
 9339TIP3    H149432   0.705   2.121   4.881 -0.4156  1.8497 -0.1470
 9339TIP3    H249433   0.845   2.145   4.934 -0.1815  0.5718 -0.1888
 9340TIP3   OH249434   5.436   0.152   4.512  0.2388 -0.0256  0.6660
 9340TIP3    H149435   5.528   0.175   4.530 -0.3903  2.3332  0.9985
 9340TIP3    H249436   5.431   0.148   4.416  0.9117 -1.2391  0.6612
 9341TIP3   OH249437   3.459   4.233   5.219 -0.5649  0.1199 -0.5273
 9341TIP3    H149438   3.481   4.227   5.126 -0.4860 -1.8345 -0.4047
 9341TIP3    H249439   3.543   4.222   5.264 -0.8576 -0.6739 -0.1833
 9342TIP3   OH249440   2.781   3.665   1.048  0.1478 -0.0037 -0.3486
 9342TIP3    H149441   2.852   3.601   1.061  0.0725  0.1002  0.5991
 9342TIP3    H249442   2.740   3.672   1.134  0.2532  1.4426 -0.4150
 9343TIP3   OH249443   1.832   5.517  17.058 -0.4193 -0.7066  0.4311
 9343TIP3    H149444   1.873   5.594  17.096 -1.4270 -0.1436  0.3858
 9343TIP3    H249445   1.740   5.541  17.046 -0.3633 -1.2601 -1.3227
 9344TIP3   OH249446   5.669   2.846   2.698 -0.3174 -0.2235 -0.1765
 9344TIP3    H149447   5.657   2.757   2.732  0.2384 -1.3317 -2.7988
 9344TIP3    H249448   5.594   2.860   2.641  0.1332  0.6247 -0.5591
 9345TIP3   OH249449   4.086   1.567   4.676 -0.2188 -0.2920  0.2664
 9345TIP3    H149450   4.057   1.483   4.712 -0.3079 -0.5864 -0.4880
 9345TIP3    H249451   4.008   1.623   4.682 -0.4896 -0.6055 -0.2845
 9346TIP3   OH249452   3.431   5.477  15.533  0.2642  0.0097 -0.2024
 9346TIP3    H149453   3.422   5.484  15.628  0.9002  0.4898 -0.1740
 9346TIP3    H249454   3.525   5.491  15.516  0.0482  0.5838 -0.9574
 9347TIP3   OH249455   1.759   1.754   3.689 -0.3311 -0.2010  0.5919
 9347TIP3    H149456   1.781   1.704   3.768  0.0079  0.4629  0.9307
 9347TIP3    H249457   1.664   1.752   3.685 -0.2992 -1.5207  0.1659
 9348TIP3   OH249458   4.556   6.392   0.767  0.1880 -0.0494  0.0954
 9348TIP3    H149459   4.517   6.406   0.854  0.0332  0.5333 -0.0640
 9348TIP3    H249460   4.573   6.480   0.734  0.6930 -0.2814 -0.2693
 9349TIP3   OH249461   3.997   1.784  13.371  0.8994  0.6303 -0.0107
 9349TIP3    H149462   4.024   1.834  13.294  3.7284  1.1132  1.2393
 9349TIP3    H249463   4.061   1.712  13.376 -0.7952 -0.8836  0.4428
 9350TIP3   OH249464   4.088   4.111  15.199  0.1746  0.1242 -0.1800
 9350TIP3    H149465   4.075   4.127  15.106  0.4888 -2.5793 -0.7167
 9350TIP3    H249466   3.999   4.105  15.235  0.0547  2.1461 -0.1094
 9351TIP3   OH249467   2.364   5.823  12.406 -0.5731  0.4566 -0.7159
 9351TIP3    H149468   2.289   5.763  12.413  0.3670 -0.9432 -2.3336
 9351TIP3    H249469   2.340   5.884  12.337  0.2274 -0.7501 -2.1163
 9352TIP3   OH249470   6.785   6.556  14.607  0.3726 -0.2569 -0.1902
 9352TIP3    H149471   6.826   6.639  14.633 -0.6086 -0.1616  1.1391
 9352TIP3    H249472   6.747   6.575  14.521 -2.5275  1.7076  1.3914
 9353TIP3   OH249473   0.893   2.279   4.485  0.5889  0.6776  0.2545
 9353TIP3    H149474   0.982   2.280   4.521  0.2025  1.0337  1.2310
 9353TIP3    H249475   0.899   2.331   4.405  1.7187 -1.0983 -0.8282
 9354TIP3   OH249476   1.112   2.225   5.214  0.0673 -0.2598  0.3419
 9354TIP3    H149477   1.126   2.317   5.192  0.9847 -0.0783  1.6263
 9354TIP3    H249478   1.148   2.177   5.139  4.2339  0.3086  1.8452
 9355TIP3   OH249479   1.302   0.601   2.199  0.2991  0.0356  0.0644
 9355TIP3    H149480   1.394   0.582   2.218  0.6374  0.2649 -1.2851
 9355TIP3    H249481   1.303   0.633   2.109 -1.5149 -3.5307 -1.3462
 9356TIP3   OH249482   1.046   0.125  17.215  0.5356 -0.1837 -1.0210
 9356TIP3    H149483   1.107   0.198  17.203 -0.8428  0.5931 -3.7912
 9356TIP3    H249484   1.087   0.052  17.170  2.4869 -1.5489  2.7724
 9357TIP3   OH249485   0.418   1.313   1.645  0.8706  0.6972 -0.6641
 9357TIP3    H149486   0.513   1.327   1.635  0.8663  1.5273  0.2834
 9357TIP3    H249487   0.381   1.401   1.637  0.5162  0.8593  2.3233
 9358TIP3   OH249488   4.837   0.887   1.488 -0.1115  0.5906 -0.0188
 9358TIP3    H149489   4.796   0.973   1.477 -0.7974  0.1214 -1.2429
 9358TIP3    H249490   4.765   0.830   1.516  0.1307  0.1984 -0.1933
 9359TIP3   OH249491   4.101   3.683  15.786  0.3930  0.2708 -0.0774
 9359TIP3    H149492   4.020   3.704  15.738 -0.7539  1.1459  2.1462
 9359TIP3    H249493   4.119   3.762  15.837  1.5651 -0.6354  0.9278
 9360TIP3   OH249494   3.624   3.936  15.046 -0.4707  0.5731 -0.5663
 9360TIP3    H149495   3.680   4.012  15.060  1.1108 -0.5971 -0.4044
 9360TIP3    H249496   3.546   3.954  15.099  0.4730  1.4545  0.5687
 9361TIP3   OH249497   5.872   6.632  14.552  0.2230 -0.0202 -0.1969
 9361TIP3    H149498   5.849   6.668  14.638 -1.5781 -0.4384 -0.4832
 9361TIP3    H249499   5.791   6.635  14.503  0.9247 -1.0835 -1.4379
 9362TIP3   OH249500   6.738   4.095   2.801  0.0506  0.1199 -0.3285
 9362TIP3    H149501   6.823   4.123   2.837 -0.2987  0.4466  0.2540
 9362TIP3    H249502   6.691   4.060   2.877 -0.5955  0.5706 -0.5216
 9363TIP3   OH249503   3.809   4.835  15.812  0.4244  0.4458 -0.1298
 9363TIP3    H149504   3.859   4.915  15.795  0.0006  0.8371  0.4536
 9363TIP3    H249505   3.783   4.805  15.725  0.8276  0.7832 -0.3729
 9364TIP3   OH249506   2.890   2.853   1.251  0.6610 -0.0418  0.2565
 9364TIP3    H149507   2.940   2.889   1.324  0.4366 -0.4558  0.6197
 9364TIP3    H249508   2.895   2.920   1.183 -0.4231  1.0197  1.2112
 9365TIP3   OH249509   6.277   6.687   2.380 -0.2671 -0.8466 -0.0979
 9365TIP3    H149510   6.305   6.657   2.467 -0.1868 -1.1031 -0.2103
 9365TIP3    H249511   6.277   6.782   2.386  2.1241 -0.7968 -0.5587
 9366TIP3   OH249512   1.015   4.498  11.965  0.4085 -0.0911 -0.2926
 9366TIP3    H149513   1.040   4.453  12.045  0.6055 -0.1105 -0.3633
 9366TIP3    H249514   0.972   4.431  11.912  0.5657 -0.1608 -0.3351
 9367TIP3   OH249515   1.942   5.903   3.854  0.2197 -0.2468 -0.4691
 9367TIP3    H149516   1.952   5.925   3.761  2.7256  2.4966  0.3469
 9367TIP3    H249517   1.862   5.948   3.881  1.8072  2.6421 -0.3599
 9368TIP3   OH249518   6.438   0.780  14.771 -0.6412  0.3250  0.4164
 9368TIP3    H149519   6.463   0.868  14.802  1.3891 -0.6891  1.8104
 9368TIP3    H249520   6.387   0.743  14.843  2.1586 -1.1841  1.7429
 9369TIP3   OH249521   6.442   1.019  14.920 -0.1380 -0.1804  0.2733
 9369TIP3    H149522   6.513   1.064  14.875 -0.2110  1.3697  1.6731
 9369TIP3    H249523   6.481   0.989  15.003 -0.9007  0.0116  0.7074
 9370TIP3   OH249524   1.548   2.557  15.757 -0.0736  0.0554  0.5798
 9370TIP3    H149525   1.526   2.481  15.703 -1.3617  0.3517  0.6827
 9370TIP3    H249526   1.643   2.553  15.766  0.0448 -0.5715 -0.8608
 9371TIP3   OH249527   3.597   1.836   3.342  0.5178  1.0628  0.2454
 9371TIP3    H149528   3.657   1.818   3.415  1.9222  3.4634 -0.2685
 9371TIP3    H249529   3.515   1.860   3.385  0.0158 -1.6771  0.9569
 9372TIP3   OH249530   2.257   4.119  14.288  0.3952  0.4543  0.2013
 9372TIP3    H149531   2.195   4.190  14.268 -0.6242 -0.7217 -0.8917
 9372TIP3    H249532   2.242   4.100  14.380 -2.6998 -1.5113 -0.6401
 9373TIP3   OH249533   2.312   1.822  11.550 -0.2685  0.5309 -0.0913
 9373TIP3    H149534   2.217   1.812  11.559 -0.1609  1.3997  2.3046
 9373TIP3    H249535   2.349   1.749  11.599  0.3136  0.9568  0.1134
 9374TIP3   OH249536   0.354   5.632   5.574  0.1125 -0.6067 -0.2582
 9374TIP3    H149537   0.408   5.662   5.647 -2.3243  1.0393  0.9306
 9374TIP3    H249538   0.315   5.550   5.605  0.0989 -0.5777 -0.1978
 9375TIP3   OH249539   0.668   1.345  15.147 -0.1041 -0.2658  0.8657
 9375TIP3    H149540   0.661   1.397  15.227 -1.0243 -0.5127  0.9469
 9375TIP3    H249541   0.671   1.409  15.076 -1.3224 -0.0896  0.9601
 9376TIP3   OH249542   2.431   4.187  12.321  0.0151 -0.7496 -0.1531
 9376TIP3    H149543   2.391   4.109  12.283  0.9369 -0.6915 -1.2982
 9376TIP3    H249544   2.385   4.260  12.281 -0.4422 -0.6935  0.4648
 9377TIP3   OH249545   0.442   1.721  12.884  0.1057 -0.1039  0.5823
 9377TIP3    H149546   0.484   1.647  12.926 -1.4795 -1.6080 -0.3885
 9377TIP3    H249547   0.468   1.797  12.936  1.0186 -1.4561  2.1427
 9378TIP3   OH249548   2.427   4.983   2.399  0.3050 -0.9145  0.5979
 9378TIP3    H149549   2.344   4.992   2.352  0.9369  0.3946 -0.3031
 9378TIP3    H249550   2.408   4.921   2.469 -1.1579 -1.4523 -0.2402
 9379TIP3   OH249551   4.302   1.751  16.427 -0.5204  0.6172  0.1770
 9379TIP3    H149552   4.248   1.829  16.413  0.3048  1.1152 -0.2590
 9379TIP3    H249553   4.304   1.740  16.522 -0.9346  0.9180  0.2187
 9380TIP3   OH249554   0.303   4.392   5.863  0.5144 -0.3351  0.0498
 9380TIP3    H149555   0.296   4.434   5.949 -0.0186  3.8518 -1.9539
 9380TIP3    H249556   0.360   4.449   5.812 -0.4783 -1.8711 -2.8907
 9381TIP3   OH249557   4.820   4.861  16.963 -0.1424  0.1704 -0.1022
 9381TIP3    H149558   4.733   4.874  17.001  0.3061 -0.7027  1.2680
 9381TIP3    H249559   4.803   4.831  16.874 -1.2614 -0.9926  0.4842
 9382TIP3   OH249560   4.703   2.326   5.419  0.5400 -0.3074 -0.3575
 9382TIP3    H149561   4.770   2.265   5.449  0.3436 -0.2364  0.2433
 9382TIP3    H249562   4.710   2.325   5.324  2.5267  0.9791 -0.2526
 9383TIP3   OH249563   5.209   6.235   2.215  0.0276  0.3206 -0.1457
 9383TIP3    H149564   5.252   6.227   2.130 -0.3025  0.9500 -0.3827
 9383TIP3    H249565   5.125   6.191   2.204 -0.9787  2.3203 -0.8628
 9384TIP3   OH249566   5.925   4.759  15.327  0.3275  0.5381  0.2588
 9384TIP3    H149567   5.935   4.835  15.270 -0.7492  0.1131 -0.5171
 9384TIP3    H249568   5.901   4.796  15.412 -1.0480  1.0478 -0.3299
 9385TIP3   OH249569   5.049   4.232   6.124  0.2746  0.4808 -0.0276
 9385TIP3    H149570   4.960   4.200   6.139  0.9677 -0.1459  3.1132
 9385TIP3    H249571   5.079   4.184   6.046 -0.8259 -2.1304  1.0878
 9386TIP3   OH249572   1.964   4.892   1.227 -0.6280 -0.0417  0.2101
 9386TIP3    H149573   2.040   4.871   1.173 -1.3461  2.1898 -1.7499
 9386TIP3    H249574   2.000   4.911   1.313  1.1684  1.8382 -0.9089
 9387TIP3   OH249575   2.890   0.337   1.788 -0.2081  0.9751 -0.2005
 9387TIP3    H149576   2.903   0.271   1.720 -2.0359  0.0859  0.2695
 9387TIP3    H249577   2.954   0.405   1.767 -0.1398  0.3264 -2.3047
 9388TIP3   OH249578   3.010   1.530  12.748 -0.5147 -1.0052  0.0886
 9388TIP3    H149579   3.005   1.515  12.654 -0.2729  0.2183 -0.1196
 9388TIP3    H249580   3.090   1.485  12.776 -1.2708 -2.4627 -0.0698
 9389TIP3   OH249581   2.501   3.283   3.276  0.0857  0.3911  0.4422
 9389TIP3    H149582   2.414   3.297   3.239 -0.1573  0.1041  0.9115
 9389TIP3    H249583   2.524   3.366   3.317  0.1813  0.5778  0.0152
 9390TIP3   OH249584   5.698   4.833  16.470 -0.0157  0.1518  0.8692
 9390TIP3    H149585   5.669   4.882  16.393 -1.3751  0.7501  1.7488
 9390TIP3    H249586   5.643   4.755  16.470 -1.1641  0.9443  2.1383
 9391TIP3   OH249587   1.098   1.233   1.216 -0.0352 -0.3733 -0.6533
 9391TIP3    H149588   1.151   1.228   1.295  0.0428  2.2927 -0.4987
 9391TIP3    H249589   1.009   1.218   1.246  0.3102 -2.3171 -0.5332
 9392TIP3   OH249590   2.798   5.221  13.968  0.4059  0.7280  0.4993
 9392TIP3    H149591   2.734   5.226  13.898 -0.0360 -0.5024  0.7953
 9392TIP3    H249592   2.874   5.178  13.929  0.4124  0.6502  0.5955
 9393TIP3   OH249593   5.314   2.106   6.221  0.3778 -0.2179  0.6541
 9393TIP3    H149594   5.390   2.161   6.203 -1.1268  2.0789  1.0292
 9393TIP3    H249595   5.291   2.068   6.136  0.5273  0.9497  0.0800
 9394TIP3   OH249596   2.584   1.819   4.626 -1.0351  0.6397  0.1931
 9394TIP3    H149597   2.524   1.750   4.653 -0.8396  0.3258 -0.1674
 9394TIP3    H249598   2.643   1.830   4.700  0.2038 -1.0030 -0.5263
 9395TIP3   OH249599   0.692   1.497   0.288  0.3970 -0.0765 -0.2987
 9395TIP3    H149600   0.751   1.517   0.361  2.0532 -2.3070 -0.9485
 9395TIP3    H249601   0.750   1.490   0.213 -1.2630  1.9328 -1.8186
 9396TIP3   OH249602   6.665   5.141   0.230 -0.3358 -0.5986 -0.6868
 9396TIP3    H149603   6.691   5.132   0.138 -0.6479  0.2167 -0.8624
 9396TIP3    H249604   6.579   5.182   0.227  0.0160  0.2259 -0.0152
 9397TIP3   OH249605   0.761   4.576   5.393  0.3989 -0.0974  0.6545
 9397TIP3    H149606   0.809   4.533   5.323  1.8632  2.2584  0.1223
 9397TIP3    H249607   0.793   4.536   5.474 -1.8599 -3.3652  0.0215
 9398TIP3   OH249608   1.231   5.429  13.756 -0.0783 -0.2686  0.3595
 9398TIP3    H149609   1.191   5.354  13.800  0.3110 -0.4850  0.3448
 9398TIP3    H249610   1.157   5.484  13.729 -0.5010 -1.6585 -1.4446
 9399TIP3   OH249611   3.947   1.783  14.982 -0.4880  0.3532 -0.3314
 9399TIP3    H149612   3.868   1.827  15.014 -1.1581 -0.7382 -0.4620
 9399TIP3    H249613   3.935   1.778  14.887  0.5301  1.7149 -0.5353
 9400TIP3   OH249614   2.780   2.681  14.406  0.1436 -0.2145 -0.2616
 9400TIP3    H149615   2.782   2.705  14.314 -0.2634 -0.0008 -0.2162
 9400TIP3    H249616   2.697   2.716  14.438  0.3509 -0.1556  0.2205
 9401TIP3   OH249617   0.434   4.428   4.872  0.0042 -0.3146 -0.0694
 9401TIP3    H149618   0.520   4.469   4.873  0.1157 -0.5550  0.2431
 9401TIP3    H249619   0.375   4.493   4.910  0.0991 -0.2632 -0.0103
 9402TIP3   OH249620   5.063   5.381   3.732  0.0784 -0.0948 -0.2978
 9402TIP3    H149621   5.100   5.448   3.790  2.0260 -0.7574 -0.7319
 9402TIP3    H249622   4.989   5.346   3.781  0.7813  0.3891  1.1573
 9403TIP3   OH249623   5.096   0.716  13.832  0.0561 -0.2657  0.4416
 9403TIP3    H149624   5.073   0.694  13.922 -1.4412 -0.6197 -0.0271
 9403TIP3    H249625   5.013   0.726  13.787  0.7467  1.8671 -0.4502
 9404TIP3   OH249626   0.989   2.195   2.548  0.2752 -0.1366 -0.2309
 9404TIP3    H149627   0.896   2.206   2.571  0.6603  0.5783  1.0266
 9404TIP3    H249628   1.009   2.273   2.495  0.0930 -0.4148 -0.7085
 9405TIP3   OH249629   3.996   5.259  16.787 -0.1023 -0.8783 -0.0646
 9405TIP3    H149630   3.983   5.333  16.729 -2.0229 -0.3976  0.9378
 9405TIP3    H249631   4.047   5.196  16.735  0.5234  0.6250 -1.3120
 9406TIP3   OH249632   1.408   6.555   5.801  0.6900  0.0747  0.5355
 9406TIP3    H149633   1.482   6.605   5.834  2.1433 -0.0482 -2.4018
 9406TIP3    H249634   1.361   6.615   5.743 -0.3956 -0.4533  0.8466
 9407TIP3   OH249635   2.370   4.042  13.190  0.9059  0.3376 -0.3821
 9407TIP3    H149636   2.445   4.101  13.197  0.7783  0.4567  0.0038
 9407TIP3    H249637   2.302   4.095  13.147 -0.1008  1.3518  2.3572
 9408TIP3   OH249638   0.889   4.120  14.925 -0.4030 -0.2740 -0.4798
 9408TIP3    H149639   0.895   4.107  14.830  1.6841 -0.0059 -0.4078
 9408TIP3    H249640   0.895   4.032  14.961  1.9554 -0.1329 -0.4816
 9409TIP3   OH249641   4.125   6.227   2.529  0.1030 -0.1650 -0.2286
 9409TIP3    H149642   4.179   6.178   2.468  1.2649  1.7069 -0.7634
 9409TIP3    H249643   4.071   6.161   2.572  1.4596 -1.8553 -1.0516
 9410TIP3   OH249644   3.632   2.164   0.928 -0.2887  0.2458 -0.1868
 9410TIP3    H149645   3.674   2.194   1.008  1.6967 -2.7486 -0.0511
 9410TIP3    H249646   3.554   2.117   0.957  0.2769 -0.5904 -0.0048
 9411TIP3   OH249647   6.673   1.148  11.949 -0.3990 -0.1377  0.5306
 9411TIP3    H149648   6.583   1.116  11.943 -0.9197  1.3416  0.2749
 9411TIP3    H249649   6.725   1.082  11.903 -1.4926 -0.4394 -0.2964
 9412TIP3   OH249650   6.122   3.910  17.069 -0.2861 -0.3709  0.4204
 9412TIP3    H149651   6.081   3.905  16.983 -0.4410 -0.6472  0.5090
 9412TIP3    H249652   6.098   3.997  17.102 -2.6714 -1.3590  1.4039
 9413TIP3   OH249653   1.902   3.628   2.728 -0.1661 -0.8173 -0.3371
 9413TIP3    H149654   1.960   3.609   2.802  0.4733  0.4929 -0.4841
 9413TIP3    H249655   1.954   3.685   2.672 -1.1590 -0.6598 -1.0993
 9414TIP3   OH249656   4.395   5.975   4.084  0.2376  0.2902  0.2202
 9414TIP3    H149657   4.432   5.915   4.019 -0.3263 -0.0209  0.1789
 9414TIP3    H249658   4.470   6.021   4.120  0.8410 -1.3542  1.1635
 9415TIP3   OH249659   0.356   0.688  16.376  0.0763 -0.2166  0.4274
 9415TIP3    H149660   0.280   0.633  16.394 -0.3686  0.6487  1.2571
 9415TIP3    H249661   0.400   0.697  16.460 -0.1082  1.0441  0.4115
 9416TIP3   OH249662   4.210   4.201   3.714  0.0955  0.3694 -0.1441
 9416TIP3    H149663   4.257   4.202   3.631 -0.9397  3.3541 -0.7318
 9416TIP3    H249664   4.118   4.204   3.691 -0.2802 -0.8235  1.0969
 9417TIP3   OH249665   1.282   6.250  15.059 -0.1086 -0.0874  0.6469
 9417TIP3    H149666   1.235   6.297  14.990  1.1380 -0.7243 -0.6530
 9417TIP3    H249667   1.233   6.168  15.069  1.0406 -1.0070 -1.1141
 9418TIP3   OH249668   5.211   4.288  15.925  0.4469 -0.2066  0.1267
 9418TIP3    H149669   5.282   4.316  15.983  2.5188 -1.1982 -1.8591
 9418TIP3    H249670   5.214   4.349  15.852  0.1074 -1.0574 -0.6071
 9419TIP3   OH249671   1.665   0.275  14.687  0.1585 -0.0670  0.7425
 9419TIP3    H149672   1.743   0.289  14.633 -1.2824 -3.0524 -2.2861
 9419TIP3    H249673   1.691   0.207  14.750 -0.5415 -2.7926 -1.7767
 9420TIP3   OH249674   6.328   2.744  13.517  0.3535  0.2633  0.3483
 9420TIP3    H149675   6.233   2.750  13.523  0.3706  0.6364  0.2995
 9420TIP3    H249676   6.352   2.673  13.576 -0.0085 -0.2569 -0.1323
 9421TIP3   OH249677   4.275   3.238   2.531 -0.2477  0.6145 -0.1239
 9421TIP3    H149678   4.235   3.313   2.574  0.4550  0.7808  0.2401
 9421TIP3    H249679   4.335   3.275   2.467  1.1497  0.3815  1.0239
 9422TIP3   OH249680   4.521   2.020   1.408 -0.0923 -0.2544  0.2663
 9422TIP3    H149681   4.602   2.015   1.357 -1.0385  0.7709 -1.3907
 9422TIP3    H249682   4.468   1.947   1.375 -0.8482  0.6290 -0.5041
 9423TIP3   OH249683   5.612   1.432  15.159 -0.4836  0.2832 -0.3813
 9423TIP3    H149684   5.620   1.505  15.221  1.7698 -0.3319  0.0933
 9423TIP3    H249685   5.571   1.362  15.210  1.0555 -0.1089  0.3181
 9424TIP3   OH249686   0.161   2.069   3.321  0.0769  0.0868  0.4151
 9424TIP3    H149687   0.145   2.062   3.415  0.6556 -0.8829  0.4464
 9424TIP3    H249688   0.083   2.030   3.281  1.3744 -2.7705  0.5474
 9425TIP3   OH249689   4.342   1.829  11.007 -0.4104  0.4943 -0.1422
 9425TIP3    H149690   4.403   1.820  11.080 -0.0816  1.2577 -0.3156
 9425TIP3    H249691   4.398   1.841  10.931 -0.7358 -1.1130 -0.6478
 9426TIP3   OH249692   0.718   0.121   2.838 -0.7152 -0.1614  0.2528
 9426TIP3    H149693   0.628   0.151   2.845 -0.9034 -0.9264  1.1673
 9426TIP3    H249694   0.729   0.099   2.746 -1.0049  1.3354 -0.1588
 9427TIP3   OH249695   2.686   1.580  13.184  0.5898 -0.7745  0.4991
 9427TIP3    H149696   2.705   1.488  13.164  0.2709 -0.6339 -0.4588
 9427TIP3    H249697   2.613   1.602  13.126 -0.0001 -0.2022  1.4352
 9428TIP3   OH249698   2.751   3.346  12.933 -0.0700 -0.1280  0.4124
 9428TIP3    H149699   2.822   3.284  12.922 -0.9123 -0.6904 -2.0990
 9428TIP3    H249700   2.779   3.402  13.006  2.9178 -0.3492 -0.5013
 9429TIP3   OH249701   6.733   4.815  14.569 -0.5168 -0.5599  0.2914
 9429TIP3    H149702   6.684   4.742  14.533  0.8438 -1.3061 -0.0864
 9429TIP3    H249703   6.718   4.887  14.507 -1.2708 -0.7174  0.2874
 9430TIP3   OH249704   1.809   4.471  10.946 -0.5964 -0.5575 -0.0490
 9430TIP3    H149705   1.740   4.477  10.880  0.3630  0.6646 -0.9485
 9430TIP3    H249706   1.887   4.447  10.897  0.6139  2.4794  0.2906
 9431TIP3   OH249707   1.518   5.977   5.386 -0.1040  0.4787 -0.2523
 9431TIP3    H149708   1.612   5.964   5.394 -0.3614 -1.9383 -0.5645
 9431TIP3    H249709   1.502   5.982   5.292 -0.3167  0.4138 -0.2213
 9432TIP3   OH249710   4.884   4.350  12.025  0.2217 -0.1659  0.2674
 9432TIP3    H149711   4.812   4.318  11.972  2.3233 -3.5527 -0.6833
 9432TIP3    H249712   4.951   4.281  12.020  3.5849  2.8603  1.0126
 9433TIP3   OH249713   4.335   5.502  15.223  0.1790 -0.5955  0.4712
 9433TIP3    H149714   4.329   5.593  15.253  3.0442 -0.3057  0.2728
 9433TIP3    H249715   4.318   5.450  15.302  0.1921  0.1276  0.9583
 9434TIP3   OH249716   3.759   0.822   3.449 -0.3936 -0.6126 -0.3923
 9434TIP3    H149717   3.835   0.856   3.402  0.9271 -0.6152  1.6542
 9434TIP3    H249718   3.795   0.757   3.509 -1.8456  0.1085  1.3227
 9435TIP3   OH249719   4.475   2.806  16.101  0.0366 -0.5670  0.6211
 9435TIP3    H149720   4.545   2.868  16.084 -1.0814  0.2279 -1.1826
 9435TIP3    H249721   4.497   2.729  16.049 -0.2080 -0.4924  0.4099
 9436TIP3   OH249722   5.330   3.232   2.001  0.2508 -0.2557  0.1461
 9436TIP3    H149723   5.358   3.152   1.956 -2.7787 -0.8770 -0.7328
 9436TIP3    H249724   5.354   3.217   2.093 -2.3873 -3.2330  0.4281
 9437TIP3   OH249725   6.089   5.373  15.921 -0.2680  0.3085 -0.3389
 9437TIP3    H149726   6.182   5.394  15.913 -0.0337 -0.5038  0.2019
 9437TIP3    H249727   6.081   5.335  16.009 -1.1375  0.5282 -0.3207
 9438TIP3   OH249728   1.285   4.239   0.044 -0.1720  0.6940 -0.1593
 9438TIP3    H149729   1.361   4.289   0.072  0.9673 -1.2555  0.2526
 9438TIP3    H249730   1.280   4.255  -0.051  0.8579  0.6587 -0.2248
 9439TIP3   OH249731   1.100   0.597   5.385 -0.2021 -0.2732 -0.0909
 9439TIP3    H149732   1.079   0.685   5.356  0.0212 -0.4877 -0.9104
 9439TIP3    H249733   1.140   0.555   5.309  0.8260 -0.6905  0.6669
 9440TIP3   OH249734   1.823   5.352  11.233 -0.4312  0.0538 -0.4938
 9440TIP3    H149735   1.843   5.378  11.143  0.5003 -0.3703 -0.4118
 9440TIP3    H249736   1.799   5.433  11.276  2.0383  0.7410 -0.3518
 9441TIP3   OH249737   2.019   4.548   0.039 -0.4414  0.2442 -0.8155
 9441TIP3    H149738   2.099   4.599   0.053 -1.1013  0.9044  0.6384
 9441TIP3    H249739   2.048   4.457   0.038  0.0004  0.2867  2.5053
 9442TIP3   OH249740   4.182   3.269  15.655  0.5286  0.1691  0.0035
 9442TIP3    H149741   4.260   3.217  15.635  1.7142  0.7369  2.8710
 9442TIP3    H249742   4.185   3.281  15.750 -1.3233  2.9273 -0.2272
 9443TIP3   OH249743   3.304   3.406  16.638  0.2424  0.8171 -0.0168
 9443TIP3    H149744   3.370   3.385  16.705  0.0531  0.1235 -0.0386
 9443TIP3    H249745   3.335   3.488  16.600  0.7388  0.8492  0.4311
 9444TIP3   OH249746   6.277   1.947  13.909  0.5222 -0.0829  0.1595
 9444TIP3    H149747   6.268   2.017  13.974  0.5659 -0.4597  0.5679
 9444TIP3    H249748   6.353   1.973  13.857 -1.3721  1.8521 -1.7721
 9445TIP3   OH249749   0.863   3.117   4.460 -0.1159  0.2368  0.1754
 9445TIP3    H149750   0.827   3.176   4.526 -0.3514 -0.4231  0.6381
 9445TIP3    H249751   0.829   3.150   4.377  0.0728  0.9887  0.3972
 9446TIP3   OH249752   5.729   5.948   4.403 -0.6122  0.1857  0.1040
 9446TIP3    H149753   5.673   5.874   4.381 -0.0193 -0.2475  0.0429
 9446TIP3    H249754   5.669   6.015   4.435 -1.1906 -0.1691 -0.2431
 9447TIP3   OH249755   6.403   2.610  13.292 -0.4530  0.5105  0.7062
 9447TIP3    H149756   6.390   2.658  13.374 -0.7197  0.2397  0.8274
 9447TIP3    H249757   6.316   2.611  13.251 -0.4305  0.2371  0.6549
 9448TIP3   OH249758   2.334   2.615  15.879 -0.2636 -0.0085 -0.0721
 9448TIP3    H149759   2.259   2.672  15.894  0.4282  1.1123 -0.7758
 9448TIP3    H249760   2.404   2.653  15.933  1.0655  1.6280 -2.8491
 9449TIP3   OH249761   0.897   5.896  14.671  0.0651  0.2975  0.1519
 9449TIP3    H149762   0.866   5.875  14.583  1.5448 -0.0997 -0.2805
 9449TIP3    H249763   0.893   5.813  14.718 -0.1880  0.3955  0.3095
 9450TIP3   OH249764   6.237   6.053   3.232  0.2284 -0.0064 -0.2566
 9450TIP3    H149765   6.148   6.076   3.258  0.5549  1.6793 -0.5149
 9450TIP3    H249766   6.226   5.988   3.163 -0.7265 -1.6418  1.4129
 9451TIP3   OH249767   2.560   2.154  15.875  0.4816 -0.2788 -0.0134
 9451TIP3    H149768   2.646   2.169  15.836  0.0718  0.2780 -0.6952
 9451TIP3    H249769   2.577   2.090  15.944  1.5158  0.1403  0.1326
 9452TIP3   OH249770   4.707   1.609   2.783  0.4542 -0.0250  0.1203
 9452TIP3    H149771   4.770   1.586   2.851 -0.5045  0.5589  1.2249
 9452TIP3    H249772   4.672   1.694   2.810 -1.4336 -0.7411 -0.0046
 9453TIP3   OH249773   4.480   2.335   5.618  0.0252  0.1518 -0.0454
 9453TIP3    H149774   4.451   2.350   5.708  0.2125  3.2872 -0.4411
 9453TIP3    H249775   4.559   2.282   5.627  1.0864  1.9547  1.7776
 9454TIP3   OH249776   4.660   0.579  15.571  0.0640  0.4909  0.3957
 9454TIP3    H149777   4.708   0.521  15.630  1.5890  0.4100 -0.8725
 9454TIP3    H249778   4.725   0.603  15.505 -0.8501  2.8134  0.3246
 9455TIP3   OH249779   3.283   0.929  16.792 -0.1081 -0.0176  0.3928
 9455TIP3    H149780   3.284   0.833  16.799  0.8636  0.0927  2.0345
 9455TIP3    H249781   3.219   0.947  16.724  0.0562 -1.8606 -0.2861
 9456TIP3   OH249782   0.469   3.988  14.509 -0.2516  0.7059 -0.0335
 9456TIP3    H149783   0.518   3.937  14.574  0.3881  1.8285  0.3730
 9456TIP3    H249784   0.393   4.021  14.557  0.5272  2.0226  0.3056
 9457TIP3   OH249785   3.874   1.156   0.848 -0.7610 -0.1704 -0.4304
 9457TIP3    H149786   3.857   1.088   0.913  0.2569  2.0466  2.2292
 9457TIP3    H249787   3.811   1.225   0.867  1.6767  1.9208  0.3797
 9458TIP3   OH249788   4.992   5.405   0.902 -0.5739  0.0805  0.1358
 9458TIP3    H149789   4.949   5.428   0.985 -0.0365  0.9861  0.1617
 9458TIP3    H249790   4.963   5.315   0.885  0.6508 -0.7500  2.1876
 9459TIP3   OH249791   4.599   1.656  16.791 -0.4812 -0.1681 -0.1947
 9459TIP3    H149792   4.542   1.730  16.766  0.4404  1.0205  1.1474
 9459TIP3    H249793   4.614   1.610  16.709 -1.7253  0.6786 -0.9291
 9460TIP3   OH249794   3.524   5.464   3.399  0.4592 -0.3513 -0.7640
 9460TIP3    H149795   3.475   5.383   3.414 -0.9652  0.8294  1.2011
 9460TIP3    H249796   3.468   5.533   3.435  1.2000  1.6472 -3.2863
 9461TIP3   OH249797   4.672   6.043   4.086 -0.6721 -0.2694 -0.5116
 9461TIP3    H149798   4.746   6.048   4.146 -0.2427 -2.6071 -0.7854
 9461TIP3    H249799   4.706   5.993   4.011 -2.3489 -0.8715 -0.8892
 9462TIP3   OH249800   4.210   0.716   0.293 -0.2254 -0.5249  0.3902
 9462TIP3    H149801   4.125   0.678   0.272 -0.2638  0.2384 -0.8631
 9462TIP3    H249802   4.190   0.781   0.361 -0.9968  1.2023 -1.4273
 9463TIP3   OH249803   0.337   3.958   1.196 -0.5231  0.7034  0.4739
 9463TIP3    H149804   0.414   3.959   1.139  0.1159  0.0925  1.3189
 9463TIP3    H249805   0.271   3.910   1.146 -0.0054  0.2772  0.1938
 9464TIP3   OH249806   2.823   1.337   6.185  0.2216  0.1903  0.3334
 9464TIP3    H149807   2.739   1.330   6.230  0.1674 -1.8411 -0.0169
 9464TIP3    H249808   2.836   1.430   6.172 -1.4853  0.5888  1.3281
 9465TIP3   OH249809   0.154   0.594   3.154  0.4844  0.1879 -0.0454
 9465TIP3    H149810   0.162   0.562   3.064 -0.2163  1.4145 -0.5619
 9465TIP3    H249811   0.228   0.655   3.164  1.0142 -0.5246  0.4780
 9466TIP3   OH249812   4.921   0.108   4.571  0.2963  0.1730  0.8540
 9466TIP3    H149813   4.957   0.183   4.523 -3.0816  0.7008 -1.0144
 9466TIP3    H249814   4.850   0.076   4.515  0.6122 -3.4431  2.3887
 9467TIP3   OH249815   0.360   2.263  12.218 -0.0103  0.2915 -0.3203
 9467TIP3    H149816   0.425   2.212  12.170 -0.3895  1.2255 -1.8673
 9467TIP3    H249817   0.278   2.246  12.171 -0.3459  1.4145 -0.1448
 9468TIP3   OH249818   1.347   0.524   6.217  0.2887  0.3030  0.0170
 9468TIP3    H149819   1.267   0.479   6.190 -0.0943  1.1988 -0.3415
 9468TIP3    H249820   1.326   0.562   6.303  0.2003  0.8693 -0.2546
 9469TIP3   OH249821   1.565   3.736  12.349  0.3128 -0.6595 -0.7298
 9469TIP3    H149822   1.634   3.711  12.412  0.3508  1.3333  0.0483
 9469TIP3    H249823   1.483   3.723  12.397  0.3495  1.0407 -0.1750
 9470TIP3   OH249824   0.167   0.805   2.150  0.0536  0.2101  0.7143
 9470TIP3    H149825   0.172   0.845   2.063 -1.1773 -1.1028  0.0097
 9470TIP3    H249826   0.077   0.771   2.155  0.9569 -2.1654  1.3938
 9471TIP3   OH249827   1.453   5.256  11.220  0.1682 -0.5909 -0.2245
 9471TIP3    H149828   1.466   5.321  11.288 -0.5511  0.4371 -1.0578
 9471TIP3    H249829   1.540   5.218  11.206  0.6822  0.5174 -0.0716
 9472TIP3   OH249830   2.603   3.184  14.102 -0.2348  0.3459  0.1917
 9472TIP3    H149831   2.553   3.109  14.069  1.6437 -0.5667 -0.6697
 9472TIP3    H249832   2.545   3.258  14.091 -1.7714 -0.8406  0.1342
 9473TIP3   OH249833   3.456   4.759  15.075  0.1784 -0.2762  0.0868
 9473TIP3    H149834   3.441   4.667  15.094 -0.3256 -0.6960 -2.2609
 9473TIP3    H249835   3.428   4.770  14.985  1.6913  1.8414 -0.1586
 9474TIP3   OH249836   4.826   6.296   0.180 -0.0050 -0.8250  0.1985
 9474TIP3    H149837   4.873   6.302   0.263 -2.4815 -1.9489  1.7223
 9474TIP3    H249838   4.787   6.209   0.181 -1.2273 -0.3101 -1.5074
 9475TIP3   OH249839   1.269   1.457  14.911  0.2130  0.4007 -0.1121
 9475TIP3    H149840   1.197   1.494  14.962  0.3280  0.9893 -0.3686
 9475TIP3    H249841   1.245   1.473  14.819  0.6153  0.5016 -0.2026
 9476TIP3   OH249842   4.547   4.910  11.492  0.3364 -0.0219 -0.1187
 9476TIP3    H149843   4.493   4.951  11.560 -0.9404 -0.1923 -1.0254
 9476TIP3    H249844   4.484   4.873  11.431  1.4926 -0.7602 -0.8641
 9477TIP3   OH249845   5.073   0.462   2.827  0.3834 -1.0656  0.1352
 9477TIP3    H149846   5.113   0.375   2.813 -0.7334 -1.6086  0.2744
 9477TIP3    H249847   5.027   0.454   2.910  1.0055 -0.0530  0.5869
 9478TIP3   OH249848   4.083   2.165   0.380  0.3268 -0.6344 -0.5503
 9478TIP3    H149849   4.063   2.081   0.338  1.8941 -1.6087  0.6288
 9478TIP3    H249850   4.173   2.184   0.354  0.0708  0.5704 -0.5987
 9479TIP3   OH249851   1.766   6.364   0.302 -0.1046 -0.3844  0.2601
 9479TIP3    H149852   1.818   6.402   0.231 -0.2600  0.1320  0.4246
 9479TIP3    H249853   1.772   6.269   0.287  0.7594 -0.3232  0.1917
 9480TIP3   OH249854   0.069   1.581   0.435 -0.2739  0.0355  0.2419
 9480TIP3    H149855   0.121   1.546   0.507 -1.8510 -0.3373  1.2370
 9480TIP3    H249856   0.022   1.505   0.400  0.8763  0.1214 -1.5341
 9481TIP3   OH249857   2.791   3.191  16.607 -0.3508 -0.2318 -0.0657
 9481TIP3    H149858   2.754   3.113  16.648  1.4319 -0.7596  0.5812
 9481TIP3    H249859   2.859   3.220  16.667  0.9246  0.1807 -1.6679
 9482TIP3   OH249860   4.716   4.204   0.226  0.1359 -0.0927  0.0683
 9482TIP3    H149861   4.780   4.140   0.196 -1.4663 -1.7940  0.2065
 9482TIP3    H249862   4.751   4.289   0.197  2.5069 -0.9752  0.3107
 9483TIP3   OH249863   6.132   0.292  11.069 -0.2146 -0.0663  0.3433
 9483TIP3    H149864   6.065   0.304  11.003 -1.3183 -1.1669  1.2368
 9483TIP3    H249865   6.094   0.230  11.132  2.2548 -2.0816 -0.0361
 9484TIP3   OH249866   2.395   6.235   2.857 -0.0923 -0.2374  0.0727
 9484TIP3    H149867   2.441   6.151   2.858 -0.0902 -0.2364  0.2242
 9484TIP3    H249868   2.384   6.257   2.765 -0.7412 -0.7567  0.0238
 9485TIP3   OH249869   5.168   5.329  15.155 -0.2834  0.0445  0.1539
 9485TIP3    H149870   5.235   5.304  15.091 -2.2034 -2.0428 -1.0899
 9485TIP3    H249871   5.148   5.248  15.202 -0.6054  1.0584  1.8111
 9486TIP3   OH249872   6.076   2.848  13.546 -0.1837  0.2988  0.2230
 9486TIP3    H149873   6.021   2.808  13.613 -1.6837 -1.3093 -1.9007
 9486TIP3    H249874   6.016   2.901  13.494  0.9127  1.3178 -0.0243
 9487TIP3   OH249875   1.051   3.432   0.395  0.2090  0.1638  0.0910
 9487TIP3    H149876   1.143   3.415   0.412 -0.5865 -1.5069  3.0934
 9487TIP3    H249877   1.024   3.364   0.333  1.3358  1.6623 -2.1079
 9488TIP3   OH249878   4.855   6.296  16.637 -0.0680  0.2853  0.0864
 9488TIP3    H149879   4.899   6.235  16.576  0.4603  0.4416  0.3101
 9488TIP3    H249880   4.910   6.295  16.715 -0.4878  0.4561  0.3859
 9489TIP3   OH249881   1.305   1.086   6.180 -0.2527  0.0139  0.0192
 9489TIP3    H149882   1.356   1.135   6.114  0.1662  0.1912  0.4708
 9489TIP3    H249883   1.268   1.013   6.131  2.2144 -1.3492  0.0960
 9490TIP3   OH249884   5.221   0.730  15.217  0.4023  0.0480  0.0203
 9490TIP3    H149885   5.285   0.693  15.277 -0.8253  1.4269  2.2750
 9490TIP3    H249886   5.231   0.825  15.227  0.0320  0.3010 -1.8280
 9491TIP3   OH249887   1.899   2.761  12.043  0.1611  0.1689  0.6371
 9491TIP3    H149888   1.965   2.725  12.102 -1.2122 -1.1523  1.3826
 9491TIP3    H249889   1.848   2.821  12.097 -0.9249 -0.8355  0.7384
 9492TIP3   OH249890   5.113   3.668   6.664 -0.0748  0.0137 -0.0061
 9492TIP3    H149891   5.111   3.575   6.682  1.8805  0.2449  1.6073
 9492TIP3    H249892   5.204   3.687   6.643 -0.3314  1.6681  0.2593
 9493TIP3   OH249893   2.472   6.593  15.537 -0.6998 -0.3006  0.9789
 9493TIP3    H149894   2.492   6.666  15.596 -0.8802  0.7034 -0.1917
 9493TIP3    H249895   2.377   6.591  15.531 -0.6243  0.8225 -0.7872
 9494TIP3   OH249896   1.967   5.069   2.078 -0.8178 -0.0713 -0.0547
 9494TIP3    H149897   1.981   4.993   2.135  1.5526  0.7052  0.4336
 9494TIP3    H249898   1.978   5.144   2.136 -2.5676  0.6933 -0.6687
 9495TIP3   OH249899   5.359   4.057  13.480  0.7570 -0.3479 -0.3425
 9495TIP3    H149900   5.406   4.060  13.564  0.6044 -0.1697 -0.2647
 9495TIP3    H249901   5.339   3.964  13.468 -0.8189 -0.1546  0.6957
 9496TIP3   OH249902   0.816   6.379  10.764  0.2872 -0.2216  1.1278
 9496TIP3    H149903   0.768   6.320  10.706 -0.9597  1.6104  0.2303
 9496TIP3    H249904   0.756   6.394  10.838  0.5999 -0.0980  1.3583
 9497TIP3   OH249905   2.392   1.384   1.962 -0.3110 -0.3892  0.0572
 9497TIP3    H149906   2.419   1.303   2.005 -0.5651 -0.4786  0.0533
 9497TIP3    H249907   2.405   1.367   1.869  2.4029  0.6216  0.2293
 9498TIP3   OH249908   5.785   0.870   2.299  0.0603  0.0112  0.1547
 9498TIP3    H149909   5.785   0.831   2.386  0.7543 -3.1226 -1.1874
 9498TIP3    H249910   5.693   0.888   2.280 -0.6227 -3.4650 -0.1940
 9499TIP3   OH249911   0.484   0.473   3.150 -0.4775 -0.7310 -0.2624
 9499TIP3    H149912   0.459   0.565   3.157  2.6806  0.0581  2.2618
 9499TIP3    H249913   0.520   0.464   3.062 -0.1315  0.6392 -0.2697
 9500TIP3   OH249914   1.516   6.471   5.258  0.5475  0.2015 -0.1359
 9500TIP3    H149915   1.561   6.388   5.269  0.2155  0.1027  0.5115
 9500TIP3    H249916   1.535   6.520   5.338  0.0178  0.3996 -0.1229
 9501TIP3   OH249917   4.424   0.059   4.052  0.2377  0.0913  0.3993
 9501TIP3    H149918   4.440  -0.017   4.108  3.0725 -0.6041 -1.2688
 9501TIP3    H249919   4.430   0.026   3.963 -0.8985  1.8346 -0.3538
 9502TIP3   OH249920   0.606   0.782   5.158 -0.0045 -0.2613 -0.4211
 9502TIP3    H149921   0.591   0.689   5.141  1.2911 -0.6006  0.2488
 9502TIP3    H249922   0.519   0.817   5.179 -0.5358 -1.2545 -0.9290
 9503TIP3   OH249923   4.074   0.501   3.850  0.2234  0.0237 -0.5827
 9503TIP3    H149924   4.161   0.512   3.888 -0.6313  1.3682  1.0719
 9503TIP3    H249925   4.020   0.567   3.894 -2.0706 -2.0413 -0.1750
 9504TIP3   OH249926   0.475   2.896  15.818  0.6433 -0.4837 -0.5567
 9504TIP3    H149927   0.411   2.826  15.803  0.7109 -0.6093 -0.2551
 9504TIP3    H249928   0.494   2.892  15.912  1.1843 -0.5246 -0.6646
 9505TIP3   OH249929   3.523   0.441   3.468  0.5442 -0.0017 -0.4768
 9505TIP3    H149930   3.551   0.391   3.545 -0.0360  0.2429 -0.0963
 9505TIP3    H249931   3.461   0.505   3.503  0.0423 -0.0834 -1.1888
 9506TIP3   OH249932   3.779   0.908  15.711 -0.0747  0.6732 -0.0283
 9506TIP3    H149933   3.684   0.920  15.706 -0.1790 -0.4418 -1.0412
 9506TIP3    H249934   3.791   0.813  15.704  1.1268  0.8167 -0.0171
 9507TIP3   OH249935   5.579   4.376  13.715  0.1574 -0.0700  0.5452
 9507TIP3    H149936   5.558   4.315  13.645 -0.5804 -0.6566  1.2713
 9507TIP3    H249937   5.571   4.325  13.795  2.7854  0.1189  0.9709
 9508TIP3   OH249938   6.701   5.635  14.742  0.1409  0.2455  0.1747
 9508TIP3    H149939   6.648   5.714  14.733  1.3300  0.8926 -1.1486
 9508TIP3    H249940   6.654   5.569  14.692 -0.3980  0.3310  0.5636
 9509TIP3   OH249941   2.738   2.604   4.165 -0.0335  0.3775 -0.2175
 9509TIP3    H149942   2.774   2.515   4.166 -0.5994  0.1109  2.4466
 9509TIP3    H249943   2.764   2.641   4.250 -1.9559  1.8475 -0.2216
 9510TIP3   OH249944   0.460   6.186  13.105 -0.0973  0.0425 -0.0830
 9510TIP3    H149945   0.531   6.190  13.041  0.8831 -0.6202  0.9666
 9510TIP3    H249946   0.405   6.262  13.084  0.3550 -0.0232 -1.5418
 9511TIP3   OH249947   0.287   1.397  13.271  0.1205  0.1785  0.4638
 9511TIP3    H149948   0.359   1.419  13.332  1.0454 -0.1877 -0.4863
 9511TIP3    H249949   0.319   1.320  13.224  0.2301  1.6114 -1.8548
 9512TIP3   OH249950   2.576   5.696  13.598 -0.1554  0.7750  0.4035
 9512TIP3    H149951   2.571   5.789  13.620 -0.0737  0.5885  1.2104
 9512TIP3    H249952   2.506   5.683  13.534 -0.2413  1.3696  0.3725
 9513TIP3   OH249953   2.125   1.373  10.839  0.0727  0.2245  0.5039
 9513TIP3    H149954   2.137   1.439  10.907  1.4804  0.1318  0.3493
 9513TIP3    H249955   2.157   1.415  10.759  1.7919 -0.9276  0.5559
 9514TIP3   OH249956   3.462   0.964   6.494  0.0563 -0.2421 -0.1749
 9514TIP3    H149957   3.439   0.992   6.406  0.3406 -0.6695 -0.3874
 9514TIP3    H249958   3.519   1.033   6.528  0.6479 -0.4962 -0.6452
 9515TIP3   OH249959   0.552   3.158  13.568  0.4599 -0.0408  0.5858
 9515TIP3    H149960   0.523   3.216  13.497  0.1213 -1.6165 -0.6019
 9515TIP3    H249961   0.491   3.176  13.640 -1.5183 -1.0340 -0.7945
 9516TIP3   OH249962   4.583   4.652  16.784 -0.1385 -0.3234 -0.4776
 9516TIP3    H149963   4.548   4.579  16.734  0.2015 -0.9180  0.1461
 9516TIP3    H249964   4.619   4.711  16.718 -2.2599  0.2981 -1.1325
 9517TIP3   OH249965   3.612   2.492  13.563  0.6325 -0.1958 -0.1402
 9517TIP3    H149966   3.587   2.425  13.500 -2.2609  0.8786 -0.2234
 9517TIP3    H249967   3.707   2.483  13.572  0.5143 -3.1508 -1.4127
 9518TIP3   OH249968   1.494   5.276   0.805 -0.3379  1.3419 -0.3327
 9518TIP3    H149969   1.410   5.290   0.761 -0.5504  0.3895 -0.2477
 9518TIP3    H249970   1.516   5.184   0.785  0.0998  1.2351  0.6370
 9519TIP3   OH249971   3.136   5.206   3.386 -0.2975 -0.2519 -0.5825
 9519TIP3    H149972   3.124   5.163   3.301 -3.3006 -0.9500  0.1509
 9519TIP3    H249973   3.065   5.172   3.441  1.8048 -0.1242  2.3610
 9520TIP3   OH249974   3.699   5.588   4.673  0.1344  0.3744 -0.2747
 9520TIP3    H149975   3.675   5.572   4.764  1.9108 -2.5359 -0.2747
 9520TIP3    H249976   3.748   5.670   4.675 -0.5487  0.7598  1.2592
 9521TIP3   OH249977   4.772   4.074   3.025 -0.3556  0.6232  0.1761
 9521TIP3    H149978   4.817   3.991   3.044  0.3124  0.4848 -1.8906
 9521TIP3    H249979   4.838   4.127   2.980 -0.8475  2.2188  1.3058
 9522TIP3   OH249980   1.989   1.325   4.318  0.1327 -0.2344 -0.9828
 9522TIP3    H149981   2.013   1.351   4.229  2.3686  0.2615 -0.2511
 9522TIP3    H249982   1.903   1.365   4.332  0.8234  1.6948 -2.0606
 9523TIP3   OH249983   4.850   1.362  16.356 -0.3037  0.1580  0.6042
 9523TIP3    H149984   4.936   1.345  16.392 -0.6624 -2.0005  0.4965
 9523TIP3    H249985   4.851   1.455  16.334  1.3945  0.5257  2.1596
 9524TIP3   OH249986   4.341   6.181   1.872 -0.0163  0.6242 -0.3035
 9524TIP3    H149987   4.274   6.196   1.939  0.1376 -1.2552  0.2912
 9524TIP3    H249988   4.411   6.135   1.919  0.9739  1.0811 -1.3071
 9525TIP3   OH249989   6.239   5.348   2.512  0.8677 -0.0559 -0.1101
 9525TIP3    H149990   6.181   5.279   2.545  0.1107 -0.6417 -2.5249
 9525TIP3    H249991   6.219   5.424   2.566 -0.4191 -0.9220  0.6769
 9526TIP3   OH249992   2.378   6.193   6.190 -0.4473 -0.1944  0.6025
 9526TIP3    H149993   2.403   6.257   6.257  1.4932  0.8180 -1.0362
 9526TIP3    H249994   2.461   6.158   6.158 -1.3507 -0.5299 -1.4146
 9527TIP3   OH249995   3.108   4.435   1.469 -0.1983 -0.1151 -0.0752
 9527TIP3    H149996   3.149   4.521   1.482 -0.3388  0.1161 -1.1275
 9527TIP3    H249997   3.018   4.447   1.498 -0.6211  0.5098 -1.6226
 9528TIP3   OH249998   1.990   1.590   1.561  0.5575 -0.1592  0.1089
 9528TIP3    H149999   1.959   1.592   1.651 -1.0511 -0.9552 -0.4076
 9528TIP3    H250000   1.960   1.506   1.527  1.7978 -0.1874 -0.9485
 9529TIP3   OH250001   1.849   2.286   6.156 -0.4597  0.5574  0.0809
 9529TIP3    H150002   1.926   2.294   6.101 -1.3615 -2.1153 -1.6608
 9529TIP3    H250003   1.817   2.376   6.166  2.6012  1.6568  0.5279
 9530TIP3   OH250004   4.707   0.318   4.596  0.7162  0.2793  0.0253
 9530TIP3    H150005   4.691   0.292   4.505  2.1421 -1.1917  0.1749
 9530TIP3    H250006   4.668   0.249   4.649 -0.9278  1.6056  0.5711
 9531TIP3   OH250007   2.447   3.004   5.534  0.4333  0.0105 -0.6960
 9531TIP3    H150008   2.386   3.074   5.511 -1.3528 -1.7367 -1.4453
 9531TIP3    H250009   2.391   2.935   5.572  2.1752 -0.9083  0.2806
 9532TIP3   OH250010   6.040   2.395  14.703  0.1062  0.4408  0.0385
 9532TIP3    H150011   6.101   2.442  14.760 -0.0125  0.2455  0.3238
 9532TIP3    H250012   6.091   2.321  14.670  0.0802  0.3868  0.1227
 9533TIP3   OH250013   2.110   4.020  15.451  0.5120  0.7043  0.1410
 9533TIP3    H150014   2.195   3.983  15.479  0.8131  1.3926  0.1506
 9533TIP3    H250015   2.121   4.114  15.463  0.0146  0.8543 -0.6287
 9534TIP3   OH250016   6.691   1.001  15.559  0.0560 -1.0891  0.0842
 9534TIP3    H150017   6.662   0.911  15.544  0.5398 -0.9324 -1.9091
 9534TIP3    H250018   6.759   0.993  15.626  1.2832 -2.4158 -1.2742
 9535TIP3   OH250019   0.860   2.256  14.598 -0.7347 -0.0789  0.6489
 9535TIP3    H150020   0.863   2.320  14.526 -0.3242  0.3348  1.0298
 9535TIP3    H250021   0.784   2.202  14.578 -0.6298  0.0362 -0.0975
 9536TIP3   OH250022   5.856   0.123   3.899  0.0273  0.0575  0.2560
 9536TIP3    H150023   5.876   0.045   3.847 -1.2843 -0.6489  0.7767
 9536TIP3    H250024   5.854   0.091   3.989 -1.3944  0.5154  0.3907
 9537TIP3   OH250025   0.274   0.440   5.362 -0.4720 -0.0182  0.2394
 9537TIP3    H150026   0.216   0.386   5.416 -2.7973  1.6428 -0.4971
 9537TIP3    H250027   0.298   0.513   5.419  1.3322 -0.9607  0.7051
 9538TIP3   OH250028   1.079   3.049  14.294  0.0356 -0.3940 -0.2214
 9538TIP3    H150029   0.988   3.032  14.319  1.3710 -2.7684  3.3413
 9538TIP3    H250030   1.090   3.143  14.305 -1.4501 -0.3731  1.3123
 9539TIP3   OH250031   2.568   6.663  12.292 -0.4556  0.0098  0.2892
 9539TIP3    H150032   2.589   6.650  12.200  1.6913 -2.0342  1.0290
 9539TIP3    H250033   2.641   6.714  12.326 -0.9631  0.2757  0.9870
 9540TIP3   OH250034   1.552   4.279   0.863 -0.2703  0.1584 -0.5505
 9540TIP3    H150035   1.611   4.354   0.873 -1.0073  0.6107  0.5350
 9540TIP3    H250036   1.569   4.247   0.775  2.5784 -0.5644  0.2092
 9541TIP3   OH250037   5.332   2.021  11.148  0.0978 -0.2799  0.4343
 9541TIP3    H150038   5.398   2.089  11.158  1.0036 -1.4657  3.1390
 9541TIP3    H250039   5.260   2.063  11.102  1.2312  2.0801  0.7442
 9542TIP3   OH250040   0.248   5.996  16.215  0.0543  0.4564  1.0876
 9542TIP3    H150041   0.321   6.052  16.190 -0.0571 -0.1061 -0.5717
 9542TIP3    H250042   0.270   5.910  16.179 -3.1134  1.1196 -2.7967
 9543TIP3   OH250043   2.300   3.374   3.959 -0.5234 -0.8416 -0.0101
 9543TIP3    H150044   2.361   3.387   4.032 -0.0398 -0.6285 -0.4563
 9543TIP3    H250045   2.353   3.386   3.880 -1.2215 -0.2776 -0.4006
 9544TIP3   OH250046   2.640   2.019   1.132 -0.2235  0.3115 -0.7211
 9544TIP3    H150047   2.719   2.050   1.088 -0.4817 -1.6983 -2.6783
 9544TIP3    H250048   2.648   2.051   1.222  2.5813  0.5200 -1.0237
 9545TIP3   OH250049   5.695   0.932   6.034 -0.4537  0.0759  0.1206
 9545TIP3    H150050   5.683   1.013   6.084 -0.0571  0.0511  0.2548
 9545TIP3    H250051   5.651   0.865   6.087 -0.8078  0.2066 -0.0044
 9546TIP3   OH250052   6.623   2.538  15.934 -0.4392  0.0969  0.3949
 9546TIP3    H150053   6.601   2.445  15.929  1.6335 -0.4957  1.9176
 9546TIP3    H250054   6.693   2.550  15.869 -2.0864  1.0688 -1.2760
 9547TIP3   OH250055   1.535   0.584  11.244  0.1589  0.4615  0.1914
 9547TIP3    H150056   1.520   0.670  11.284  3.4689  0.5309  1.4179
 9547TIP3    H250057   1.565   0.604  11.155 -0.6879  0.5122 -0.0856
 9548TIP3   OH250058   4.264   0.526   6.491 -0.2131  0.1143 -0.1959
 9548TIP3    H150059   4.231   0.587   6.424 -0.4970  0.4728  0.2722
 9548TIP3    H250060   4.350   0.562   6.515  0.3563 -0.6045 -1.1353
 9549TIP3   OH250061   0.882   1.048   4.045 -0.1115  0.6491  0.1107
 9549TIP3    H150062   0.947   0.989   4.007  0.0012  1.0863 -0.3820
 9549TIP3    H250063   0.885   1.030   4.139  2.0685  1.9831  0.3246
 9550TIP3   OH250064   2.317   5.988   5.401 -0.2249  0.0037  0.4505
 9550TIP3    H150065   2.344   6.040   5.477 -1.7465 -0.0234  1.0254
 9550TIP3    H250066   2.344   6.041   5.326 -0.7226  1.1029  1.0263
 9551TIP3   OH250067   2.482   0.886   5.402 -0.1211  0.6099  0.0722
 9551TIP3    H150068   2.524   0.881   5.487  1.0980 -0.0287 -0.5431
 9551TIP3    H250069   2.546   0.932   5.346 -0.4317  0.0707 -0.7443
 9552TIP3   OH250070   3.789   4.161  15.032  0.1322  0.1317  0.5032
 9552TIP3    H150071   3.825   4.125  14.951 -0.8564  0.1816  0.0442
 9552TIP3    H250072   3.770   4.253  15.012 -0.9691 -0.0931  0.5184
 9553TIP3   OH250073   0.505   3.300  14.947 -0.5718 -0.0472 -0.7504
 9553TIP3    H150074   0.496   3.260  15.034 -1.6439 -1.6987 -1.5869
 9553TIP3    H250075   0.554   3.236  14.896  1.2832  1.5339 -0.9946
 9554TIP3   OH250076   1.439   5.846   0.560  0.1806 -0.5916  0.2202
 9554TIP3    H150077   1.486   5.924   0.590  1.9396 -1.8055  0.6898
 9554TIP3    H250078   1.421   5.796   0.639 -1.0861 -0.5860 -0.0593
 9555TIP3   OH250079   5.773   4.145   5.410  0.5958 -0.3001  0.0139
 9555TIP3    H150080   5.800   4.189   5.491  1.5307 -0.0745 -0.4152
 9555TIP3    H250081   5.693   4.098   5.434  1.8409 -1.7003  1.5513
 9556TIP3   OH250082   6.242   6.405   2.382  0.2645  0.3931  0.1940
 9556TIP3    H150083   6.225   6.498   2.366  1.6450  0.3321 -1.8601
 9556TIP3    H250084   6.156   6.367   2.398 -0.6573  1.4997 -1.9683
 9557TIP3   OH250085   1.184   1.386   3.096  0.2215 -0.2221  0.3084
 9557TIP3    H150086   1.116   1.431   3.046  0.5390 -1.2345 -1.0515
 9557TIP3    H250087   1.237   1.457   3.133 -0.1625  0.5527 -0.6027
 9558TIP3   OH250088   2.784   6.123   4.949 -0.6497 -0.3710  0.1508
 9558TIP3    H150089   2.710   6.184   4.949 -0.5122 -0.2001 -1.3339
 9558TIP3    H250090   2.858   6.175   4.918 -0.3809 -1.1123 -0.4453
 9559TIP3   OH250091   0.076   1.854  13.329 -0.3353  0.2974 -0.0782
 9559TIP3    H150092   0.116   1.777  13.370  0.8883 -0.3028 -2.2980
 9559TIP3    H250093   0.143   1.923  13.338 -0.0951  0.1875 -0.9205
 9560TIP3   OH250094   1.319   1.671   1.304 -0.2483  0.1866  0.6603
 9560TIP3    H150095   1.228   1.700   1.313 -0.3204  0.6547 -1.3924
 9560TIP3    H250096   1.332   1.660   1.210  1.8332  0.1236  0.9223
 9561TIP3   OH250097   2.077   3.059   1.006  0.7269 -0.3937 -0.3631
 9561TIP3    H150098   2.072   2.978   1.056  0.3415 -0.2145 -0.1083
 9561TIP3    H250099   2.054   3.128   1.069  1.0465 -0.0885 -0.5777
 9562TIP3   OH250100   1.171   0.365   5.524  0.8507 -0.1365  0.1926
 9562TIP3    H150101   1.176   0.453   5.485  0.7867  0.3178  1.1847
 9562TIP3    H250102   1.119   0.315   5.462 -1.4722  1.2844  0.9202
 9563TIP3   OH250103   0.408   6.026   5.751  0.7483  0.2246  0.1895
 9563TIP3    H150104   0.346   6.099   5.746  0.3613 -0.1669 -0.9311
 9563TIP3    H250105   0.409   6.001   5.843  0.6212  1.4218  0.5177
 9564TIP3   OH250106   4.138   0.287   2.634  0.5660  0.2342 -0.7019
 9564TIP3    H150107   4.190   0.342   2.576  1.6374 -1.6647 -1.6019
 9564TIP3    H250108   4.050   0.324   2.630  1.2750  1.9017 -1.2195
 9565TIP3   OH250109   6.323   6.415  13.039  0.3180  0.1784  0.6460
 9565TIP3    H150110   6.398   6.438  13.093  1.6129  0.3669 -1.1800
 9565TIP3    H250111   6.282   6.498  13.017  1.2300  0.2967 -0.6555
 9566TIP3   OH250112   0.997   5.564   4.467  0.7569  0.1680  0.0601
 9566TIP3    H150113   1.074   5.547   4.412 -0.8625 -1.1921 -1.8512
 9566TIP3    H250114   0.942   5.621   4.413 -0.2050 -0.0102  0.8471
 9567TIP3   OH250115   3.747   4.532  10.645 -0.7268 -0.0557 -0.2223
 9567TIP3    H150116   3.663   4.514  10.688 -0.9289  0.6466 -0.3079
 9567TIP3    H250117   3.810   4.536  10.717 -1.2460  2.1922  0.1586
 9568TIP3   OH250118   5.652   3.937  17.144  0.2307 -0.1500 -0.2998
 9568TIP3    H150119   5.616   3.856  17.180 -1.9094  0.8792 -0.0089
 9568TIP3    H250120   5.589   3.963  17.077  1.6959  0.4755 -1.4312
 9569TIP3   OH250121   0.040   0.009   4.497  0.0043  0.0068 -0.0066
 9569TIP3    H150122   0.092  -0.062   4.534 -0.1051  0.8629  1.8425
 9569TIP3    H250123   0.075   0.089   4.537 -0.8832  0.8574 -0.8817
 9570TIP3   OH250124   4.084   4.927  12.827  0.3689  0.2842  0.1534
 9570TIP3    H150125   4.033   4.973  12.894  1.1443 -0.6183  1.3991
 9570TIP3    H250126   4.151   4.879  12.877  0.2495 -1.3083 -1.1832
 9571TIP3   OH250127   5.897   2.124  13.655 -0.5905  0.2371  0.1149
 9571TIP3    H150128   5.971   2.159  13.705 -0.7428  0.6602  0.0536
 9571TIP3    H250129   5.820   2.164  13.696 -0.8269 -0.6867  0.5750
 9572TIP3   OH250130   1.297   1.346  12.792 -0.1805 -0.3508  0.0704
 9572TIP3    H150131   1.246   1.292  12.732 -0.3124  0.7297 -0.8253
 9572TIP3    H250132   1.232   1.388  12.848 -0.0889 -1.0055  0.6683
 9573TIP3   OH250133   4.961   3.489   4.743  0.0292  0.4616 -0.3127
 9573TIP3    H150134   4.883   3.466   4.692 -0.6034  1.3138  0.2396
 9573TIP3    H250135   5.029   3.431   4.711 -1.1549 -1.1810  0.0644
 9574TIP3   OH250136   0.725   1.946   5.143  0.7987  0.3327  0.4964
 9574TIP3    H150137   0.640   1.947   5.099  0.5136 -1.8643  0.8963
 9574TIP3    H250138   0.736   2.034   5.177 -1.9803  0.3017  1.6203
 9575TIP3   OH250139   2.027   5.350   4.130 -0.8150 -0.5087 -0.3156
 9575TIP3    H150140   2.075   5.307   4.059  1.0240  0.7357  0.1308
 9575TIP3    H250141   2.003   5.279   4.189  1.3565 -1.0917 -0.0649
 9576TIP3   OH250142   0.661   5.507  11.435  0.1891  0.3783  0.4609
 9576TIP3    H150143   0.617   5.537  11.355  1.2320 -0.9679 -0.6443
 9576TIP3    H250144   0.653   5.412  11.432  1.0208  0.2715  1.5073
 9577TIP3   OH250145   3.502   2.435   0.642 -0.0633  0.3445  0.0835
 9577TIP3    H150146   3.450   2.408   0.717  0.3346  1.1238  0.6530
 9577TIP3    H250147   3.479   2.373   0.573  0.9692 -1.5481  1.3971
 9578TIP3   OH250148   1.301   1.659  10.288  0.4609  0.2657 -0.8550
 9578TIP3    H150149   1.380   1.605  10.284  0.5923  0.4577 -0.8620
 9578TIP3    H250150   1.235   1.602  10.328  1.0135  0.6106  0.5867
 9579TIP3   OH250151   4.929   1.463   3.343 -0.5569 -0.2777  0.4614
 9579TIP3    H150152   4.913   1.469   3.437 -0.3930 -0.2277  0.4852
 9579TIP3    H250153   4.877   1.534   3.305 -1.0921 -0.6598  0.4579
 9580TIP3   OH250154   2.459   1.941   6.302 -0.8103 -0.0319 -0.2093
 9580TIP3    H150155   2.493   1.862   6.259  1.4313  0.8182 -0.0995
 9580TIP3    H250156   2.458   1.919   6.395  1.5819  0.6436  0.0111
 9581TIP3   OH250157   4.370   5.381   3.453 -0.3116  0.7720 -0.6157
 9581TIP3    H150158   4.451   5.407   3.495 -2.2117  2.4058  2.1611
 9581TIP3    H250159   4.386   5.292   3.423  1.3833 -0.2096  2.9503
 9582TIP3   OH250160   2.229   6.619  15.839  0.4656 -0.1305  0.5524
 9582TIP3    H150161   2.201   6.706  15.868  0.0387 -0.7811  2.1361
 9582TIP3    H250162   2.215   6.621  15.744 -1.7502  0.7548  0.8465
 9583TIP3   OH250163   1.321   5.307  14.070  0.2236  0.0761 -0.1371
 9583TIP3    H150164   1.296   5.390  14.111 -0.4808 -0.2140  0.0263
 9583TIP3    H250165   1.376   5.263  14.134 -1.1806 -0.5452  0.6729
 9584TIP3   OH250166   1.558   2.576  16.631 -0.1008  0.6189 -0.2596
 9584TIP3    H150167   1.627   2.588  16.566 -1.5020  1.5603 -1.6120
 9584TIP3    H250168   1.583   2.632  16.704  0.2475  1.4311 -1.0004
 9585TIP3   OH250169   6.639   1.000   5.238 -0.7630 -0.1238  0.3222
 9585TIP3    H150170   6.571   0.943   5.202 -1.5387  0.4338  0.8964
 9585TIP3    H250171   6.603   1.088   5.233  0.1217  0.2396  0.1707
 9586TIP3   OH250172   3.209   1.568  11.304 -0.0086  0.2809  0.5648
 9586TIP3    H150173   3.229   1.494  11.247  0.7761  0.1855  0.9607
 9586TIP3    H250174   3.293   1.592  11.342 -0.3948  0.8741  1.0444
 9587TIP3   OH250175   2.720   4.627  13.771  0.0092  0.2611 -0.4680
 9587TIP3    H150176   2.788   4.624  13.704 -0.2208  0.5630 -0.7184
 9587TIP3    H250177   2.721   4.718  13.801 -1.9763  0.9258 -2.2417
 9588TIP3   OH250178   0.289   1.245  11.446  0.2039 -0.2568 -0.4474
 9588TIP3    H150179   0.367   1.294  11.473 -0.8552  1.0677  0.2601
 9588TIP3    H250180   0.280   1.266  11.353  0.9215 -0.7513 -0.6365
 9589TIP3   OH250181   0.496   1.472  13.422 -0.0671  0.0056  0.4054
 9589TIP3    H150182   0.543   1.464  13.505  0.4749 -1.2069  0.0017
 9589TIP3    H250183   0.557   1.518  13.364 -0.0482 -0.0380  0.3907
 9590TIP3   OH250184   2.463   2.393   4.889 -0.1601  0.0786  0.4934
 9590TIP3    H150185   2.373   2.376   4.861  0.1179  0.0554 -0.4100
 9590TIP3    H250186   2.461   2.481   4.926 -0.1605  0.8583 -1.3312
 9591TIP3   OH250187   2.431   5.754  14.788  0.8203  0.4121  0.2065
 9591TIP3    H150188   2.483   5.828  14.820  0.4383  1.1804 -0.9285
 9591TIP3    H250189   2.467   5.735  14.702 -0.2042  0.3944 -0.2282
 9592TIP3   OH250190   2.840   4.278  13.970  0.2041  0.1835 -0.0268
 9592TIP3    H150191   2.911   4.296  13.909  1.2825 -2.1471  0.4899
 9592TIP3    H250192   2.762   4.272  13.915  1.1189 -1.5627 -1.1904
 9593TIP3   OH250193   2.156   5.375  14.527 -0.7221 -0.1808  0.3272
 9593TIP3    H150194   2.104   5.429  14.587 -0.5243 -0.1435  0.4669
 9593TIP3    H250195   2.242   5.417  14.526 -1.6606  1.7734 -2.5959
 9594TIP3   OH250196   3.690   1.750   1.505  0.1141  0.0826  0.2551
 9594TIP3    H150197   3.728   1.833   1.533  0.4779  0.4619 -1.3345
 9594TIP3    H250198   3.747   1.684   1.544 -0.0799  0.5731  1.3930
 9595TIP3   OH250199   5.359   1.514  11.468  0.2248  0.0365 -0.6074
 9595TIP3    H150200   5.299   1.584  11.441  0.1740  0.2495  0.0638
 9595TIP3    H250201   5.301   1.444  11.498  0.2944 -0.0450 -0.6632
 9596TIP3   OH250202   4.206   5.828   2.156 -0.1057 -0.0141 -0.2244
 9596TIP3    H150203   4.126   5.776   2.155 -0.2075  0.1292  0.4063
 9596TIP3    H250204   4.178   5.914   2.188  0.8284 -0.8335  2.9725
 9597TIP3   OH250205   5.189   0.374  14.790 -0.4656 -0.1925 -0.3012
 9597TIP3    H150206   5.133   0.451  14.780 -0.5903 -0.1149  0.9087
 9597TIP3    H250207   5.214   0.374  14.882  1.8496 -0.0068 -0.9036
 9598TIP3   OH250208   4.476   2.242  15.286  0.2029  0.1382 -0.4531
 9598TIP3    H150209   4.452   2.192  15.364 -0.5180 -0.1916 -0.8830
 9598TIP3    H250210   4.548   2.297  15.315  1.6984 -1.8858 -0.2328
 9599TIP3   OH250211   0.606   4.624   2.195  0.0368 -0.2361 -0.3430
 9599TIP3    H150212   0.591   4.710   2.154 -0.4339 -0.7874 -1.3721
 9599TIP3    H250213   0.660   4.643   2.271 -0.5275  1.0486 -0.2385
 9600TIP3   OH250214   3.840   2.979   6.331  0.4065 -0.1876 -0.6284
 9600TIP3    H150215   3.840   2.920   6.255 -1.4915 -1.8076  0.5849
 9600TIP3    H250216   3.919   2.955   6.380  1.3800  0.5343 -1.7916
 9601TIP3   OH250217   3.137   4.322  12.113 -0.0949 -0.0220  0.5342
 9601TIP3    H150218   3.074   4.251  12.109 -2.7024  2.1333  1.6165
 9601TIP3    H250219   3.125   4.369  12.031  0.2677  0.2553  0.6399
 9602TIP3   OH250220   1.090   3.490   3.052  0.5287 -0.2058  0.7093
 9602TIP3    H150221   1.086   3.404   3.093 -0.1121 -1.8027 -2.5804
 9602TIP3    H250222   1.001   3.525   3.061  0.6334 -0.1246  1.4925
 9603TIP3   OH250223   4.141   4.310   1.086 -0.2276  0.4693 -0.1053
 9603TIP3    H150224   4.143   4.405   1.073  0.0799  0.5651  0.6396
 9603TIP3    H250225   4.202   4.294   1.158 -1.1269 -0.1688  0.5304
 9604TIP3   OH250226   6.526   1.548   1.578  0.6685 -0.4165  0.0097
 9604TIP3    H150227   6.605   1.590   1.611  0.0867  0.7121 -0.0025
 9604TIP3    H250228   6.514   1.585   1.490 -1.0127  0.9945  0.8163
 9605TIP3   OH250229   4.228   5.812  16.538  0.2698 -0.5303 -0.3289
 9605TIP3    H150230   4.292   5.873  16.577 -2.1128  1.9068 -0.1059
 9605TIP3    H250231   4.143   5.843  16.569 -1.2497 -2.0844 -2.7639
 9606TIP3   OH250232   0.294   5.357  12.747 -0.0171  0.0384 -0.1562
 9606TIP3    H150233   0.353   5.393  12.682 -0.4640  1.2976  0.1105
 9606TIP3    H250234   0.233   5.303  12.698 -0.3438  0.9713 -0.7901
 9607TIP3   OH250235   2.109   5.064   4.549  0.2838  0.0748 -0.9305
 9607TIP3    H150236   2.071   5.142   4.507 -2.1534 -0.6071 -0.0469
 9607TIP3    H250237   2.203   5.077   4.541 -0.0715  3.1782 -0.6913
 9608TIP3   OH250238   5.028   1.163   5.364  0.1232 -0.2443  0.8174
 9608TIP3    H150239   5.034   1.166   5.269  1.9767  0.4950  0.9238
 9608TIP3    H250240   4.953   1.218   5.386  0.1984  0.2559 -0.1752
 9609TIP3   OH250241   3.173   5.815   3.192  0.1960 -0.4146  0.0681
 9609TIP3    H150242   3.264   5.786   3.186  0.0758 -0.6497 -0.6297
 9609TIP3    H250243   3.161   5.837   3.284  1.0928  0.0511  0.0734
 9610TIP3   OH250244   2.313   4.437   4.660 -0.2541 -0.2513  0.0079
 9610TIP3    H150245   2.377   4.487   4.609 -1.0234  0.6348 -0.1125
 9610TIP3    H250246   2.275   4.501   4.720  1.2944 -1.4891  2.3806
 9611TIP3   OH250247   0.818   0.430   3.847 -0.2252 -0.0809  0.2080
 9611TIP3    H150248   0.825   0.442   3.942  0.0194 -0.2992  0.2173
 9611TIP3    H250249   0.788   0.515   3.814 -1.5757 -0.3831  0.6191
 9612TIP3   OH250250   3.359   5.389  16.193 -0.2491 -0.1945 -0.1485
 9612TIP3    H150251   3.426   5.457  16.201 -0.2984  0.0693 -1.9053
 9612TIP3    H250252   3.380   5.326  16.262  0.4818  1.0125  0.7398
 9613TIP3   OH250253   4.963   1.861   3.052 -0.1593 -0.0236 -0.2180
 9613TIP3    H150254   4.905   1.849   2.977 -0.7649 -0.7097  0.3520
 9613TIP3    H250255   4.987   1.954   3.049 -1.0284  0.1941 -0.6446
 9614TIP3   OH250256   5.920   5.577   3.474 -0.0466  0.0712 -0.3988
 9614TIP3    H150257   5.970   5.567   3.555 -2.6331  0.2163  1.2691
 9614TIP3    H250258   5.949   5.661   3.438 -0.5976  1.1788  1.6661
 9615TIP3   OH250259   3.036   6.761   4.101  0.4973 -0.3051  0.5154
 9615TIP3    H150260   2.978   6.688   4.080 -1.1992  1.0605  0.3047
 9615TIP3    H250261   2.982   6.820   4.152  1.2352  1.7364 -0.9908
 9616TIP3   OH250262   3.339   0.601  11.589  0.2405 -0.2455 -0.5902
 9616TIP3    H150263   3.391   0.527  11.619 -0.0830  0.7107  2.5181
 9616TIP3    H250264   3.273   0.562  11.532  1.0966 -2.1256 -0.3509
 9617TIP3   OH250265   5.303   5.752   0.954  0.4004  0.0475 -0.2059
 9617TIP3    H150266   5.278   5.778   1.042  0.5697 -0.9651  0.1512
 9617TIP3    H250267   5.282   5.828   0.899 -1.6986 -0.0749  0.3716
 9618TIP3   OH250268   1.742   2.202  17.048 -0.6158 -0.4904 -0.1382
 9618TIP3    H150269   1.835   2.185  17.064 -0.1905  1.4326 -0.4174
 9618TIP3    H250270   1.725   2.165  16.961  0.5167  1.2975 -1.1518
 9619TIP3   OH250271   5.231   4.873   1.784 -0.2190  0.5443  0.2732
 9619TIP3    H150272   5.199   4.908   1.701 -1.3986  0.0986  0.5263
 9619TIP3    H250273   5.191   4.930   1.851 -1.5444 -0.8059  0.6491
 9620TIP3   OH250274   2.402   4.934   2.012  0.1520 -0.0349  0.1841
 9620TIP3    H150275   2.371   4.885   2.088 -1.9792  1.5015  0.3419
 9620TIP3    H250276   2.387   4.875   1.938 -1.0979 -0.1869  0.5394
 9621TIP3   OH250277   6.372   1.546  13.534  0.4508 -0.1172  0.3129
 9621TIP3    H150278   6.339   1.616  13.590 -0.8774 -0.1451 -0.4042
 9621TIP3    H250279   6.463   1.569  13.518  0.0653  1.3772  0.2125
 9622TIP3   OH250280   0.098   6.435   5.389  0.4615 -0.4597  0.5088
 9622TIP3    H150281   0.185   6.472   5.406  0.2185  0.3237  0.0642
 9622TIP3    H250282   0.038   6.490   5.440  0.3115 -1.5951  1.6006
 9623TIP3   OH250283   6.554   6.563  14.763  0.2025  0.3613  0.0212
 9623TIP3    H150284   6.637   6.569  14.716  0.8355 -0.8456  0.9566
 9623TIP3    H250285   6.511   6.486  14.725  0.2695 -0.0129  0.6928
 9624TIP3   OH250286   3.960   2.762  12.507 -0.1603  0.7194 -0.4009
 9624TIP3    H150287   4.037   2.725  12.550 -0.6116  1.0542  0.7204
 9624TIP3    H250288   3.991   2.791  12.421  0.3752 -1.5930 -1.0413
 9625TIP3   OH250289   2.283   5.808   3.682 -0.1640 -0.4722 -0.5728
 9625TIP3    H150290   2.302   5.896   3.713 -0.5103 -0.6693  0.2184
 9625TIP3    H250291   2.271   5.817   3.587  0.3728  0.2305 -0.5727
 9626TIP3   OH250292   1.743   5.909  11.240  0.1237 -0.4352  0.9370
 9626TIP3    H150293   1.823   5.886  11.288 -0.3627 -2.2257  0.9057
 9626TIP3    H250294   1.768   5.985  11.187  1.8818 -1.1301  0.7450
 9627TIP3   OH250295   3.040   5.599  14.829 -0.3941  0.1085  0.1707
 9627TIP3    H150296   2.981   5.575  14.757  0.5528  0.2498 -0.6629
 9627TIP3    H250297   2.994   5.571  14.908  0.0579 -3.1644 -0.6776
 9628TIP3   OH250298   3.069   0.564   1.326  0.4450  0.7412  0.8961
 9628TIP3    H150299   3.118   0.491   1.362 -0.2006 -0.1948 -0.0802
 9628TIP3    H250300   2.993   0.573   1.384  0.6724  0.8195  1.1813
 9629TIP3   OH250301   1.627   3.233   3.840  0.2627 -0.2839 -0.2496
 9629TIP3    H150302   1.588   3.257   3.756 -1.4032 -2.2299 -0.0878
 9629TIP3    H250303   1.656   3.316   3.878 -1.0598  0.8828 -1.7300
 9630TIP3   OH250304   5.765   4.883   5.629 -0.0347  0.7623  0.3000
 9630TIP3    H150305   5.742   4.826   5.556 -0.6377  0.3411  0.8155
 9630TIP3    H250306   5.828   4.945   5.592 -0.2888  0.5135 -0.5587
 9631TIP3   OH250307   0.079   0.663   1.789  0.4967  0.8183  0.1734
 9631TIP3    H150308   0.090   0.683   1.696  0.9744  0.4653  0.1536
 9631TIP3    H250309   0.077   0.749   1.832 -1.3906  1.0499 -0.3368
 9632TIP3   OH250310   4.960   3.180  15.641  0.1778 -0.1547  0.1606
 9632TIP3    H150311   4.927   3.234  15.569 -1.2166  1.8504  2.2467
 9632TIP3    H250312   4.882   3.148  15.686  0.9447 -4.5049 -1.3302
 9633TIP3   OH250313   4.952   5.089  16.628 -0.5654  0.2940 -0.2570
 9633TIP3    H150314   5.015   5.128  16.568  0.8714 -1.0414  0.3534
 9633TIP3    H250315   4.931   5.004  16.589 -1.0608  0.2158  0.1718
 9634TIP3   OH250316   0.376   3.419   6.291  0.1662  0.0628 -0.1094
 9634TIP3    H150317   0.370   3.375   6.376  0.5561  0.9634  0.3941
 9634TIP3    H250318   0.295   3.469   6.284  0.7032  1.0019  0.3123
 9635TIP3   OH250319   2.667   2.507   0.446 -0.9941  0.2678  0.3933
 9635TIP3    H150320   2.735   2.495   0.512 -1.0184 -1.4528  0.1185
 9635TIP3    H250321   2.586   2.520   0.496 -0.4938  2.2105  0.7167
 9636TIP3   OH250322   4.191   1.644   0.024  0.6386  0.2114  0.3539
 9636TIP3    H150323   4.256   1.651  -0.046  1.7000  0.9892  1.3949
 9636TIP3    H250324   4.185   1.733   0.060 -0.6492  0.0390  0.6029
 9637TIP3   OH250325   4.943   4.980  14.610 -0.0354 -0.0270  0.2401
 9637TIP3    H150326   4.901   4.964  14.694 -0.3622 -0.3830  0.0115
 9637TIP3    H250327   4.918   5.069  14.587 -2.2660 -0.8773 -0.7911
 9638TIP3   OH250328   6.733   6.493  16.382  0.4579  0.9255  0.2877
 9638TIP3    H150329   6.704   6.408  16.416 -0.6394  0.3552 -1.9411
 9638TIP3    H250330   6.750   6.545  16.460 -4.3451  0.4864  1.8215
 9639TIP3   OH250331   5.621   3.720   5.518  0.6868  0.4577  0.0354
 9639TIP3    H150332   5.677   3.793   5.490  0.4336  0.6716  0.0836
 9639TIP3    H250333   5.564   3.704   5.442 -0.6289  1.6450  0.7367
 9640TIP3   OH250334   5.324   0.070   0.870 -0.1392  0.1998 -0.0005
 9640TIP3    H150335   5.343   0.031   0.956 -2.3915  1.5538  1.1779
 9640TIP3    H250336   5.339  -0.001   0.808  2.0104 -0.6829  1.4421
 9641TIP3   OH250337   6.480   3.258   5.988  0.4940  0.1804  0.1293
 9641TIP3    H150338   6.416   3.320   5.953 -0.0807 -0.7843 -0.5564
 9641TIP3    H250339   6.530   3.228   5.912  1.7685  0.9297  0.6634
 9642TIP3   OH250340   3.763   1.302   0.525 -0.0293  0.5012 -0.2204
 9642TIP3    H150341   3.859   1.310   0.522 -0.1275  1.6880 -0.6915
 9642TIP3    H250342   3.735   1.320   0.435 -0.5784 -1.8035 -0.5390
 9643TIP3   OH250343   0.397   6.330  14.041  0.0125 -0.5623  0.4398
 9643TIP3    H150344   0.462   6.395  14.070  0.8217 -0.9442 -0.4546
 9643TIP3    H250345   0.349   6.375  13.971  0.3570 -0.8106  0.0407
 9644TIP3   OH250346   1.395   5.733  11.480 -0.5159 -0.3914  0.5404
 9644TIP3    H150347   1.333   5.722  11.408 -1.1903  0.6550  0.9502
 9644TIP3    H250348   1.352   5.695  11.556 -1.7476  2.5458  1.3789
 9645TIP3   OH250349   2.085   1.029   1.684  0.2486  0.3977 -0.0386
 9645TIP3    H150350   2.010   0.972   1.671  0.9114 -0.2868 -0.8928
 9645TIP3    H250351   2.101   1.068   1.598  0.9871  0.3856  0.0907
 9646TIP3   OH250352   0.022   1.169  13.068 -0.0579 -1.0018  0.2504
 9646TIP3    H150353   0.036   1.176  12.974 -0.6411  0.0708  0.2298
 9646TIP3    H250354  -0.016   1.082  13.080 -0.5643 -0.9043 -0.5883
 9647TIP3   OH250355   4.168   5.663  15.862 -0.3132  0.3108 -0.4071
 9647TIP3    H150356   4.259   5.665  15.832 -0.8331  0.4063 -2.0417
 9647TIP3    H250357   4.128   5.739  15.821 -1.3669 -0.3003 -0.5351
 9648TIP3   OH250358   0.053   3.862   0.805  0.0530  0.6299  0.0932
 9648TIP3    H150359  -0.035   3.831   0.827  0.1171 -0.2185 -0.8221
 9648TIP3    H250360   0.066   3.938   0.862 -0.9415  0.2591  0.8342
 9649TIP3   OH250361   3.260   5.649   3.841  0.2928 -0.7982  0.2840
 9649TIP3    H150362   3.347   5.684   3.860 -0.3618  0.5167  0.8899
 9649TIP3    H250363   3.255   5.567   3.890  1.2729 -0.9925  0.0621
 9650TIP3   OH250364   4.174   3.101  10.459 -0.4707  0.0472  0.0665
 9650TIP3    H150365   4.261   3.101  10.419 -0.6970 -2.6113 -0.5378
 9650TIP3    H250366   4.183   3.046  10.537 -1.7093 -0.6894 -0.2882
 9651TIP3   OH250367   0.457   5.530  12.600  0.2062 -0.2571 -0.0348
 9651TIP3    H150368   0.514   5.495  12.532  1.9355 -1.1736  1.8411
 9651TIP3    H250369   0.471   5.625  12.596  0.4139 -0.3128 -0.8270
 9652TIP3   OH250370   3.467   2.814  15.093 -0.1533  0.1356 -0.1501
 9652TIP3    H150371   3.534   2.823  15.025  1.3082  1.6902  1.4447
 9652TIP3    H250372   3.508   2.760  15.160 -1.1197 -0.3085  0.0924
 9653TIP3   OH250373   6.225   5.232  13.690  0.6008 -0.7861  0.2472
 9653TIP3    H150374   6.244   5.159  13.750  0.8958 -0.3811  0.6479
 9653TIP3    H250375   6.234   5.310  13.744  0.1889 -0.4557 -0.1619
 9654TIP3   OH250376   5.460   2.437  17.221 -0.4135 -0.6472 -0.2609
 9654TIP3    H150377   5.473   2.526  17.251  1.8711 -1.3464  0.9129
 9654TIP3    H250378   5.372   2.414  17.251  0.4285 -0.1000  2.7805
 9655TIP3   OH250379   1.473   4.053   1.031 -0.2551  0.3688  0.3966
 9655TIP3    H150380   1.491   4.101   1.112  0.3499  0.2488  0.3358
 9655TIP3    H250381   1.511   4.107   0.962  0.1650 -0.0528  0.2987
 9656TIP3   OH250382   1.171   1.770   2.942 -0.7113  0.6917  0.0089
 9656TIP3    H150383   1.233   1.710   2.982 -4.3264 -4.7441 -1.9689
 9656TIP3    H250384   1.211   1.794   2.858  0.2127  0.0612  0.2655
 9657TIP3   OH250385   1.457   4.995  15.393 -0.5201  0.1099  0.4389
 9657TIP3    H150386   1.460   4.930  15.324 -0.1132  1.8657 -1.2427
 9657TIP3    H250387   1.370   5.035  15.385  0.0205  1.2300  0.0704
 9658TIP3   OH250388   6.343   0.015  12.204 -0.1233  0.3232  0.4071
 9658TIP3    H150389   6.379  -0.054  12.260 -0.5708 -0.0447  0.2500
 9658TIP3    H250390   6.285  -0.031  12.143  2.3724  0.4087 -2.0900
 9659TIP3   OH250391   3.459   3.799   5.706  0.2712  0.1891 -0.4848
 9659TIP3    H150392   3.406   3.797   5.786 -0.5439 -0.2812 -1.0225
 9659TIP3    H250393   3.516   3.722   5.714 -0.7780 -0.6564 -0.9901
 9660TIP3   OH250394   3.341   4.099  11.283  0.1401 -0.1332 -0.6284
 9660TIP3    H150395   3.327   4.172  11.222 -2.3596  0.0019  0.0463
 9660TIP3    H250396   3.304   4.023  11.238 -0.2032 -0.3543  0.0162
 9661TIP3   OH250397   5.229   4.800  16.661  0.4049 -0.1345 -0.1418
 9661TIP3    H150398   5.218   4.886  16.622 -0.6320 -0.3109 -0.2463
 9661TIP3    H250399   5.271   4.816  16.745 -0.0681  0.4979 -0.0283
 9662TIP3   OH250400   1.099   1.519   1.159  0.0458 -0.0327 -0.0372
 9662TIP3    H150401   1.056   1.538   1.242 -0.6138  0.3742 -0.4588
 9662TIP3    H250402   1.109   1.424   1.158 -0.2008 -0.0632  0.3824
 9663TIP3   OH250403   6.077   1.501  11.441 -0.5189 -0.3879  0.0690
 9663TIP3    H150404   6.002   1.458  11.400 -1.1843  1.6277 -0.9250
 9663TIP3    H250405   6.054   1.506  11.533 -2.3759  1.6398 -0.4622
 9664TIP3   OH250406   1.509   0.226  13.628  0.3285  0.6330 -0.3322
 9664TIP3    H150407   1.581   0.187  13.579  1.8641  2.7879  0.0920
 9664TIP3    H250408   1.548   0.304  13.669 -1.3421 -0.0840  2.8123
 9665TIP3   OH250409   2.650   1.860  16.093  0.0580 -0.2475  0.5021
 9665TIP3    H150410   2.672   1.932  16.152 -0.9897 -0.2213  0.8642
 9665TIP3    H250411   2.581   1.811  16.139 -1.3531  0.2477 -1.0569
 9666TIP3   OH250412   1.180   3.398   2.118  0.4276 -0.6094 -0.2960
 9666TIP3    H150413   1.272   3.408   2.141  0.2043 -1.3320  0.9441
 9666TIP3    H250414   1.177   3.418   2.024  1.5308  1.2079  0.0405
 9667TIP3   OH250415   0.726   4.364  10.964 -0.1758 -0.2024  0.0064
 9667TIP3    H150416   0.649   4.339  10.913  0.1982 -1.2450 -0.0632
 9667TIP3    H250417   0.797   4.310  10.928  0.4610  0.3223  0.4621
 9668TIP3   OH250418   4.259   4.999   4.825 -0.6606  0.0492  0.4428
 9668TIP3    H150419   4.228   5.089   4.814  0.3916  0.2435 -1.2077
 9668TIP3    H250420   4.324   5.004   4.895  1.2493  1.0925 -1.3190
 9669TIP3   OH250421   3.055   4.637   4.770  0.4956 -0.7601  0.1525
 9669TIP3    H150422   3.115   4.704   4.737 -0.6605 -1.9206 -4.7254
 9669TIP3    H250423   2.982   4.687   4.807  0.1483  0.7260 -2.4370
 9670TIP3   OH250424   4.661   6.162  14.698  0.1032 -0.1555 -0.1495
 9670TIP3    H150425   4.736   6.106  14.720  1.2684  2.3426  2.6761
 9670TIP3    H250426   4.695   6.222  14.631  0.5224  0.6377  0.7537
 9671TIP3   OH250427   5.009   2.103  14.432  0.0083 -0.4317 -0.0173
 9671TIP3    H150428   4.987   2.038  14.498  1.1641 -1.3377 -0.5253
 9671TIP3    H250429   5.026   2.053  14.353 -1.5130  0.6587 -1.0604
 9672TIP3   OH250430   1.899   2.992   0.035  0.2845  0.0981  0.2079
 9672TIP3    H150431   1.959   3.054   0.076  1.6774 -1.6129  0.8122
 9672TIP3    H250432   1.893   2.919   0.097 -2.2552  0.1258  0.0631
 9673TIP3   OH250433   6.447   0.579   3.254  0.2204 -0.1854  0.2740
 9673TIP3    H150434   6.405   0.501   3.217  1.2298 -0.8459  0.5000
 9673TIP3    H250435   6.411   0.586   3.342 -0.6292  0.1938 -0.0957
 9674TIP3   OH250436   4.383   5.946  16.730  0.2828 -0.5653 -0.6354
 9674TIP3    H150437   4.474   5.976  16.725  0.7791 -2.2160 -1.9745
 9674TIP3    H250438   4.361   5.955  16.823  2.3874 -1.7236  0.0274
 9675TIP3   OH250439   4.414   2.610   2.761 -0.6490  0.3556 -0.0359
 9675TIP3    H150440   4.407   2.657   2.844 -0.5170  0.6931 -0.2168
 9675TIP3    H250441   4.508   2.590   2.753 -0.4644  1.5275 -0.7746
 9676TIP3   OH250442   0.718   2.136  16.088  0.3423 -0.1907 -0.3842
 9676TIP3    H150443   0.626   2.110  16.084  0.4125 -0.2873 -1.7362
 9676TIP3    H250444   0.748   2.104  16.173 -1.0085  0.3192  0.3054
 9677TIP3   OH250445   6.221   5.795  11.522  0.0629 -0.1572  0.0728
 9677TIP3    H150446   6.189   5.708  11.543 -0.4318  0.0511  0.1981
 9677TIP3    H250447   6.151   5.854  11.551  0.4902  0.2935  0.1959
 9678TIP3   OH250448   3.859   4.456  12.964  0.3717  0.3759 -0.0016
 9678TIP3    H150449   3.860   4.542  12.921 -0.4940  1.0405  1.2979
 9678TIP3    H250450   3.794   4.405  12.914 -2.0123  1.7453  1.6491
 9679TIP3   OH250451   1.081   1.710   3.953 -0.4980  0.5886  0.6791
 9679TIP3    H150452   1.046   1.621   3.961 -0.8064  0.7737  1.4883
 9679TIP3    H250453   1.071   1.732   3.860  1.6134 -1.0391  0.0387
 9680TIP3   OH250454   2.000   0.825  13.338 -0.1209 -0.9309 -0.3565
 9680TIP3    H150455   1.936   0.754  13.348 -1.0116 -0.1811 -0.6075
 9680TIP3    H250456   2.040   0.809  13.253 -1.1115 -0.5286 -0.9155
 9681TIP3   OH250457   5.475   6.384   1.684  0.5589  0.2375  0.1821
 9681TIP3    H150458   5.510   6.305   1.643  0.1493 -0.7350  1.6473
 9681TIP3    H250459   5.396   6.354   1.730 -0.8063  1.9041 -0.9967
 9682TIP3   OH250460   2.299   1.152   4.660 -0.3068  0.3524 -0.4964
 9682TIP3    H150461   2.233   1.087   4.683  0.3624 -0.1258  0.0917
 9682TIP3    H250462   2.346   1.169   4.742 -0.5909  1.7102 -0.6036
 9683TIP3   OH250463   3.556   6.519  11.921  0.1822  0.4314 -0.7370
 9683TIP3    H150464   3.618   6.585  11.951  0.1710  0.0691  0.1158
 9683TIP3    H250465   3.472   6.546  11.958  0.5028 -1.0247  1.2046
 9684TIP3   OH250466   6.734   0.376   4.359  0.7854  0.3226 -0.4082
 9684TIP3    H150467   6.655   0.430   4.356  0.1021 -0.6692 -0.4449
 9684TIP3    H250468   6.800   0.431   4.401  0.1756  1.2870 -0.7146
 9685TIP3   OH250469   5.526   1.223   3.447 -0.1215 -0.1237 -0.0964
 9685TIP3    H150470   5.446   1.270   3.468 -1.1315 -1.8395 -0.0753
 9685TIP3    H250471   5.559   1.191   3.531  0.2429  0.0187 -0.1817
 9686TIP3   OH250472   4.569   4.413  16.065 -0.2586  0.7275  0.0599
 9686TIP3    H150473   4.474   4.418  16.051 -0.1474  2.6286 -0.1468
 9686TIP3    H250474   4.607   4.445  15.984  0.5919 -1.0369 -0.2551
 9687TIP3   OH250475   0.553   3.056   0.217  0.1287 -0.1470 -0.1938
 9687TIP3    H150476   0.537   2.998   0.142 -1.7216  0.1481 -0.0460
 9687TIP3    H250477   0.469   3.063   0.261  1.0972  0.0226  1.7014
 9688TIP3   OH250478   0.670   4.556   4.861  0.0836 -0.1358  0.1897
 9688TIP3    H150479   0.699   4.469   4.886  1.7984  0.8356  1.7164
 9688TIP3    H250480   0.729   4.615   4.907 -0.8980  1.8359 -1.0084
 9689TIP3   OH250481   2.849   5.692   1.501 -0.5367 -0.6257  0.1472
 9689TIP3    H150482   2.776   5.732   1.455  1.2723  2.7749  0.0693
 9689TIP3    H250483   2.921   5.693   1.438  0.6270 -0.3774  1.4538
 9690TIP3   OH250484   5.523   0.411  11.580  0.3039 -0.7528 -0.2058
 9690TIP3    H150485   5.616   0.402  11.557  0.2706  1.4920 -1.3686
 9690TIP3    H250486   5.482   0.443  11.500 -1.0742  0.5189  0.9861
 9691TIP3   OH250487   4.083   4.956  15.709  0.3948  0.2707 -0.2407
 9691TIP3    H150488   4.021   4.930  15.641  0.5937  1.2971 -0.8268
 9691TIP3    H250489   4.107   5.045  15.686  1.0533  0.3534  0.7540
 9692TIP3   OH250490   6.246   5.913   1.653 -0.6557 -0.2609  0.5589
 9692TIP3    H150491   6.205   5.997   1.672  0.6054  0.3489  0.6451
 9692TIP3    H250492   6.340   5.931   1.658 -0.3283 -1.0848 -1.9763
 9693TIP3   OH250493   2.223   2.030  13.729  0.7408 -0.3775  0.2904
 9693TIP3    H150494   2.242   1.967  13.660 -2.0889 -0.2451 -0.7084
 9693TIP3    H250495   2.252   2.114  13.693  3.4422 -0.9099  1.1496
 9694TIP3   OH250496   5.620   5.501   4.619 -0.1521  0.1453  0.6061
 9694TIP3    H150497   5.571   5.528   4.696  0.1242 -0.7327  1.1022
 9694TIP3    H250498   5.677   5.431   4.650  1.4875  1.2077  0.0557
 9695TIP3   OH250499   0.925   1.738   3.184 -0.0882  0.0619 -0.1155
 9695TIP3    H150500   0.872   1.659   3.194  0.5301 -0.3074  0.2992
 9695TIP3    H250501   1.004   1.721   3.236  0.1071  0.9005 -0.1181
 9696TIP3   OH250502   3.447   0.668   0.535  0.0466 -0.7751 -0.0032
 9696TIP3    H150503   3.396   0.590   0.512  2.5071 -2.8560  1.3459
 9696TIP3    H250504   3.516   0.672   0.469  0.5564 -0.3284  0.5548
 9697TIP3   OH250505   1.460   5.040   2.170  0.2682 -0.6504 -0.1079
 9697TIP3    H150506   1.510   5.000   2.098  1.3897 -0.4848  0.5672
 9697TIP3    H250507   1.464   5.134   2.151 -1.6461 -0.7776 -1.2319
 9698TIP3   OH250508   1.107   0.027   3.413 -0.1779 -0.0996 -0.1647
 9698TIP3    H150509   1.072  -0.060   3.396  0.7995 -0.0804 -2.3089
 9698TIP3    H250510   1.100   0.073   3.329  0.2165  1.5814  0.6972
 9699TIP3   OH250511   5.522   0.285   4.876  0.6734  0.5850  0.6597
 9699TIP3    H150512   5.508   0.361   4.932 -1.0981 -0.9023  2.2966
 9699TIP3    H250513   5.593   0.236   4.918  0.0882  0.0382  1.0292
 9700TIP3   OH250514   0.471   1.367  14.653 -0.4373 -0.0900  0.0731
 9700TIP3    H150515   0.490   1.313  14.576  2.6785  0.8601  0.1166
 9700TIP3    H250516   0.472   1.457  14.620  3.1576  0.4961  1.5535
 9701TIP3   OH250517   6.460   1.064  16.519  0.5460 -0.1647  0.1749
 9701TIP3    H150518   6.443   1.088  16.428 -0.4360 -1.5466 -0.0200
 9701TIP3    H250519   6.555   1.070  16.528  0.6238  0.2464 -0.8690
 9702TIP3   OH250520   1.761   4.162  12.633  0.5413  0.5337 -0.6304
 9702TIP3    H150521   1.674   4.123  12.640  0.7006  0.1709 -0.6742
 9702TIP3    H250522   1.817   4.092  12.599  1.3691  0.0369  1.6743
 9703TIP3   OH250523   4.703   4.727   2.267  1.0345 -0.6447 -0.1510
 9703TIP3    H150524   4.790   4.702   2.236  2.1582  0.3287  2.1309
 9703TIP3    H250525   4.718   4.803   2.324 -1.3075 -0.4392  0.2424
 9704TIP3   OH250526   4.900   2.702   4.250 -0.0744  0.4881  0.2517
 9704TIP3    H150527   4.994   2.715   4.238  0.0107  0.0697  0.4665
 9704TIP3    H250528   4.887   2.703   4.345  0.1605 -2.4598  0.3795
 9705TIP3   OH250529   2.633   0.497   5.452 -0.0391  0.1087 -0.1481
 9705TIP3    H150530   2.540   0.513   5.469 -0.0275 -1.1342  1.1619
 9705TIP3    H250531   2.637   0.405   5.428  0.8908  0.1040  0.0279
 9706TIP3   OH250532   1.613   2.658   4.646 -0.2622 -0.1085  0.5591
 9706TIP3    H150533   1.560   2.714   4.589  4.0935  1.7498 -1.9442
 9706TIP3    H250534   1.624   2.577   4.596 -0.4909 -0.3620  0.9213
 9707TIP3   OH250535   6.300   5.887  13.306  0.5134 -0.2336 -0.1962
 9707TIP3    H150536   6.308   5.960  13.244 -0.0219  0.2808  0.3360
 9707TIP3    H250537   6.207   5.869  13.311  0.5912 -0.5483  0.1468
 9708TIP3   OH250538   1.290   5.575   1.576  0.4114  0.5219  0.0480
 9708TIP3    H150539   1.355   5.635   1.542  0.7166  0.0421 -0.2240
 9708TIP3    H250540   1.241   5.626   1.640  0.8873  0.9540  0.0680
 9709TIP3   OH250541   3.713   4.299   5.374  0.0137 -0.2012  0.2140
 9709TIP3    H150542   3.730   4.293   5.468  0.4138  1.4821  0.2734
 9709TIP3    H250543   3.796   4.273   5.333 -0.5259 -2.0832  0.2941
 9710TIP3   OH250544   0.951   2.720   0.525  0.2008  0.1612  0.8765
 9710TIP3    H150545   0.880   2.720   0.589  0.3957 -0.0668  1.0922
 9710TIP3    H250546   0.914   2.675   0.449 -0.0994  0.6191  0.7487
 9711TIP3   OH250547   6.414   0.566   1.651 -0.1750 -0.0364  0.1127
 9711TIP3    H150548   6.409   0.605   1.738  2.3599  2.2776 -0.7169
 9711TIP3    H250549   6.419   0.641   1.592  1.9941 -1.5697 -1.7315
 9712TIP3   OH250550   4.708   4.407  13.730 -0.5122 -0.1195  0.5448
 9712TIP3    H150551   4.706   4.356  13.811  0.6135  1.9866  1.9564
 9712TIP3    H250552   4.793   4.388  13.691 -1.1675 -1.3501 -0.3092
 9713TIP3   OH250553   3.605   2.319   3.737 -0.7626 -0.2855 -0.6842
 9713TIP3    H150554   3.662   2.275   3.800 -2.0018 -2.0701 -0.7590
 9713TIP3    H250555   3.660   2.332   3.659  0.2773  0.3937  0.1529
 9714TIP3   OH250556   5.421   4.706  14.676 -0.7007  0.1619 -0.6515
 9714TIP3    H150557   5.419   4.616  14.645 -0.5627  0.0309 -0.2748
 9714TIP3    H250558   5.330   4.724  14.702 -0.8658  0.3454 -1.3380
 9715TIP3   OH250559   4.097   5.206  11.722  0.2080  0.4443  0.3275
 9715TIP3    H150560   4.059   5.222  11.808 -0.5181  0.6546 -0.0312
 9715TIP3    H250561   4.085   5.112  11.707 -3.1389  1.0544 -1.1806
 9716TIP3   OH250562   2.766   0.101  16.237  0.0919  0.1509 -0.2868
 9716TIP3    H150563   2.855   0.064  16.239 -0.2282 -0.6366 -0.3024
 9716TIP3    H250564   2.743   0.114  16.329 -0.4441 -1.2957 -0.2065
 9717TIP3   OH250565   3.224   6.654   1.679 -0.5227  0.2899  0.3842
 9717TIP3    H150566   3.132   6.632   1.666 -0.8371  1.1792  1.0880
 9717TIP3    H250567   3.265   6.636   1.594 -1.8436  2.3745 -0.7216
 9718TIP3   OH250568   6.488   5.638   6.326  0.1577 -0.6503  0.8830
 9718TIP3    H150569   6.497   5.582   6.249  0.1968 -0.3812  0.6901
 9718TIP3    H250570   6.466   5.578   6.397 -2.0606 -0.6355  0.2189
 9719TIP3   OH250571   6.699   1.686  14.923  0.3247 -0.2213 -0.1904
 9719TIP3    H150572   6.668   1.767  14.964  0.4283 -0.0420 -0.4607
 9719TIP3    H250573   6.623   1.650  14.878 -0.0283 -0.9160  0.9464
 9720TIP3   OH250574   4.850   0.299  16.141 -0.3092 -0.0549 -0.0347
 9720TIP3    H150575   4.780   0.354  16.103 -0.0713  2.1449  2.5454
 9720TIP3    H250576   4.803   0.232  16.190 -0.6054  0.0201 -0.2119
 9721TIP3   OH250577   6.758   6.015   3.513  0.4127 -0.2982  0.5091
 9721TIP3    H150578   6.672   6.010   3.470  0.4661  1.0748  0.2041
 9721TIP3    H250579   6.820   5.983   3.447  0.4513  1.4462 -0.3323
 9722TIP3   OH250580   0.956   6.633  12.476 -0.2513  0.8266 -0.6411
 9722TIP3    H150581   1.021   6.587  12.423 -1.4177 -0.7490 -0.7558
 9722TIP3    H250582   0.885   6.652  12.415  1.0064  4.5498 -1.0557
 9723TIP3   OH250583   5.046   5.875  13.613  0.2600 -0.0734  0.5937
 9723TIP3    H150584   4.990   5.929  13.669 -0.3587 -0.1102  0.0221
 9723TIP3    H250585   5.023   5.902  13.524  0.0436 -1.1848  0.3060
 9724TIP3   OH250586   3.430   5.305   1.785  0.0873  0.0193 -0.0007
 9724TIP3    H150587   3.340   5.277   1.767  0.6456 -1.9259  0.0707
 9724TIP3    H250588   3.457   5.350   1.705 -0.3103 -1.1149 -0.8013
 9725TIP3   OH250589   5.318   1.703  12.938 -0.0992 -0.3882  0.2119
 9725TIP3    H150590   5.313   1.753  13.020 -4.3292 -1.0807  0.4779
 9725TIP3    H250591   5.249   1.740  12.883 -0.5960 -3.1855 -1.1483
 9726TIP3   OH250592   1.927   1.813  14.600  0.2542 -0.3346  1.0029
 9726TIP3    H150593   1.884   1.873  14.661  0.3702  0.6129  0.1629
 9726TIP3    H250594   1.928   1.729  14.647  0.3246  0.3660  2.2960
 9727TIP3   OH250595   5.425   0.116  12.214 -0.8761  0.1560 -0.1578
 9727TIP3    H150596   5.334   0.145  12.202 -0.3090  1.5985 -1.1685
 9727TIP3    H250597   5.455   0.098  12.125  0.0977  0.5174  0.0998
 9728TIP3   OH250598   2.465   5.860   3.258  0.3050 -0.5274  0.1875
 9728TIP3    H150599   2.501   5.886   3.343  1.8019  0.0589 -0.6160
 9728TIP3    H250600   2.516   5.784   3.232 -0.6588 -1.1681  0.1529
 9729TIP3   OH250601   1.483   6.575  15.738 -0.0088 -0.1002  0.7119
 9729TIP3    H150602   1.441   6.492  15.717  0.5705  0.1387 -1.5078
 9729TIP3    H250603   1.576   6.559  15.725  0.0810  0.9845 -0.0131
 9730TIP3   OH250604   3.634   4.489  13.447  0.3748 -0.4761 -0.0380
 9730TIP3    H150605   3.648   4.463  13.356  2.1604  0.3404 -0.0117
 9730TIP3    H250606   3.571   4.425  13.481  0.3591 -1.3016 -1.6002
 9731TIP3   OH250607   1.937   0.066   4.393  0.1722  0.1448  0.1009
 9731TIP3    H150608   1.967   0.049   4.304  0.8108  1.1317  0.1114
 9731TIP3    H250609   2.015   0.096   4.439 -0.6959  2.2792  0.2641
 9732TIP3   OH250610   1.141   3.647  17.076 -0.7773 -0.4106  0.0781
 9732TIP3    H150611   1.167   3.654  16.984  1.9237 -0.4314  0.7836
 9732TIP3    H250612   1.176   3.727  17.117 -1.4671 -0.6668  1.1976
 9733TIP3   OH250613   2.939   3.249   2.802 -0.4127  0.5947 -0.2405
 9733TIP3    H150614   2.882   3.212   2.735  0.2216 -0.9517  0.0713
 9733TIP3    H250615   2.880   3.274   2.873 -1.0580  1.9831 -1.2299
 9734TIP3   OH250616   1.175   6.693   1.210  0.4142  0.3902  0.7890
 9734TIP3    H150617   1.149   6.622   1.269  0.8982 -0.9612 -0.5887
 9734TIP3    H250618   1.248   6.735   1.254 -0.4199  0.5774  2.0136
 9735TIP3   OH250619   4.503   5.551   1.588  0.3560 -0.0226 -0.4898
 9735TIP3    H150620   4.410   5.573   1.578  0.4626 -0.4679 -2.8424
 9735TIP3    H250621   4.548   5.613   1.531  1.4009 -0.5323 -0.2202
 9736TIP3   OH250622   4.288   5.933  14.443 -0.4459  0.4238  0.2984
 9736TIP3    H150623   4.216   5.960  14.387 -0.5057 -1.6593 -0.6738
 9736TIP3    H250624   4.348   5.887  14.385  0.0380 -0.7919  1.7264
 9737TIP3   OH250625   5.885   2.243  14.372 -0.6646 -0.4661  0.0838
 9737TIP3    H150626   5.853   2.298  14.444  0.5792  0.5641 -0.1372
 9737TIP3    H250627   5.927   2.305  14.312  1.7474 -1.7547  0.3805
 9738TIP3   OH250628   6.087   5.110   5.535 -0.2968  0.1188  0.0082
 9738TIP3    H150629   6.041   5.168   5.595  0.1317 -0.5388  0.9920
 9738TIP3    H250630   6.018   5.056   5.495 -0.2438 -2.4615  3.1913
 9739TIP3   OH250631   6.057   2.309   1.630 -0.2514 -0.0230 -0.4733
 9739TIP3    H150632   6.149   2.288   1.647 -1.0265 -0.4562  3.4682
 9739TIP3    H250633   6.017   2.225   1.608 -0.0831 -0.1392 -0.3435
 9740TIP3   OH250634   5.275   0.645   1.736  0.6451  0.0686 -0.0853
 9740TIP3    H150635   5.272   0.667   1.643  1.1747 -4.0417 -1.1958
 9740TIP3    H250636   5.184   0.650   1.765  0.1821 -0.5173 -1.3719
 9741TIP3   OH250637   3.680   5.171   5.963 -0.5607  0.4691  0.0626
 9741TIP3    H150638   3.695   5.189   5.870  0.0195  1.5184  0.3629
 9741TIP3    H250639   3.690   5.076   5.970 -0.5935  0.3822 -0.9424
 9742TIP3   OH250640   1.228   2.666   0.657  0.5560 -0.0295  0.4163
 9742TIP3    H150641   1.271   2.618   0.586 -0.6495 -2.1136  1.0328
 9742TIP3    H250642   1.148   2.700   0.617  0.6804  0.1955  0.3589
 9743TIP3   OH250643   0.736   1.763   4.902  0.3782 -0.2555  0.3900
 9743TIP3    H150644   0.748   1.798   4.990  2.8512 -1.2035  0.4489
 9743TIP3    H250645   0.824   1.758   4.865 -0.3291 -2.6037 -1.0890
 9744TIP3   OH250646   6.679   1.536   1.941  0.1390  0.2776 -0.4691
 9744TIP3    H150647   6.587   1.514   1.929 -0.1595  0.9342  0.5196
 9744TIP3    H250648   6.693   1.527   2.036  1.8147 -2.5762 -0.9462
 9745TIP3   OH250649   3.455   3.743  16.733  0.1465 -0.2974  0.0107
 9745TIP3    H150650   3.404   3.824  16.728  0.8830  0.1229 -0.9368
 9745TIP3    H250651   3.403   3.680  16.684  0.1819 -0.0510 -0.3529
 9746TIP3   OH250652   0.924   2.495   2.041 -0.7186 -0.1285 -0.2682
 9746TIP3    H150653   0.856   2.505   2.108  1.0165  3.4691  1.0608
 9746TIP3    H250654   0.938   2.583   2.007  1.5049 -1.2233 -2.3394
 9747TIP3   OH250655   2.179   6.508  12.099 -0.1214  0.0959 -0.2520
 9747TIP3    H150656   2.110   6.451  12.135 -0.4083  1.0822  0.7637
 9747TIP3    H250657   2.167   6.501  12.004  0.3160 -2.1121 -0.1849
 9748TIP3   OH250658   6.594   3.453  13.847 -0.1057  0.4296 -0.5102
 9748TIP3    H150659   6.512   3.406  13.865 -0.4671  0.7682 -1.2576
 9748TIP3    H250660   6.588   3.532  13.901 -0.2548  0.4374 -0.5377
 9749TIP3   OH250661   6.569   2.296  14.057 -0.3918 -0.0746  0.0899
 9749TIP3    H150662   6.591   2.210  14.092  1.7291  1.2335  2.1121
 9749TIP3    H250663   6.601   2.295  13.967 -0.3276 -1.3719  0.1233
 9750TIP3   OH250664   0.991   0.003   0.220  0.2269  0.0552  0.0454
 9750TIP3    H150665   1.019  -0.088   0.222 -1.6658 -0.5446  0.5903
 9750TIP3    H250666   1.044   0.044   0.151  1.6255 -1.2646  0.3370
 9751TIP3   OH250667   4.368   6.019   6.375  0.4182 -0.1619  0.6918
 9751TIP3    H150668   4.306   5.955   6.410 -0.4150 -0.3982 -1.1228
 9751TIP3    H250669   4.450   5.970   6.366  0.6889 -0.0577  2.3842
 9752TIP3   OH250670   2.623   6.238  14.250 -0.0628  0.3792  0.4574
 9752TIP3    H150671   2.700   6.206  14.203 -0.4594 -0.5833  0.4335
 9752TIP3    H250672   2.640   6.215  14.342  0.1871  1.1918  0.6126
 9753TIP3   OH250673   1.094   3.592   4.501 -0.1324 -0.2062  0.0847
 9753TIP3    H150674   1.155   3.548   4.560  1.3345  0.8746 -0.5797
 9753TIP3    H250675   1.064   3.524   4.441  0.5932 -0.7162  0.2972
 9754TIP3   OH250676   5.715   3.157   3.265 -0.0153 -0.6272 -0.1113
 9754TIP3    H150677   5.679   3.127   3.348  1.4901 -0.6905  0.5319
 9754TIP3    H250678   5.788   3.098   3.247  0.5243  0.2222 -0.7992
 9755TIP3   OH250679   6.728   2.491  12.337 -0.4875  0.2099 -0.1112
 9755TIP3    H150680   6.761   2.574  12.303 -2.4571 -0.5884 -4.2838
 9755TIP3    H250681   6.790   2.426  12.304 -1.1000 -0.3624 -0.1425
 9756TIP3   OH250682   5.072   1.708   6.093  0.2082  0.3171 -0.0642
 9756TIP3    H150683   5.046   1.679   6.181  1.6840  1.8573  0.9046
 9756TIP3    H250684   4.992   1.746   6.057 -0.7289 -1.4148  0.1285
 9757TIP3   OH250685   4.910   0.710  12.536 -0.4027  0.1293 -0.0267
 9757TIP3    H150686   4.926   0.650  12.608 -1.0738  0.4246  0.3785
 9757TIP3    H250687   4.827   0.681  12.498 -1.4754  1.6674  1.0835
 9758TIP3   OH250688   2.466   1.251   0.384 -0.5574  0.2654 -0.1074
 9758TIP3    H150689   2.544   1.292   0.347  1.0947 -1.0952  1.7581
 9758TIP3    H250690   2.405   1.323   0.400  1.1132  1.6114  0.2826
 9759TIP3   OH250691   0.991   2.167  12.177 -0.7756  0.4153  0.7354
 9759TIP3    H150692   0.962   2.238  12.120 -1.0683 -0.6956 -0.5337
 9759TIP3    H250693   0.917   2.106  12.177  0.9564 -1.7764 -1.3948
 9760TIP3   OH250694   2.627   1.857  12.979  0.4348  0.4803  0.2856
 9760TIP3    H150695   2.576   1.811  12.912  1.6844 -0.3234 -0.1348
 9760TIP3    H250696   2.674   1.925  12.929  0.2843  0.7924  0.5679
 9761TIP3   OH250697   0.124   0.647   5.040  0.2100 -0.4570 -0.1868
 9761TIP3    H150698   0.112   0.613   4.952  1.6073 -3.1989  0.6132
 9761TIP3    H250699   0.218   0.638   5.057  0.3089  1.9998  0.8312
 9762TIP3   OH250700   2.956   4.533   5.457 -0.2551  0.0415  0.6277
 9762TIP3    H150701   2.933   4.485   5.377  1.5779 -0.7466  0.5422
 9762TIP3    H250702   2.916   4.482   5.527  1.1238 -1.2870  0.4825
 9763TIP3   OH250703   0.673   6.114   1.188 -0.1533  0.0296  0.3872
 9763TIP3    H150704   0.730   6.100   1.112 -2.4429 -3.9408 -0.7036
 9763TIP3    H250705   0.605   6.173   1.156 -2.0188 -2.8747 -1.2593
 9764TIP3   OH250706   6.478   5.667  17.237 -0.0483  0.2483 -0.7003
 9764TIP3    H150707   6.455   5.720  17.313  0.9640  2.2287 -1.7410
 9764TIP3    H250708   6.528   5.594  17.272 -1.1566  0.1517  0.7158
 9765TIP3   OH250709   1.056   3.250   4.140  0.2782 -0.1939 -0.1897
 9765TIP3    H150710   1.099   3.329   4.170 -0.4585 -0.1959  0.9073
 9765TIP3    H250711   1.127   3.194   4.107  1.0982 -0.1456  1.4651
 9766TIP3   OH250712   1.878   0.308  13.240  0.4557  0.2271 -0.3399
 9766TIP3    H150713   1.860   0.308  13.146 -0.0684  3.2692 -0.3100
 9766TIP3    H250714   1.973   0.305  13.246  0.5075  0.4071 -0.9999
 9767TIP3   OH250715   5.705   4.897  12.931  0.3512  0.0375 -0.1341
 9767TIP3    H150716   5.659   4.854  12.860 -1.3879  1.7627 -0.1085
 9767TIP3    H250717   5.694   4.991  12.914  0.3672  0.4864  2.0810
 9768TIP3   OH250718   3.466   2.626   5.123  0.6169  0.3111  0.1319
 9768TIP3    H150719   3.459   2.685   5.198  1.9613  2.1624 -1.1730
 9768TIP3    H250720   3.379   2.627   5.083  0.0871 -0.1533  1.2307
 9769TIP3   OH250721   1.358   1.279   1.741 -0.2449  0.5689  0.4486
 9769TIP3    H150722   1.321   1.356   1.785 -0.0347  0.0694  1.5059
 9769TIP3    H250723   1.415   1.238   1.806  0.0455 -0.2042 -0.2740
 9770TIP3   OH250724   2.439   3.386  13.993 -0.2215  0.3614  0.2716
 9770TIP3    H150725   2.518   3.386  13.939 -0.4894  0.9604 -0.1289
 9770TIP3    H250726   2.452   3.458  14.055  1.2800 -2.0109  2.7959
 9771TIP3   OH250727   5.854   2.053   4.305 -0.4585 -0.1989 -0.4609
 9771TIP3    H150728   5.767   2.017   4.289 -0.0992 -1.0474 -0.5526
 9771TIP3    H250729   5.838   2.135   4.351 -1.3916  0.7312 -2.3861
 9772TIP3   OH250730   3.068   4.391   3.156  0.6245  0.1913 -0.0624
 9772TIP3    H150731   2.999   4.373   3.092 -0.5304  0.2208  1.1578
 9772TIP3    H250732   3.140   4.425   3.104 -0.0954 -0.3115 -1.4235
 9773TIP3   OH250733   6.767   2.760   2.847 -0.6976  0.8365  0.3068
 9773TIP3    H150734   6.728   2.841   2.813  0.3942  1.4247  0.4399
 9773TIP3    H250735   6.719   2.691   2.802  1.9529  1.5999 -3.9335
 9774TIP3   OH250736   6.463   2.254   0.936 -0.6111 -0.1097 -0.1150
 9774TIP3    H150737   6.487   2.306   0.858 -0.1226 -0.2673 -0.0710
 9774TIP3    H250738   6.391   2.303   0.975 -0.7127  0.0931 -0.5455
 9775TIP3   OH250739   0.038   6.409   2.584 -0.0098 -0.2398 -0.0961
 9775TIP3    H150740  -0.050   6.439   2.561  0.5275  1.5373  0.0681
 9775TIP3    H250741   0.035   6.315   2.570 -2.1707 -0.3263  0.6616
 9776TIP3   OH250742   5.668   6.122  11.265  0.0987 -0.2966  0.5489
 9776TIP3    H150743   5.576   6.099  11.281 -0.7275  2.2615 -0.2319
 9776TIP3    H250744   5.686   6.192  11.328  0.6950  1.0218 -1.0500
 9777TIP3   OH250745   4.817   6.320   6.029  1.0411 -0.1181  0.3423
 9777TIP3    H150746   4.789   6.288   5.943  0.7764  2.6679 -0.6391
 9777TIP3    H250747   4.762   6.272   6.091  1.9265 -2.9076 -0.9322
 9778TIP3   OH250748   4.837   1.052  13.017  0.2888  0.3006 -0.1120
 9778TIP3    H150749   4.769   1.033  13.081 -0.7407  4.2250  0.1265
 9778TIP3    H250750   4.806   1.012  12.936  0.3567 -2.5243  1.2239
 9779TIP3   OH250751   4.689   1.648  15.102 -0.3079  0.7909  0.1186
 9779TIP3    H150752   4.753   1.719  15.106  0.7249 -0.1227 -0.0277
 9779TIP3    H250753   4.614   1.681  15.151  0.6698  1.4516  1.1872
 9780TIP3   OH250754   4.299   5.082   6.829  0.7994  0.1903 -0.3259
 9780TIP3    H150755   4.241   5.029   6.774  0.8764 -0.4746  0.2331
 9780TIP3    H250756   4.361   5.120   6.767  1.1787 -0.9340 -0.6517
 9781TIP3   OH250757   5.287   1.950   3.495 -0.4769  0.4967  0.2423
 9781TIP3    H150758   5.234   2.011   3.545 -1.4234  1.0604 -1.4136
 9781TIP3    H250759   5.224   1.886   3.460  0.3656 -0.8037  1.0723
 9782TIP3   OH250760   5.076   6.189   5.831  0.2873 -0.4415  0.3046
 9782TIP3    H150761   5.151   6.214   5.886 -0.6193  0.7550  0.9990
 9782TIP3    H250762   5.038   6.114   5.876  0.3094 -0.2647  0.6173
 9783TIP3   OH250763   4.947   1.781  15.414  0.0425 -0.5388  0.2728
 9783TIP3    H150764   4.990   1.835  15.480  1.9158 -1.2024 -0.3685
 9783TIP3    H250765   4.992   1.697  15.418 -0.5644 -0.9464 -1.0803
 9784TIP3   OH250766   2.617   4.260   1.294 -0.4509  0.0665 -0.1212
 9784TIP3    H150767   2.672   4.329   1.257 -0.4625 -0.3181 -0.8647
 9784TIP3    H250768   2.679   4.205   1.343 -0.2710  0.0120 -0.4037
 9785TIP3   OH250769   2.929   2.680   2.444  0.0577  0.8546  0.0470
 9785TIP3    H150770   2.905   2.772   2.431  0.6921  0.8871 -0.9505
 9785TIP3    H250771   2.856   2.631   2.404 -0.4304  0.9170  0.8530
 9786TIP3   OH250772   2.520   3.678  14.438 -0.8633  0.2547  0.2563
 9786TIP3    H150773   2.575   3.754  14.419  2.0055 -1.9555 -0.5560
 9786TIP3    H250774   2.516   3.675  14.534  0.3029  0.5572  0.3242
 9787TIP3   OH250775   2.974   4.891   6.225 -0.1723  0.0862 -0.0533
 9787TIP3    H150776   2.907   4.959   6.219  1.2635  1.3425 -2.9756
 9787TIP3    H250777   3.023   4.913   6.304 -1.4890  0.7382  0.6047
 9788TIP3   OH250778   4.726   0.294   5.445 -0.5518 -0.0588 -0.7361
 9788TIP3    H150779   4.711   0.288   5.540  0.0983  0.5788 -0.5854
 9788TIP3    H250780   4.683   0.217   5.409 -3.2802  1.1720 -0.2218
 9789TIP3   OH250781   0.467   4.403  13.192  0.4319  0.2179  0.1291
 9789TIP3    H150782   0.525   4.474  13.165  0.2929  0.4056  0.3228
 9789TIP3    H250783   0.446   4.357  13.110 -0.2205  0.9592 -0.1332
 9790TIP3   OH250784   2.294   0.686  12.115  0.3902  0.4768  0.3837
 9790TIP3    H150785   2.223   0.674  12.051  0.7249 -0.4318  0.1704
 9790TIP3    H250786   2.327   0.774  12.098  1.0799 -0.0765 -1.3525
 9791TIP3   OH250787   2.058   3.089   1.308  0.1118  0.0969 -0.8851
 9791TIP3    H150788   2.084   3.179   1.330  2.0341 -0.9032  1.0792
 9791TIP3    H250789   1.963   3.094   1.295  0.3694  2.6418 -2.0994
 9792TIP3   OH250790   2.016   2.277   4.651 -0.0194 -0.2965  0.5456
 9792TIP3    H150791   1.945   2.341   4.663  1.1770  1.0882  0.2942
 9792TIP3    H250792   2.082   2.323   4.600  0.1437 -2.2820 -1.1181
 9793TIP3   OH250793   4.277   4.903   1.408  0.0680 -0.2038  0.1028
 9793TIP3    H150794   4.248   4.987   1.442  1.0765  0.4135 -0.5372
 9793TIP3    H250795   4.362   4.889   1.450  0.9072  0.1376 -1.4520
 9794TIP3   OH250796   5.345   2.672   3.093 -0.4886 -0.0301 -0.1766
 9794TIP3    H150797   5.368   2.586   3.059 -3.3670 -1.5964  1.5902
 9794TIP3    H250798   5.429   2.714   3.112  0.9817 -2.0506 -1.9561
 9795TIP3   OH250799   5.871   6.207  11.527 -0.5972  0.4752  0.1146
 9795TIP3    H150800   5.959   6.241  11.512 -0.9388  0.7861 -1.3171
 9795TIP3    H250801   5.814   6.283  11.517 -0.9655  0.4268  1.8234
 9796TIP3   OH250802   2.410   1.958  14.338 -1.0664 -0.3429  0.2922
 9796TIP3    H150803   2.343   1.971  14.405 -0.4303  0.1645  0.8456
 9796TIP3    H250804   2.493   1.972  14.385 -0.5448 -1.6407 -0.2280
 9797TIP3   OH250805   0.599   5.658   5.156  0.3804  0.4934  0.1882
 9797TIP3    H150806   0.590   5.732   5.094  0.7644  1.3689  1.1617
 9797TIP3    H250807   0.684   5.620   5.135 -0.2154 -0.2504 -0.9298
 9798TIP3   OH250808   2.920   1.779  15.598  0.6964  0.1124 -0.0620
 9798TIP3    H150809   2.845   1.795  15.541  0.5214  0.7946  0.3484
 9798TIP3    H250810   2.941   1.866  15.634  0.0956 -0.4902  1.7886
 9799TIP3   OH250811   3.402   0.661  16.272  0.6345  0.2605 -0.2803
 9799TIP3    H150812   3.461   0.622  16.207 -1.2405 -0.9287 -1.3061
 9799TIP3    H250813   3.408   0.755  16.257  1.2250  0.0691 -1.2892
 9800TIP3   OH250814   2.745   4.099  10.795  0.5356 -0.1946  0.1029
 9800TIP3    H150815   2.697   4.099  10.713  0.5171 -0.9769  0.1096
 9800TIP3    H250816   2.837   4.105  10.769  0.5022  0.0130  0.0367
 9801TIP3   OH250817   4.975   0.305  11.008 -0.3601 -0.2856 -0.2733
 9801TIP3    H150818   4.996   0.366  11.079  1.8236  0.0976 -1.2313
 9801TIP3    H250819   5.051   0.308  10.950 -0.8324 -2.8577 -1.0794
 9802TIP3   OH250820   6.264   2.959  14.642  0.5355 -0.1324  0.2540
 9802TIP3    H150821   6.338   2.905  14.612 -0.7977 -1.4794 -0.6557
 9802TIP3    H250822   6.266   2.949  14.738  0.3945 -1.6953  0.1114
 9803TIP3   OH250823   3.433   3.923  10.564  0.2238  0.5455 -0.5356
 9803TIP3    H150824   3.466   3.835  10.581  2.0085  1.7099  2.2615
 9803TIP3    H250825   3.349   3.927  10.610  0.3908  0.4886 -0.2274
 9804TIP3   OH250826   2.821   1.055  15.278 -0.0397 -0.7418  0.1916
 9804TIP3    H150827   2.817   1.063  15.374  0.2391 -1.8618  0.2960
 9804TIP3    H250828   2.891   1.115  15.253 -1.7444  1.4521  0.4416
 9805TIP3   OH250829   0.097   2.195  11.165 -0.1727  0.1346 -0.3123
 9805TIP3    H150830   0.160   2.266  11.176 -2.1868  1.8877  0.0479
 9805TIP3    H250831   0.124   2.152  11.083  1.6295  0.6667 -0.0261
 9806TIP3   OH250832   5.756   4.826  10.865  0.1162 -0.0635  0.2529
 9806TIP3    H150833   5.792   4.913  10.852  0.4807  0.0278  1.6871
 9806TIP3    H250834   5.767   4.782  10.781  1.6978  0.6440  0.0745
 9807TIP3   OH250835   3.897   1.663   1.880 -0.0121  0.1393  0.4412
 9807TIP3    H150836   3.983   1.690   1.912  0.1345 -3.1220  3.0114
 9807TIP3    H250837   3.916   1.610   1.803  0.3271 -0.6315  1.0424
 9808TIP3   OH250838   3.931   6.101   3.568  0.8556 -0.4739 -0.1500
 9808TIP3    H150839   4.007   6.111   3.626  0.8959 -0.3694 -0.2202
 9808TIP3    H250840   3.920   6.006   3.558 -0.6255 -0.5679  1.9697
 9809TIP3   OH250841   3.369   2.439   0.931 -0.2804  0.1264 -0.1363
 9809TIP3    H150842   3.348   2.351   0.963 -0.6862 -0.1352 -1.1148
 9809TIP3    H250843   3.364   2.494   1.009 -2.1951 -0.3459  0.0855
 9810TIP3   OH250844   5.700   4.440   3.724 -0.0701 -0.0275 -0.7037
 9810TIP3    H150845   5.750   4.370   3.765 -0.0186  0.2035 -0.3724
 9810TIP3    H250846   5.767   4.499   3.688 -0.1196 -0.5108 -1.5958
 9811TIP3   OH250847   3.621   1.365   1.931  0.1406  0.0181  0.2409
 9811TIP3    H150848   3.568   1.338   1.856  0.6644  1.8650 -0.8252
 9811TIP3    H250849   3.708   1.329   1.913  0.0620 -0.2500  0.3882
 9812TIP3   OH250850   5.938   0.517  10.426 -0.4100  0.1448 -0.6796
 9812TIP3    H150851   5.891   0.543  10.346  0.2532  0.4942 -0.9661
 9812TIP3    H250852   6.012   0.578  10.430  0.0509 -0.4370 -0.2688
 9813TIP3   OH250853   3.267   0.663  16.749  0.1495  0.3498 -0.7956
 9813TIP3    H150854   3.201   0.647  16.682 -0.9155  0.7738  0.1343
 9813TIP3    H250855   3.345   0.617  16.718 -1.4073 -2.6129 -0.5222
 9814TIP3   OH250856   4.354   2.359   0.733 -0.1489  0.0824  0.4697
 9814TIP3    H150857   4.426   2.401   0.780 -1.0362  2.6241 -0.3099
 9814TIP3    H250858   4.304   2.314   0.800  1.1714 -0.1996  1.2793
 9815TIP3   OH250859   1.600   4.075  16.562 -0.2568  0.2516  0.2635
 9815TIP3    H150860   1.551   4.153  16.535 -1.1848  0.2120  1.7511
 9815TIP3    H250861   1.606   4.083  16.658  1.3259 -0.5320  0.2369
 9816TIP3   OH250862   5.764   4.276   5.645 -0.2753  0.0205  0.2125
 9816TIP3    H150863   5.687   4.245   5.692  0.5351  0.1116  1.6204
 9816TIP3    H250864   5.799   4.346   5.701  2.0527 -1.4627  0.6593
 9817TIP3   OH250865   4.614   3.341  15.134  0.4094  0.3575  0.0530
 9817TIP3    H150866   4.564   3.415  15.168 -1.3827 -0.2819 -1.1018
 9817TIP3    H250867   4.558   3.265  15.149 -0.0519 -0.0621 -3.4540
 9818TIP3   OH250868   4.409   5.597  13.245 -0.3638  0.2249 -0.2628
 9818TIP3    H150869   4.459   5.675  13.220  0.5501 -0.3538 -0.2729
 9818TIP3    H250870   4.413   5.540  13.168  0.3902 -0.5306  0.3289
 9819TIP3   OH250871   3.715   3.975   4.324 -0.1933  0.0362  0.5323
 9819TIP3    H150872   3.755   3.889   4.335  1.8115  1.0298  1.3730
 9819TIP3    H250873   3.697   4.006   4.413  1.9799  1.7411  0.4334
 9820TIP3   OH250874   5.928   6.290  15.330 -0.7709  0.1859 -0.1438
 9820TIP3    H150875   5.992   6.331  15.389  0.5035 -1.4722 -0.3633
 9820TIP3    H250876   5.847   6.339  15.346  1.0422  3.7379 -1.4081
 9821TIP3   OH250877   6.151   2.791   2.167  0.3027 -0.0929 -0.0515
 9821TIP3    H150878   6.067   2.746   2.157  0.0820  0.2784  0.1123
 9821TIP3    H250879   6.212   2.741   2.112  0.0724 -0.6141  0.1678
 9822TIP3   OH250880   5.116   1.334   5.624  0.1731  0.2611 -0.0032
 9822TIP3    H150881   5.171   1.371   5.554  0.0940 -2.1410 -1.3936
 9822TIP3    H250882   5.028   1.336   5.588  0.2396 -1.7341 -0.3163
 9823TIP3   OH250883   6.440   4.122   2.416  0.2542  0.0886  0.0918
 9823TIP3    H150884   6.488   4.083   2.342  0.4809  1.8154 -0.6921
 9823TIP3    H250885   6.479   4.081   2.493  1.2472 -0.4265 -0.6590
 9824TIP3   OH250886   5.753   3.360  16.455  0.5055 -0.2075  0.1675
 9824TIP3    H150887   5.803   3.428  16.499  1.7092 -0.0241 -1.4276
 9824TIP3    H250888   5.803   3.341  16.375  0.0285 -2.6975  0.3930
 9825TIP3   OH250889   0.106   1.248  15.556 -0.6384 -0.6434 -0.0790
 9825TIP3    H150890   0.169   1.265  15.486 -1.0847 -0.3991 -0.4256
 9825TIP3    H250891   0.080   1.335  15.586 -0.9826 -0.7388 -0.0957
 9826TIP3   OH250892   1.716   0.208  11.479 -0.1490 -0.1570  0.7441
 9826TIP3    H150893   1.807   0.198  11.453  0.0236  0.6339  1.0345
 9826TIP3    H250894   1.694   0.299  11.456 -1.0413 -0.5174  0.1125
 9827TIP3   OH250895   6.037   3.257  13.544 -0.1331  0.1183 -0.4978
 9827TIP3    H150896   6.044   3.293  13.633  0.9491 -1.0076 -0.1271
 9827TIP3    H250897   6.119   3.283  13.501 -0.0949 -0.4435 -0.7656
 9828TIP3   OH250898   2.815   2.236   2.755  0.1335 -0.0218  0.1087
 9828TIP3    H150899   2.757   2.176   2.708 -1.2018  0.7152  0.7894
 9828TIP3    H250900   2.857   2.288   2.687 -0.6444  0.0147 -0.3420
 9829TIP3   OH250901   0.092   0.549   4.545 -0.1730  1.2321 -0.0291
 9829TIP3    H150902   0.120   0.637   4.519 -0.7824  0.5243 -3.2966
 9829TIP3    H250903   0.005   0.562   4.583  1.1426  2.4251  2.6822
 9830TIP3   OH250904   4.668   4.146   5.275  0.0652  0.5215 -0.4382
 9830TIP3    H150905   4.717   4.204   5.333 -0.0230  0.5437 -0.3853
 9830TIP3    H250906   4.729   4.076   5.253  0.7434  1.5317 -1.8947
 9831TIP3   OH250907   5.560   1.608   1.507  0.0864 -0.9816  0.0787
 9831TIP3    H150908   5.476   1.566   1.526 -0.7478  0.6056 -0.0750
 9831TIP3    H250909   5.585   1.649   1.590 -0.2741  0.2557 -0.4270
 9832TIP3   OH250910   2.444   1.296  12.814  0.0466  0.1617 -0.2627
 9832TIP3    H150911   2.463   1.370  12.757 -1.5585  0.5195 -0.3681
 9832TIP3    H250912   2.349   1.287  12.810  0.1576 -1.4837  0.2721
 9833TIP3   OH250913   5.683   6.630  16.070 -0.3670  0.4983 -0.1683
 9833TIP3    H150914   5.702   6.553  16.016 -0.0583  0.5307 -0.1137
 9833TIP3    H250915   5.737   6.700  16.032 -0.7714  0.7256 -0.3248
 9834TIP3   OH250916   0.388   5.414  14.612 -0.1843 -0.1900 -0.3034
 9834TIP3    H150917   0.406   5.490  14.667 -0.3104 -1.0595  0.9840
 9834TIP3    H250918   0.305   5.434  14.570 -0.0602  0.5163 -0.2224
 9835TIP3   OH250919   1.780   2.588  16.412 -0.0382 -0.0143  0.4427
 9835TIP3    H150920   1.730   2.666  16.387  0.6189 -0.1131 -1.2946
 9835TIP3    H250921   1.851   2.584  16.348  0.7219 -1.2860  1.3472
 9836TIP3   OH250922   6.625   3.542   3.786 -0.2078  0.1624  0.0740
 9836TIP3    H150923   6.715   3.539   3.753 -0.1712  0.7255  0.1175
 9836TIP3    H250924   6.585   3.462   3.753  0.3529 -0.1665  0.1809
 9837TIP3   OH250925   0.772   5.647  14.813 -0.5956  0.3163 -0.0208
 9837TIP3    H150926   0.718   5.595  14.872 -0.7055 -0.4445 -0.7806
 9837TIP3    H250927   0.789   5.589  14.739  1.5748  0.4166  0.3723
 9838TIP3   OH250928   5.444   2.159  13.852  0.1756  0.3850  0.3081
 9838TIP3    H150929   5.432   2.143  13.945  1.3101 -2.2641  0.0291
 9838TIP3    H250930   5.361   2.132  13.812  0.7310 -1.3335  0.2633
 9839TIP3   OH250931   3.278   0.523   5.527 -0.1148  0.4094 -0.3127
 9839TIP3    H150932   3.252   0.607   5.489 -0.5263  0.8646  0.9368
 9839TIP3    H250933   3.362   0.503   5.487 -1.0960  0.2743 -2.3615
 9840TIP3   OH250934   0.565   2.719   0.921  0.1636  0.2765  0.0828
 9840TIP3    H150935   0.485   2.767   0.901 -0.2573 -0.6443 -0.4652
 9840TIP3    H250936   0.535   2.640   0.968  0.7931  0.2152  0.3877
 9841TIP3   OH250937   5.185   4.632   3.934 -0.0111 -0.5458  0.9358
 9841TIP3    H150938   5.127   4.558   3.917 -0.0959 -0.5042  1.0419
 9841TIP3    H250939   5.271   4.603   3.903 -0.5235  0.2253 -1.3499
 9842TIP3   OH250940   4.652   4.560   0.676 -0.4872  0.5748  0.0502
 9842TIP3    H150941   4.745   4.572   0.693 -0.2972 -0.3029 -0.2918
 9842TIP3    H250942   4.620   4.510   0.751 -0.4983  0.1524 -0.2334
 9843TIP3   OH250943   2.151   0.717  12.862  0.2313 -0.0267 -0.1515
 9843TIP3    H150944   2.114   0.762  12.786  0.0331  0.6349  0.3238
 9843TIP3    H250945   2.246   0.733  12.855  0.1519  0.5765  0.0751
 9844TIP3   OH250946   5.811   0.350   1.160 -0.4956 -0.0469 -0.4032
 9844TIP3    H150947   5.834   0.443   1.165 -0.2357 -0.1099 -0.3939
 9844TIP3    H250948   5.894   0.306   1.140 -0.4243 -0.3756  0.5535
 9845TIP3   OH250949   3.035   6.443  11.045 -0.4228  0.4934  0.4913
 9845TIP3    H150950   3.010   6.533  11.025 -2.0283 -0.5544 -2.4274
 9845TIP3    H250951   2.953   6.394  11.044  0.8417 -1.6834 -1.7618
 9846TIP3   OH250952   5.951   4.170  12.385  0.8754  0.7070  0.0946
 9846TIP3    H150953   6.008   4.154  12.460 -0.5141 -0.6208  0.9129
 9846TIP3    H250954   5.946   4.265  12.378  2.7712  0.8263  0.3211
 9847TIP3   OH250955   1.062   2.773  10.465  0.0053  0.7317  0.0255
 9847TIP3    H150956   1.151   2.759  10.497  0.3864  2.7820 -0.0795
 9847TIP3    H250957   1.009   2.708  10.513  1.5044 -0.3859  0.2097
 9848TIP3   OH250958   1.079   3.389  17.086  0.4947  0.1955 -0.0928
 9848TIP3    H150959   1.153   3.337  17.053  0.3718  1.1358 -1.9274
 9848TIP3    H250960   1.114   3.478  17.092  0.6038 -0.0044  2.6868
 9849TIP3   OH250961   4.290   0.046   0.708 -0.0853 -0.3237  0.0910
 9849TIP3    H150962   4.235   0.115   0.671  0.9046 -0.6681 -2.1097
 9849TIP3    H250963   4.374   0.056   0.663  0.8691 -1.3566  1.6077
 9850TIP3   OH250964   3.780   5.549  16.452 -0.5433  0.0856  0.3342
 9850TIP3    H150965   3.707   5.603  16.483  0.5454  2.6902 -1.4854
 9850TIP3    H250966   3.771   5.550  16.356  0.1053 -2.1726  0.2131
 9851TIP3   OH250967   2.438   3.846   2.806  0.2629  0.6807 -0.3062
 9851TIP3    H150968   2.521   3.894   2.813  1.9410 -2.2095  0.4572
 9851TIP3    H250969   2.431   3.798   2.889  0.2030 -2.7131 -2.1771
 9852TIP3   OH250970   3.181   0.917   1.861 -0.2473  0.2594 -0.2642
 9852TIP3    H150971   3.149   1.006   1.873  0.0570  0.5051 -1.2337
 9852TIP3    H250972   3.267   0.927   1.822  0.6005 -0.4244  1.3677
 9853TIP3   OH250973   5.513   3.419  16.568  0.1857  0.8658 -0.0752
 9853TIP3    H150974   5.511   3.505  16.527  2.1480  0.7480 -0.4594
 9853TIP3    H250975   5.603   3.389  16.557 -0.8019 -1.8244 -1.1567
 9854TIP3   OH250976   1.934   2.884   4.022 -0.0163  0.1667 -0.2562
 9854TIP3    H150977   1.874   2.957   4.036 -1.0330 -0.6129 -0.5349
 9854TIP3    H250978   1.987   2.910   3.946 -0.6481  0.4321 -0.6041
 9855TIP3   OH250979   3.074   0.901  15.584  0.4397  0.5166  0.6791
 9855TIP3    H150980   3.040   0.831  15.639 -2.4721  0.7115 -0.7484
 9855TIP3    H250981   3.143   0.859  15.532 -0.8066 -1.1460  0.3195
 9856TIP3   OH250982   1.565   1.790   1.728  0.2035  0.1518 -0.8272
 9856TIP3    H150983   1.642   1.830   1.767  0.8961 -0.0396 -1.9597
 9856TIP3    H250984   1.600   1.737   1.656 -0.8513 -1.0745 -0.4567
 9857TIP3   OH250985   5.218   5.147   5.275 -0.0946 -0.4049 -0.2384
 9857TIP3    H150986   5.238   5.071   5.331 -0.1412 -0.4329 -0.2588
 9857TIP3    H250987   5.289   5.149   5.211  0.3953  0.1136  0.3176
 9858TIP3   OH250988   6.003   3.537   4.112 -0.5112 -0.1691  0.0088
 9858TIP3    H150989   5.945   3.605   4.079  0.2513  0.2249 -0.5363
 9858TIP3    H250990   5.960   3.455   4.088 -0.9973  0.1174 -0.1018
 9859TIP3   OH250991   2.053   6.218   2.527 -0.1378 -0.2293 -0.1951
 9859TIP3    H150992   2.060   6.234   2.621 -2.1415 -0.3140  0.0007
 9859TIP3    H250993   2.040   6.123   2.519 -0.8710 -0.1050 -0.4961
 9860TIP3   OH250994   6.609   0.893  12.612  0.4674 -0.3693 -0.4919
 9860TIP3    H150995   6.525   0.873  12.569  0.0771  1.8260 -0.7966
 9860TIP3    H250996   6.668   0.823  12.583 -1.3116 -2.0872 -0.0704
 9861TIP3   OH250997   2.322   4.135   1.937 -0.4154 -0.6366 -0.1756
 9861TIP3    H150998   2.298   4.088   1.857 -1.9595 -1.1792  0.5777
 9861TIP3    H250999   2.250   4.116   1.998 -0.2245  1.3469  0.6952
 9862TIP3   OH251000   3.632   0.512   4.790 -0.7071  0.0169 -0.1744
 9862TIP3    H151001   3.726   0.500   4.782 -0.9610 -0.1061 -4.0435
 9862TIP3    H251002   3.620   0.606   4.803 -0.0976  0.3669 -1.9675
 9863TIP3   OH251003   4.922   0.276  14.448  0.7777  0.5185  0.5181
 9863TIP3    H151004   4.944   0.338  14.518  0.8628  2.2897 -1.0374
 9863TIP3    H251005   4.894   0.331  14.375 -0.2114 -1.3434 -0.5440
 9864TIP3   OH251006   2.128   1.774  16.431  0.2957  0.0320 -0.0455
 9864TIP3    H151007   2.190   1.722  16.483  1.0334  1.4026  0.4755
 9864TIP3    H251008   2.110   1.851  16.485 -0.9552  0.2233 -0.7091
 9865TIP3   OH251009   1.969   5.339   2.470  0.2533 -0.1705 -0.2530
 9865TIP3    H151010   1.883   5.381   2.472  0.7236  0.9595 -2.2261
 9865TIP3    H251011   2.031   5.411   2.481  0.9861 -0.7540 -0.5176
 9866TIP3   OH251012   5.461   2.407   0.972  0.1020 -0.1912  0.3835
 9866TIP3    H151013   5.461   2.338   1.038 -2.0823 -1.7572 -1.1761
 9866TIP3    H251014   5.386   2.463   0.994  0.3152  0.1933  0.1512
 9867TIP3   OH251015   1.530   5.776   1.283 -0.4828 -0.4767 -0.5511
 9867TIP3    H151016   1.452   5.827   1.259 -0.1079  0.2061 -0.3136
 9867TIP3    H251017   1.539   5.712   1.212 -1.2214 -0.5133 -0.6156
 9868TIP3   OH251018   3.401   0.269  15.736  0.4031 -0.5984 -0.6243
 9868TIP3    H151019   3.405   0.180  15.701 -0.6511 -1.8412  2.2820
 9868TIP3    H251020   3.324   0.308  15.695  0.0875 -1.4841 -0.8816
 9869TIP3   OH251021   6.175   1.900   3.180  0.9492  0.3854 -0.2553
 9869TIP3    H151022   6.146   1.967   3.119  2.9543  0.1715 -1.4748
 9869TIP3    H251023   6.192   1.947   3.261  0.0957  0.9602 -0.4047
 9870TIP3   OH251024   1.674   2.747  16.109 -0.6841 -0.1302 -0.6544
 9870TIP3    H151025   1.582   2.759  16.083  0.2299  3.1331 -2.7767
 9870TIP3    H251026   1.691   2.654  16.093 -3.2557 -0.5196 -1.4758
 9871TIP3   OH251027   3.321   3.614  15.057  0.0673  0.0234  0.1103
 9871TIP3    H151028   3.356   3.623  15.146 -1.7407 -2.2011  1.0842
 9871TIP3    H251029   3.266   3.691  15.046  1.1440  0.8692  0.4976
 9872TIP3   OH251030   3.893   6.210   2.108  0.5099 -0.3763 -0.0561
 9872TIP3    H151031   3.801   6.223   2.131  0.2200 -0.6353 -1.0489
 9872TIP3    H251032   3.917   6.289   2.061  0.5550 -0.6561 -0.5116
 9873TIP3   OH251033   5.829   1.509  10.524  0.1907 -0.3558 -0.5195
 9873TIP3    H151034   5.799   1.434  10.575 -0.4537 -0.0536 -0.4517
 9873TIP3    H251035   5.752   1.537  10.474 -0.0088  1.2003  0.6016
 9874TIP3   OH251036   6.421   4.265  12.474  0.2907  0.2446  0.4228
 9874TIP3    H151037   6.345   4.211  12.496 -1.3692  2.1032 -0.6096
 9874TIP3    H251038   6.462   4.220  12.400 -1.5759  0.7881 -0.9855
 9875TIP3   OH251039   4.187   6.280  14.272 -0.1928  0.2879  0.0128
 9875TIP3    H151040   4.227   6.327  14.199  1.3592 -0.3311  0.4557
 9875TIP3    H251041   4.097   6.312  14.274  0.3999  2.0583 -0.6802
 9876TIP3   OH251042   0.879   1.991   1.467 -0.0641 -0.3438 -0.5116
 9876TIP3    H151043   0.836   2.047   1.532 -0.0131 -1.0794  0.1637
 9876TIP3    H251044   0.952   1.951   1.514  0.0610 -0.7697 -1.0635
 9877TIP3   OH251045   5.115   3.505   1.949 -0.1158  0.0513 -0.6433
 9877TIP3    H151046   5.103   3.569   1.878  2.0078  0.9787 -0.2401
 9877TIP3    H251047   5.151   3.557   2.021 -0.0517 -1.2995  0.3121
 9878TIP3   OH251048   5.114   3.942  17.220  0.1661  0.3044  0.0611
 9878TIP3    H151049   5.091   3.871  17.161 -0.3779  1.1759 -0.7890
 9878TIP3    H251050   5.032   3.962  17.266 -0.1690  1.7202 -1.1392
 9879TIP3   OH251051   5.041   6.693   2.294  0.0998 -0.1625  0.5248
 9879TIP3    H151052   5.033   6.665   2.385 -0.2905 -0.2389  0.4675
 9879TIP3    H251053   4.952   6.691   2.261  0.4983 -2.1988 -0.4761
 9880TIP3   OH251054   4.147   1.030   0.182  0.1097  0.5752  0.1539
 9880TIP3    H151055   4.131   0.950   0.132 -1.5362  0.5428  0.7025
 9880TIP3    H251056   4.189   1.000   0.262  1.9905  0.5462 -0.8137
 9881TIP3   OH251057   4.600   6.080  13.862 -0.8675  0.1454  0.1663
 9881TIP3    H151058   4.666   6.016  13.836 -1.3911 -0.0513 -0.7211
 9881TIP3    H251059   4.522   6.028  13.880 -0.9473  0.4306  0.6508
 9882TIP3   OH251060   2.327   0.254  13.416  0.2958  0.5314 -0.1951
 9882TIP3    H151061   2.370   0.185  13.466  0.9071  1.2021  0.2243
 9882TIP3    H251062   2.319   0.327  13.478  2.3615  1.8838 -1.4676
 9883TIP3   OH251063   6.377   0.194   4.994 -0.1453  0.0493 -0.3024
 9883TIP3    H151064   6.331   0.250   4.932  1.3296 -0.4665 -1.9005
 9883TIP3    H251065   6.364   0.236   5.079  0.4195  2.4806 -1.3885
 9884TIP3   OH251066   5.086   5.597   2.127  0.0179 -0.4492 -0.6796
 9884TIP3    H151067   5.039   5.514   2.119  1.1579 -1.6475  3.9270
 9884TIP3    H251068   5.134   5.590   2.209  1.5239  4.1304 -1.0310
 9885TIP3   OH251069   4.717   5.772   6.814 -0.4614  0.0891 -0.6112
 9885TIP3    H151070   4.682   5.688   6.785 -2.6939  0.1904  1.5982
 9885TIP3    H251071   4.697   5.833   6.743 -0.9611 -0.7656 -1.2089
 9886TIP3   OH251072   6.008   5.818   3.401  0.3646 -0.3752  0.1268
 9886TIP3    H151073   6.091   5.829   3.354  1.5987  0.5268  2.4703
 9886TIP3    H251074   6.030   5.831   3.493 -2.2948 -0.6629  0.8439
 9887TIP3   OH251075   4.878   0.666  16.270  0.4694 -0.5534 -0.7904
 9887TIP3    H151076   4.879   0.677  16.365 -0.0089 -0.3200 -0.8129
 9887TIP3    H251077   4.837   0.581  16.255 -1.7191  0.4810 -0.8874
 9888TIP3   OH251078   6.174   3.920   5.852  0.2672 -0.3334 -0.0069
 9888TIP3    H151079   6.141   3.834   5.827  1.6427 -0.4796 -1.3881
 9888TIP3    H251080   6.163   3.924   5.947 -0.1700 -1.8662  0.0120
 9889TIP3   OH251081   5.695   1.564  16.521 -0.7898 -0.1688 -0.3245
 9889TIP3    H151082   5.610   1.598  16.549 -0.9818 -0.5646 -0.4316
 9889TIP3    H251083   5.749   1.568  16.600 -0.7041  0.7205 -0.4248
 9890TIP3   OH251084   4.341   3.352  14.956 -0.2098  0.3635 -0.3318
 9890TIP3    H151085   4.333   3.264  14.994 -0.2109 -0.3267 -1.8706
 9890TIP3    H251086   4.254   3.390  14.964 -0.2074  0.2222  0.3611
 9891TIP3   OH251087   5.336   0.255   1.873  0.2679 -0.7450 -0.6332
 9891TIP3    H151088   5.357   0.279   1.783 -0.6277  2.5994 -0.0057
 9891TIP3    H251089   5.244   0.226   1.869  0.4199 -1.1974 -0.8872
 9892TIP3   OH251090   4.306   0.825  11.728  0.7594  0.2636 -0.0093
 9892TIP3    H151091   4.212   0.809  11.721  0.8237  0.2206 -0.7949
 9892TIP3    H251092   4.322   0.834  11.822 -0.1142  0.8134  0.0834
 9893TIP3   OH251093   2.066   1.354   0.436  0.5503  0.2800  0.7082
 9893TIP3    H151094   2.042   1.272   0.393 -3.7981  0.2214  3.0072
 9893TIP3    H251095   2.076   1.416   0.363 -1.3521 -1.0442 -0.7288
 9894TIP3   OH251096   1.342   5.084  11.780 -0.0278  0.1258 -0.4608
 9894TIP3    H151097   1.377   5.139  11.709  0.6414 -0.6569 -0.7450
 9894TIP3    H251098   1.409   5.018  11.794 -1.0129 -0.8755 -0.4046
 9895TIP3   OH251099   4.640   2.361  11.851  0.0374  0.0088 -0.0776
 9895TIP3    H151100   4.695   2.421  11.902 -0.2345  1.0368 -0.9607
 9895TIP3    H251101   4.556   2.360  11.898  0.3031 -0.3149  0.3909
 9896TIP3   OH251102   3.595   5.004   5.723 -0.6221  0.0648  0.3766
 9896TIP3    H151103   3.523   4.953   5.686  2.4776 -2.1239 -2.9516
 9896TIP3    H251104   3.620   5.065   5.653  1.4043  0.0597  1.0596
 9897TIP3   OH251105   2.878   3.349   6.501 -0.1298  0.2940  0.1649
 9897TIP3    H151106   2.917   3.430   6.535 -0.6040  1.0649 -1.0768
 9897TIP3    H251107   2.816   3.379   6.434 -1.3826 -1.0264  0.7000
 9898TIP3   OH251108   0.071   0.816   0.510  0.2391  0.1521 -0.2564
 9898TIP3    H151109   0.094   0.858   0.593 -1.5469 -2.9091  1.8628
 9898TIP3    H251110   0.142   0.754   0.493 -0.4927 -0.8147  0.1600
 9899TIP3   OH251111   2.156   4.319  13.439  0.0626 -0.1144 -0.7408
 9899TIP3    H151112   2.085   4.304  13.501  0.5744 -0.4179 -0.2191
 9899TIP3    H251113   2.210   4.240  13.445  1.3264  0.7895  0.0640
 9900TIP3   OH251114   0.944   5.953   4.668 -0.3412 -0.0186  0.5529
 9900TIP3    H151115   1.011   6.022   4.669 -1.7133  1.4336 -1.7854
 9900TIP3    H251116   0.902   5.963   4.582 -0.8375 -3.5543  0.3179
 9901TIP3   OH251117   0.920   5.579   5.660  0.2743  0.4897  0.3062
 9901TIP3    H151118   0.934   5.668   5.627 -1.7267 -0.4595 -3.2884
 9901TIP3    H251119   0.943   5.522   5.587  0.7906 -1.9654  2.3106
 9902TIP3   OH251120   6.199   2.680   2.905  0.5532  0.6186 -0.2373
 9902TIP3    H151121   6.194   2.745   2.975  0.9121 -0.3115  0.6763
 9902TIP3    H251122   6.292   2.674   2.884  0.5676  0.1724 -0.0710
 9903TIP3   OH251123   2.008   5.048   2.547  0.5768 -0.1174 -0.0258
 9903TIP3    H151124   2.005   5.135   2.508 -1.3827 -0.1884 -0.0924
 9903TIP3    H251125   2.023   5.064   2.640 -2.4800  0.4808  0.4195
 9904TIP3   OH251126   6.527   2.597   0.235  0.2391 -0.1533  0.3243
 9904TIP3    H151127   6.473   2.567   0.162  0.8583  0.4623 -0.4018
 9904TIP3    H251128   6.569   2.677   0.202 -0.2385  0.6714  1.7099
 9905TIP3   OH251129   5.759   6.140   5.428 -0.5620  0.3455  0.0979
 9905TIP3    H151130   5.796   6.191   5.357 -1.1506  1.9681  0.9117
 9905TIP3    H251131   5.770   6.196   5.506 -2.4370 -0.1699  0.7729
 9906TIP3   OH251132   3.610   1.952   4.905 -0.0256 -0.0252 -0.5345
 9906TIP3    H151133   3.556   1.890   4.954 -0.0624  0.4078 -0.0231
 9906TIP3    H251134   3.682   1.973   4.965  0.2885  0.0007 -0.9196
 9907TIP3   OH251135   0.747   5.938   4.392  0.0400  0.0808 -0.0914
 9907TIP3    H151136   0.719   5.847   4.381  0.1074 -0.3139  2.7741
 9907TIP3    H251137   0.680   5.989   4.346 -0.9751 -1.3065 -0.1844
 9908TIP3   OH251138   1.267   1.591   3.736 -0.1347  0.2296  0.0723
 9908TIP3    H151139   1.188   1.549   3.702  0.4629  0.3281 -1.4875
 9908TIP3    H251140   1.297   1.533   3.806 -0.7370 -0.6153 -0.3609
 9909TIP3   OH251141   2.945   4.497  14.477  0.2055  0.1324  0.0463
 9909TIP3    H151142   3.000   4.569  14.446 -0.4491  1.2379  1.3841
 9909TIP3    H251143   2.902   4.464  14.398  0.4284  1.2768 -0.5736
 9910TIP3   OH251144   3.868   3.550  10.504  0.0431 -0.3006 -0.3561
 9910TIP3    H151145   3.784   3.506  10.490 -0.6547  0.9828 -0.2392
 9910TIP3    H251146   3.932   3.490  10.465 -0.7564 -1.9686  0.7937
 9911TIP3   OH251147   5.900   1.804   1.864 -0.0686  0.5372  0.0444
 9911TIP3    H151148   5.935   1.734   1.918  1.4365  1.1409 -0.1148
 9911TIP3    H251149   5.946   1.794   1.780 -3.5194 -1.3962 -1.7563
 9912TIP3   OH251150   4.405   0.910  13.961 -0.0767  0.4987  0.0877
 9912TIP3    H151151   4.323   0.876  13.996  0.2489  1.5161  1.8895
 9912TIP3    H251152   4.435   0.974  14.025  1.5806  0.9527 -1.0743
 9913TIP3   OH251153   4.454   6.619  16.928 -0.4549 -0.7507  0.2255
 9913TIP3    H151154   4.454   6.676  16.850  0.3956  0.5414  1.1538
 9913TIP3    H251155   4.367   6.631  16.965 -0.6998 -1.0037 -0.2604
 9914TIP3   OH251156   4.920   5.424   4.850 -0.7274 -0.5846 -0.0672
 9914TIP3    H151157   4.976   5.477   4.906 -0.4069  0.4759 -1.3521
 9914TIP3    H251158   4.957   5.336   4.855  0.2792 -0.1640  0.0999
 9915TIP3   OH251159   3.919   1.354   6.319 -0.3081 -0.1988 -0.3388
 9915TIP3    H151160   3.970   1.304   6.382 -1.1825  0.0401  0.5693
 9915TIP3    H251161   3.828   1.332   6.339 -0.6610  1.0730 -0.5042
 9916TIP3   OH251162   4.094   0.873   2.884  0.3165 -0.8848 -0.4256
 9916TIP3    H151163   4.102   0.946   2.946 -0.9221 -2.0524  1.1640
 9916TIP3    H251164   4.182   0.836   2.878  0.7920  0.2610 -0.6547
 9917TIP3   OH251165   3.519   0.223  13.429  0.2312 -0.2828 -0.0146
 9917TIP3    H151166   3.462   0.174  13.369 -0.6057  1.6092 -0.8026
 9917TIP3    H251167   3.500   0.186  13.515 -0.3836 -1.3334 -0.5886
 9918TIP3   OH251168   0.274   1.836   4.220 -0.0874 -0.7587 -0.4815
 9918TIP3    H151169   0.218   1.914   4.222 -1.1281 -1.5328  1.7752
 9918TIP3    H251170   0.363   1.870   4.232 -0.4987  0.1258  0.1355
 9919TIP3   OH251171   3.036   2.013  15.685  0.2589  0.2264  0.1382
 9919TIP3    H151172   2.967   2.073  15.716  0.2459 -0.2962  1.1715
 9919TIP3    H251173   3.030   2.017  15.590 -0.5438  0.9510  0.2029
 9920TIP3   OH251174   3.720   1.799   3.860 -0.1000 -0.3923  0.2675
 9920TIP3    H151175   3.701   1.892   3.874  2.5650  0.3291 -0.7268
 9920TIP3    H251176   3.688   1.781   3.772 -0.7614 -0.4609  0.5205
 9921TIP3   OH251177   1.055   0.825  13.211  0.0876  0.1541  0.3104
 9921TIP3    H151178   0.990   0.823  13.282 -0.0897  0.3559  0.1553
 9921TIP3    H251179   1.138   0.803  13.253 -0.3621 -1.7864  0.2039
 9922TIP3   OH251180   3.152   5.660  15.088 -0.0889 -0.0372  0.0259
 9922TIP3    H151181   3.160   5.622  15.176 -0.7723  0.6933  0.4105
 9922TIP3    H251182   3.186   5.593  15.030 -0.2987 -0.8136  0.7908
 9923TIP3   OH251183   5.095   3.675   2.373 -0.5424 -0.0528 -0.4349
 9923TIP3    H151184   5.040   3.614   2.324 -0.2800 -0.1714 -0.5759
 9923TIP3    H251185   5.051   3.684   2.458 -1.3527  0.6489 -0.9136
 9924TIP3   OH251186   2.725   6.653  14.368  0.2544  0.5068  0.4736
 9924TIP3    H151187   2.791   6.685  14.429 -1.2590  1.2887  1.7503
 9924TIP3    H251188   2.691   6.574  14.409 -1.3555  1.4891  1.1025
 9925TIP3   OH251189   5.075   5.159   5.858  0.1744  0.0131 -0.3811
 9925TIP3    H151190   5.079   5.197   5.947  1.4585  0.8067 -0.7668
 9925TIP3    H251191   5.166   5.150   5.832 -0.2125  0.6163 -1.9752
 9926TIP3   OH251192   0.512   5.211   1.868  0.4466  0.2563 -0.0064
 9926TIP3    H151193   0.472   5.243   1.788  1.3474  0.0939 -0.5235
 9926TIP3    H251194   0.513   5.287   1.927 -2.2536 -0.1772  0.6713
 9927TIP3   OH251195   6.661   5.054  14.453  0.1082 -0.3001 -0.0593
 9927TIP3    H151196   6.726   5.119  14.479  2.2988 -1.8864 -1.4355
 9927TIP3    H251197   6.636   5.080  14.364 -0.7001 -0.0714  0.2239
 9928TIP3   OH251198   1.034   2.852   6.034 -0.8218 -0.1323  0.3348
 9928TIP3    H151199   1.024   2.785   5.966  0.5966 -0.4527  0.4241
 9928TIP3    H251200   0.949   2.854   6.079 -1.5764 -0.3449 -1.0496
 9929TIP3   OH251201   5.272   3.803  13.436  0.7579 -0.5886 -0.1358
 9929TIP3    H151202   5.244   3.768  13.352 -0.4075 -0.6014  0.2528
 9929TIP3    H251203   5.340   3.742  13.465  0.0265 -1.5143 -0.3211
 9930TIP3   OH251204   5.387   1.992   0.182 -0.6483  0.3749  0.6882
 9930TIP3    H151205   5.358   2.033   0.100  0.4275 -1.6428 -0.7293
 9930TIP3    H251206   5.432   2.062   0.229 -0.5580  1.3411 -0.8077
 9931TIP3   OH251207   1.825   5.172  12.703  0.5462 -0.0673 -0.0248
 9931TIP3    H151208   1.793   5.185  12.614  0.2081 -2.6757 -0.3155
 9931TIP3    H251209   1.910   5.130  12.692  0.5863 -0.2328  0.8785
 9932TIP3   OH251210   6.686   5.664  14.246 -0.2149 -0.2171  0.0430
 9932TIP3    H151211   6.615   5.726  14.234  0.2931  0.1796 -1.0232
 9932TIP3    H251212   6.728   5.658  14.160 -0.3052 -2.1141  0.0940
 9933TIP3   OH251213   0.128   6.090   0.256 -0.6432 -0.5095 -0.0787
 9933TIP3    H151214   0.169   6.047   0.330 -1.5972 -0.0687  0.7201
 9933TIP3    H251215   0.088   6.019   0.206 -1.8391 -0.6286  1.0046
 9934TIP3   OH251216   3.414   3.163  12.532  0.1354 -0.0848  0.5097
 9934TIP3    H151217   3.432   3.069  12.540  1.6672  0.2081  0.7156
 9934TIP3    H251218   3.351   3.169  12.461  1.0502 -1.1636 -0.4145
 9935TIP3   OH251219   0.231   2.876  15.196 -0.0250 -0.4403  0.5154
 9935TIP3    H151220   0.175   2.799  15.207 -0.5304 -0.1629 -0.1266
 9935TIP3    H251221   0.181   2.948  15.235  0.0531 -0.2639  0.2891
 9936TIP3   OH251222   2.168   3.243   1.882 -0.0191 -0.3798 -0.3802
 9936TIP3    H151223   2.083   3.230   1.925  0.4708 -0.3106  0.6183
 9936TIP3    H251224   2.193   3.156   1.853 -0.8256 -0.2689 -1.4295
 9937TIP3   OH251225   3.920   5.028  13.011  0.6108  0.2898 -0.5658
 9937TIP3    H151226   3.860   5.014  13.085 -0.1230 -1.4566 -1.4719
 9937TIP3    H251227   4.003   5.051  13.052  0.2423 -0.7815  0.8305
 9938TIP3   OH251228   2.674   2.634  13.914 -0.0841 -0.6345 -0.1253
 9938TIP3    H151229   2.585   2.630  13.880 -0.8008  2.1159  1.3123
 9938TIP3    H251230   2.728   2.596  13.845 -2.1816 -0.8385 -1.6876
 9939TIP3   OH251231   4.532   2.509   4.783 -0.3975 -0.3096  0.5313
 9939TIP3    H151232   4.540   2.515   4.878 -0.8095 -1.5734  0.6519
 9939TIP3    H251233   4.439   2.520   4.766 -0.3361 -0.1706  0.2796
 9940TIP3   OH251234   2.490   2.322   4.534  0.3300  0.5370 -0.1277
 9940TIP3    H151235   2.496   2.346   4.442 -3.4278 -2.3947 -1.2502
 9940TIP3    H251236   2.492   2.226   4.534 -0.2292  0.4792  2.7860
 9941TIP3   OH251237   0.351   1.105  14.816 -0.0470  0.2768  0.0103
 9941TIP3    H151238   0.316   1.123  14.729  1.1792 -1.1812 -0.8122
 9941TIP3    H251239   0.430   1.159  14.822 -0.1378  0.3865  0.2271
 9942TIP3   OH251240   1.778   2.390  15.488  0.4144  0.4845 -0.6507
 9942TIP3    H151241   1.790   2.296  15.479 -1.0550  0.2144  0.0078
 9942TIP3    H251242   1.830   2.414  15.565  0.4346  0.1381 -0.5564
 9943TIP3   OH251243   3.547   3.453  14.088  0.0743  0.6907  0.1410
 9943TIP3    H151244   3.513   3.437  14.176 -2.0641  0.4369 -0.6919
 9943TIP3    H251245   3.623   3.509  14.102 -2.2343  3.5068  1.9372
 9944TIP3   OH251246   1.000   2.408  13.096  0.3210 -0.3549 -0.0131
 9944TIP3    H151247   1.058   2.473  13.137 -1.3426  0.7538  0.6250
 9944TIP3    H251248   0.920   2.457  13.076  0.0090 -1.6129 -1.8878
 9945TIP3   OH251249   1.417   2.216   3.180 -0.5310 -0.2244  0.5170
 9945TIP3    H151250   1.474   2.239   3.254  0.8088 -0.9967 -0.2572
 9945TIP3    H251251   1.329   2.217   3.216 -0.0100  0.7890  1.7923
 9946TIP3   OH251252   4.128   3.880  16.240  0.3903 -0.0625  0.1438
 9946TIP3    H151253   4.160   3.969  16.258  0.0147 -0.0441  0.7421
 9946TIP3    H251254   4.207   3.830  16.221  1.1983 -0.7660  4.7891
 9947TIP3   OH251255   6.600   5.054  11.049  0.5899  0.5165  0.4886
 9947TIP3    H151256   6.544   5.067  11.126 -0.7729 -1.3248 -0.1479
 9947TIP3    H251257   6.558   5.105  10.979  1.1713  1.2286  0.6475
 9948TIP3   OH251258   1.376   6.699   0.426  0.3602  0.0885 -0.1307
 9948TIP3    H151259   1.336   6.680   0.511 -0.3226  0.1372 -0.4372
 9948TIP3    H251260   1.420   6.617   0.402 -2.7332 -1.2625 -1.5385
 9949TIP3   OH251261   2.394   0.271   4.161 -0.3136 -0.3543  0.5778
 9949TIP3    H151262   2.344   0.279   4.079 -1.5330 -0.6185  1.2890
 9949TIP3    H251263   2.472   0.220   4.136 -1.4515 -1.8189 -0.0908
 9950TIP3   OH251264   0.479   3.398   4.467 -0.2419  0.4927 -0.0534
 9950TIP3    H151265   0.501   3.490   4.457  1.2990 -0.2653 -4.4207
 9950TIP3    H251266   0.410   3.382   4.403  0.9168 -1.8196 -0.7931
 9951TIP3   OH251267   1.599   5.063   5.064  0.0327  0.0799  0.0473
 9951TIP3    H151268   1.512   5.068   5.105 -0.8417 -0.0407 -1.7420
 9951TIP3    H251269   1.646   5.140   5.098 -1.6609  1.6027 -0.9534
 9952TIP3   OH251270   0.476   4.148   5.038  0.1226 -0.6719 -0.5949
 9952TIP3    H151271   0.497   4.230   5.082  1.1325 -0.2991 -1.7318
 9952TIP3    H251272   0.387   4.160   5.004 -0.0848 -0.3982  0.0497
 9953TIP3   OH251273   2.792   1.441  17.235 -0.6403 -0.0728  0.0901
 9953TIP3    H151274   2.765   1.519  17.186  1.9493  1.3492  0.8183
 9953TIP3    H251275   2.886   1.434  17.219 -0.1983 -1.0106  2.8274
 9954TIP3   OH251276   1.978   3.364  16.287  0.3740  0.2156  0.3392
 9954TIP3    H151277   2.023   3.430  16.340  1.2925 -0.7305  0.7614
 9954TIP3    H251278   1.969   3.403  16.201  0.7331  0.9694  0.6430
 9955TIP3   OH251279   6.387   1.683  11.385  0.0888  0.2290 -0.5244
 9955TIP3    H151280   6.355   1.763  11.427  0.9923  0.7381 -0.8007
 9955TIP3    H251281   6.384   1.702  11.291  0.5382  0.0212 -0.5787
 9956TIP3   OH251282   0.034   4.720   1.465 -0.0191 -0.1327 -0.5930
 9956TIP3    H151283  -0.029   4.782   1.427  1.5110  0.1318 -2.8067
 9956TIP3    H251284  -0.016   4.639   1.475 -0.9678  0.3291 -1.4816
 9957TIP3   OH251285   2.642   5.495   2.762  0.1896  0.1744  0.1575
 9957TIP3    H151286   2.686   5.472   2.844  1.9643 -1.6972 -1.2511
 9957TIP3    H251287   2.711   5.489   2.696 -1.8293 -1.3256 -1.9085
 9958TIP3   OH251288   2.708   1.247   2.672  0.5673  0.9631 -0.1269
 9958TIP3    H151289   2.779   1.196   2.633  0.6701  1.0209 -0.0180
 9958TIP3    H251290   2.727   1.245   2.766 -1.9974 -2.7830  0.4221
 9959TIP3   OH251291   2.646   0.972  16.119 -0.2084  0.0322 -0.4304
 9959TIP3    H151292   2.738   0.945  16.118 -0.6102 -1.3956 -1.8918
 9959TIP3    H251293   2.616   0.954  16.208  0.5244 -0.9558 -0.3691
 9960TIP3   OH251294   0.087   3.424  14.741 -0.3188 -0.2548  0.3988
 9960TIP3    H151295   0.100   3.493  14.806 -1.5156 -1.6171  2.1275
 9960TIP3    H251296  -0.002   3.437  14.709  0.0909  0.0996 -0.6050
 9961TIP3   OH251297   3.469   3.624  15.620 -0.1518 -0.4049 -0.0519
 9961TIP3    H151298   3.385   3.584  15.596 -0.7642  0.8264  0.0382
 9961TIP3    H251299   3.518   3.629  15.537  0.2123 -1.9710  0.0487
 9962TIP3   OH251300   4.664   3.065  15.420  0.1338 -0.3706  0.6757
 9962TIP3    H151301   4.596   3.076  15.354 -0.2139  1.2122  1.2807
 9962TIP3    H251302   4.660   2.972  15.444 -2.1061 -0.2014  1.0293
 9963TIP3   OH251303   1.837   4.163  14.439 -1.1525 -0.5299 -0.2361
 9963TIP3    H151304   1.833   4.187  14.346  0.6524 -1.8283 -0.6919
 9963TIP3    H251305   1.853   4.246  14.484 -1.8861  0.0972 -1.1033
 9964TIP3   OH251306   1.761   2.381  14.517 -0.3462 -0.2155 -0.2765
 9964TIP3    H151307   1.790   2.471  14.507 -1.0418 -0.0821 -1.1656
 9964TIP3    H251308   1.772   2.342  14.431 -0.9413 -0.7135 -0.1324
 9965TIP3   OH251309   0.618   1.772   2.275  0.4229  0.0825 -0.0699
 9965TIP3    H151310   0.522   1.769   2.280  0.3304  0.4306 -1.4364
 9965TIP3    H251311   0.647   1.717   2.348 -0.8226 -0.3426  0.1276
 9966TIP3   OH251312   5.491   1.179  12.429 -0.2076 -0.0678 -0.1413
 9966TIP3    H151313   5.440   1.247  12.472 -0.3224  0.9749 -1.8689
 9966TIP3    H251314   5.455   1.097  12.461 -1.7316  0.6723  0.0718
 9967TIP3   OH251315   1.794   4.746   4.999  0.2001  0.2567  0.6385
 9967TIP3    H151316   1.700   4.756   5.018 -0.2537 -3.2823  0.6376
 9967TIP3    H251317   1.818   4.826   4.953 -3.0887  0.7704 -0.3139
 9968TIP3   OH251318   0.614   4.404  14.158 -0.1724  0.1921 -0.0664
 9968TIP3    H151319   0.580   4.389  14.246 -1.2320 -0.6198 -0.5884
 9968TIP3    H251320   0.606   4.498  14.144 -2.2268  0.0457 -0.1444
 9969TIP3   OH251321   6.108   5.489   0.148 -0.4686  1.2380  0.5206
 9969TIP3    H151322   6.015   5.470   0.143 -0.2358  0.6465 -1.8418
 9969TIP3    H251323   6.126   5.495   0.242 -2.9571  1.8265  0.9867
 9970TIP3   OH251324   1.659   3.473   4.487  0.1932 -0.4270 -0.1932
 9970TIP3    H151325   1.647   3.421   4.408  0.4902  0.2259 -0.6730
 9970TIP3    H251326   1.594   3.543   4.480  0.5559 -0.0800 -0.1026
 9971TIP3   OH251327   5.816   5.079   1.349  0.1472  0.1429 -0.3812
 9971TIP3    H151328   5.816   5.027   1.269 -0.2596 -0.6669  0.1290
 9971TIP3    H251329   5.761   5.154   1.329  0.4452  0.1908 -1.0165
 9972TIP3   OH251330   0.998   2.336  15.078  0.2968 -0.1588 -0.0940
 9972TIP3    H151331   1.086   2.350  15.113  0.2282  1.2584 -0.4281
 9972TIP3    H251332   1.012   2.320  14.984  0.1935  0.3624 -0.2040
 9973TIP3   OH251333   4.014   0.093   1.177 -0.0760 -0.5105 -0.2052
 9973TIP3    H151334   4.073   0.047   1.237  3.0101  1.7198 -1.3690
 9973TIP3    H251335   4.006   0.035   1.102 -0.7534 -1.5652  0.6655
 9974TIP3   OH251336   1.200   5.869   3.380 -0.4525  0.5113 -0.1471
 9974TIP3    H151337   1.232   5.860   3.290  0.4571  1.9307  0.0154
 9974TIP3    H251338   1.167   5.959   3.385 -2.8409 -0.3612  0.2236
 9975TIP3   OH251339   2.241   2.870  11.632 -0.0733 -0.2126 -0.3078
 9975TIP3    H151340   2.294   2.925  11.688 -0.7869  0.8323 -0.6263
 9975TIP3    H251341   2.273   2.888  11.543  0.4677 -1.1880 -0.3094
 9976TIP3   OH251342   2.927   6.292  11.676  0.0204 -0.5060 -0.3591
 9976TIP3    H151343   2.981   6.318  11.602 -1.0366 -0.3415 -1.0916
 9976TIP3    H251344   2.979   6.227  11.723 -0.2801 -2.4160 -2.6190
 9977TIP3   OH251345   4.189   5.497  12.604 -0.0832 -0.0370 -0.4179
 9977TIP3    H151346   4.140   5.563  12.555 -2.1000 -0.2265  1.2816
 9977TIP3    H251347   4.122   5.444  12.647  1.5863 -1.1907  0.8249
 9978TIP3   OH251348   4.237   2.788  12.820  0.1809  0.5451 -0.1104
 9978TIP3    H151349   4.190   2.720  12.868 -2.0421  1.4424 -0.9643
 9978TIP3    H251350   4.323   2.792  12.862  0.1905 -2.4455  0.2380
 9979TIP3   OH251351   2.406   2.474   2.855  0.4757  0.3401  0.8476
 9979TIP3    H151352   2.434   2.527   2.929  0.7218 -1.2107  1.8975
 9979TIP3    H251353   2.451   2.390   2.867  0.2639 -0.0501 -0.8807
 9980TIP3   OH251354   5.046   0.558  12.301 -0.9320 -0.5288 -0.3353
 9980TIP3    H151355   5.047   0.474  12.346  0.6056 -0.0627  0.5019
 9980TIP3    H251356   4.976   0.607  12.343  0.2040 -0.2564  1.2742
 9981TIP3   OH251357   5.606   3.143  13.653  0.1839 -0.0755 -0.1500
 9981TIP3    H151358   5.637   3.054  13.672  0.5525 -0.2495 -1.5152
 9981TIP3    H251359   5.515   3.132  13.627  0.3550 -0.0964 -0.7336
 9982TIP3   OH251360   6.199   6.362  15.764 -0.0018  0.2169 -0.0142
 9982TIP3    H151361   6.171   6.411  15.842  0.5492 -2.5604  2.0062
 9982TIP3    H251362   6.294   6.374  15.762  0.1065 -0.5635  0.3494
 9983TIP3   OH251363   5.216   0.986   6.005  0.0757 -0.0019  0.2407
 9983TIP3    H151364   5.130   0.953   6.032  0.5065 -0.2668  1.3386
 9983TIP3    H251365   5.207   1.005   5.912 -1.9982  2.5770  0.9153
 9984TIP3   OH251366   6.245   5.470  14.681 -0.0212 -0.2260  0.2068
 9984TIP3    H151367   6.216   5.393  14.633 -1.9032  0.9557 -0.6180
 9984TIP3    H251368   6.252   5.440  14.772 -0.6717 -1.3745 -0.1119
 9985TIP3   OH251369   6.063   5.450  11.994  0.3193 -0.1839  0.4648
 9985TIP3    H151370   6.092   5.382  12.056  1.5984  0.7402  0.9170
 9985TIP3    H251371   6.058   5.530  12.047 -1.7200 -0.0262  0.0613
 9986TIP3   OH251372   1.743   5.962  15.138  0.2135 -0.1776 -0.3497
 9986TIP3    H151373   1.658   5.928  15.109  0.3045  0.0782 -0.9277
 9986TIP3    H251374   1.796   5.964  15.058  0.7914 -0.4204  0.0267
 9987TIP3   OH251375   6.765   4.143   4.048 -0.7610  0.4552  0.2418
 9987TIP3    H151376   6.804   4.172   3.965 -0.4423  0.3707  0.3597
 9987TIP3    H251377   6.688   4.198   4.059 -1.0972  0.1203 -0.3704
 9988TIP3   OH251378   5.966   3.347  16.074  0.1158 -0.1117 -0.0364
 9988TIP3    H151379   5.953   3.395  15.992 -1.0868 -1.8690 -0.9037
 9988TIP3    H251380   6.011   3.267  16.048  2.8236  0.8460  1.5044
 9989TIP3   OH251381   4.573   5.731  11.470  0.0146 -0.3296  0.3935
 9989TIP3    H151382   4.546   5.793  11.537  0.3798 -0.0506  0.2820
 9989TIP3    H251383   4.561   5.645  11.510  0.2594 -0.1619  0.8247
 9990TIP3   OH251384   1.534   3.507   4.771 -0.2828 -0.5427 -0.0639
 9990TIP3    H151385   1.626   3.508   4.747 -0.0763  0.7625  0.7317
 9990TIP3    H251386   1.504   3.597   4.755 -1.9487 -1.4300 -2.2844
 9991TIP3   OH251387   6.093   6.557  10.991 -0.7491  0.1554  0.1229
 9991TIP3    H151388   6.098   6.570  11.086 -2.9510 -2.0647  0.5830
 9991TIP3    H251389   6.170   6.603  10.957  0.1467  0.8855  2.9841
 9992TIP3   OH251390   2.591   2.334   5.539  0.3374 -0.0592 -0.3693
 9992TIP3    H151391   2.601   2.425   5.509 -0.0723  0.8597  2.1894
 9992TIP3    H251392   2.628   2.282   5.468  0.7248  2.1067 -1.8244
 9993TIP3   OH251393   2.098   4.431  16.659 -0.2363 -0.2258  0.0461
 9993TIP3    H151394   2.160   4.496  16.625  0.0987  0.4498  1.8938
 9993TIP3    H251395   2.135   4.347  16.634 -0.4494  0.2504 -2.0080
 9994TIP3   OH251396   3.279   1.334  13.216 -0.1891  0.3334 -0.1147
 9994TIP3    H151397   3.370   1.334  13.245  0.2701 -0.7507 -1.4670
 9994TIP3    H251398   3.273   1.408  13.155  0.0583 -0.1923 -0.7866
 9995TIP3   OH251399   4.880   3.786   3.693 -0.3286 -0.5251  0.0315
 9995TIP3    H151400   4.939   3.842   3.643 -0.6755 -0.7058 -0.5920
 9995TIP3    H251401   4.936   3.745   3.759 -0.0057  0.2753  0.2672
 9996TIP3   OH251402   0.782   0.956   5.430  0.2057  0.6219  0.2002
 9996TIP3    H151403   0.776   0.975   5.336 -0.3575 -1.9656 -0.3204
 9996TIP3    H251404   0.705   0.999   5.468 -0.7915 -0.2017 -0.8609
 9997TIP3   OH251405   3.004   5.710   4.118  0.3911  0.2718  0.1137
 9997TIP3    H151406   2.960   5.642   4.068  0.9542  0.9866 -1.3874
 9997TIP3    H251407   3.075   5.665   4.163  1.1933 -0.0318 -1.4244
 9998TIP3   OH251408   5.055   3.351   3.679  0.4996 -0.2140 -0.8681
 9998TIP3    H151409   5.030   3.416   3.613  0.8607  0.7247 -0.0824
 9998TIP3    H251410   4.976   3.341   3.733  0.6069 -0.0440 -0.6789
 9999TIP3   OH251411   3.172   2.022  16.284 -0.5061  0.0298 -0.7232
 9999TIP3    H151412   3.223   1.947  16.253 -1.7830 -1.0223 -0.3262
 9999TIP3    H251413   3.177   2.017  16.380  0.2698  1.0693 -0.6979
10000TIP3   OH251414   4.739   3.208   5.932 -0.1603 -0.0911 -0.3161
10000TIP3    H151415   4.761   3.301   5.931 -0.6403  0.0221 -1.6102
10000TIP3    H251416   4.747   3.182   6.023  0.0663  1.2019  0.0379
10001TIP3   OH251417   5.576   5.026  14.549  0.3855  0.5208 -0.2625
10001TIP3    H151418   5.522   4.948  14.544 -0.5116  1.0818  0.4979
10001TIP3    H251419   5.516   5.097  14.573  1.5387  1.0144  1.3325
10002TIP3   OH251420   3.888   4.476   0.719  0.5879 -0.0310 -0.8531
10002TIP3    H151421   3.921   4.408   0.660  1.0363  0.5217 -1.2441
10002TIP3    H251422   3.822   4.432   0.772  0.9829 -0.8124 -1.0020
10003TIP3   OH251423   0.935   5.568   6.217 -0.1431 -0.0041  0.0391
10003TIP3    H151424   0.961   5.517   6.293 -0.1820  0.0979  0.1211
10003TIP3    H251425   0.924   5.503   6.147  0.8294 -0.0007 -0.1350
10004TIP3   OH251426   5.402   0.853  16.503 -0.0118 -0.4645  0.6586
10004TIP3    H151427   5.337   0.916  16.535  0.4513  0.6926 -0.6456
10004TIP3    H251428   5.394   0.779  16.564 -0.5862  0.8224  2.2142
10005TIP3   OH251429   3.185   4.402   3.694  0.6790 -0.6356  0.0496
10005TIP3    H151430   3.187   4.362   3.607  2.1813 -1.8044  0.5852
10005TIP3    H251431   3.220   4.490   3.682  0.9154 -0.8089 -0.5189
10006TIP3   OH251432   4.086   1.418  10.870  0.0290  0.0466 -0.1265
10006TIP3    H151433   4.097   1.448  10.780 -0.8779  0.6310 -0.0545
10006TIP3    H251434   3.994   1.393  10.876  0.3476 -1.0244  0.3337
10007TIP3   OH251435   2.325   5.461  13.722  0.0954 -0.1045 -0.3431
10007TIP3    H151436   2.345   5.400  13.793 -1.9586  0.1849  0.5025
10007TIP3    H251437   2.287   5.537  13.765 -3.3855 -0.8582 -1.8852
10008TIP3   OH251438   1.360   0.848  14.332 -0.3247  0.1239  0.0669
10008TIP3    H151439   1.453   0.831  14.346 -0.5528  0.9771  2.9110
10008TIP3    H251440   1.345   0.823  14.241  2.4530 -0.9808 -0.1472
10009TIP3   OH251441   1.256   4.103   5.692  0.6780  0.2151  0.9017
10009TIP3    H151442   1.210   4.031   5.736  1.4623  0.8767  2.8778
10009TIP3    H251443   1.241   4.088   5.599 -0.7135 -1.4662  1.3663
10010TIP3   OH251444   3.736   3.976   2.713 -0.0374  0.5863 -0.2666
10010TIP3    H151445   3.820   3.935   2.696  0.0695  0.7024 -0.0221
10010TIP3    H251446   3.743   4.064   2.675  0.7562  1.4132  1.7029
10011TIP3   OH251447   2.980   1.488   5.433  0.2729  0.0291  0.1815
10011TIP3    H151448   2.948   1.428   5.500  1.1376  0.8556  1.3452
10011TIP3    H251449   3.069   1.459   5.414  0.5368  0.6597  0.4289
10012TIP3   OH251450   2.119   5.405   5.014 -0.8580  0.2083 -0.3016
10012TIP3    H151451   2.040   5.355   4.997 -0.4414 -0.5667  0.0175
10012TIP3    H251452   2.131   5.401   5.109  0.1675 -0.6097 -0.4588
10013TIP3   OH251453   5.589   2.634  14.968  0.5413  0.1544  0.4013
10013TIP3    H151454   5.571   2.564  15.030  1.8720  0.6663  1.3826
10013TIP3    H251455   5.679   2.619  14.940  1.0778  1.8551  1.1572
10014TIP3   OH251456   3.414   5.221  13.558  0.6482  0.3664 -0.1007
10014TIP3    H151457   3.448   5.147  13.506  1.2703  1.5069 -1.3545
10014TIP3    H251458   3.408   5.293  13.495  0.0243  1.3801  1.1097
10015TIP3   OH251459   6.230   2.819  15.282 -0.0831 -0.0909  0.4213
10015TIP3    H151460   6.280   2.826  15.201  2.1533 -0.7515  1.6993
10015TIP3    H251461   6.206   2.910  15.303  1.1086  0.3158  0.0875
10016TIP3   OH251462   2.492   2.407  13.089 -0.0450 -0.5654  0.1176
10016TIP3    H151463   2.413   2.353  13.092 -0.1791 -0.2890  1.7603
10016TIP3    H251464   2.537   2.378  13.009 -0.9697 -1.8868  0.0468
10017TIP3   OH251465   5.489   5.180  11.564 -0.0277  0.0372 -0.3844
10017TIP3    H151466   5.521   5.110  11.621  1.2966  1.4300  0.6387
10017TIP3    H251467   5.569   5.221  11.530 -0.7617  1.4105 -0.5092
10018TIP3   OH251468   5.150   2.921   1.853  0.0962 -0.5163  0.0211
10018TIP3    H151469   5.240   2.926   1.885  0.7439 -1.8797 -1.4943
10018TIP3    H251470   5.137   3.002   1.805  1.1832 -1.1269 -1.3472
10019TIP3   OH251471   3.964   6.472  12.769  0.4190  0.1362 -0.4238
10019TIP3    H151472   3.945   6.530  12.843 -0.6996  0.8581 -1.2601
10019TIP3    H251473   3.987   6.388  12.809 -0.4516  0.4453  0.7361
10020TIP3   OH251474   5.286   2.558  16.059  0.1387 -0.5981  0.4048
10020TIP3    H151475   5.230   2.633  16.037  1.4971  0.2002 -0.3992
10020TIP3    H251476   5.373   2.596  16.069  0.7459 -2.0102  0.4765
10021TIP3   OH251477   0.402   1.398  16.847 -0.4870 -0.1211 -1.0903
10021TIP3    H151478   0.378   1.491  16.838 -0.4059  0.0641  0.3566
10021TIP3    H251479   0.433   1.373  16.761 -1.9355  0.7893 -1.9133
10022TIP3   OH251480   4.617   4.500   5.592 -0.5829 -0.5842  0.0144
10022TIP3    H151481   4.525   4.505   5.619 -0.8618 -0.8003 -0.8995
10022TIP3    H251482   4.632   4.580   5.541  0.1498  0.1883  1.4109
10023TIP3   OH251483   2.359   4.754   2.573 -0.4712 -0.0738  0.6079
10023TIP3    H151484   2.368   4.824   2.638  0.5114  1.0494 -0.6836
10023TIP3    H251485   2.265   4.745   2.560 -0.6021  2.3827 -0.5832
10024TIP3   OH251486   2.408   5.549  14.419  0.1032  0.1379  0.0388
10024TIP3    H151487   2.465   5.626  14.415  1.2495 -0.7000  0.1661
10024TIP3    H251488   2.360   5.551  14.336  0.7233  0.5432 -0.3179
10025TIP3   OH251489   4.180   4.397   1.379 -0.1939  0.2361  0.6862
10025TIP3    H151490   4.087   4.407   1.400 -0.0137 -0.1041  1.7058
10025TIP3    H251491   4.208   4.321   1.430  0.5516  0.0868  0.0713
10026TIP3   OH251492   0.319   2.235  13.663  0.5335  0.3143 -0.2665
10026TIP3    H151493   0.370   2.187  13.728 -2.1295 -0.8795  1.0213
10026TIP3    H251494   0.382   2.256  13.594  2.6083 -1.6813  0.9442
10027TIP3   OH251495   5.052   3.498   1.252  0.0869 -0.6049  0.6636
10027TIP3    H151496   5.109   3.427   1.220  0.2227 -0.6528  1.0069
10027TIP3    H251497   4.964   3.461   1.248  0.1735 -0.8526  0.9920
10028TIP3   OH251498   6.386   4.657   0.362  0.3029  0.1545  0.1166
10028TIP3    H151499   6.333   4.693   0.291 -0.9185  0.4216  1.1486
10028TIP3    H251500   6.345   4.689   0.442  0.6276 -1.5403  0.9968
10029TIP3   OH251501   4.778   6.546  14.935 -0.0993 -0.0757 -0.7418
10029TIP3    H151502   4.701   6.584  14.892 -1.1310 -1.1700  0.1053
10029TIP3    H251503   4.742   6.492  15.005  1.2865 -3.0714 -2.2525
10030TIP3   OH251504   2.821   0.427  10.651 -0.5656 -0.3693 -0.3681
10030TIP3    H151505   2.906   0.425  10.697 -0.7818  0.7697  0.1091
10030TIP3    H251506   2.757   0.407  10.719 -0.7924  0.2436 -0.3922
10031TIP3   OH251507   1.932   5.452   1.712 -0.1734 -0.3299  0.3619
10031TIP3    H151508   1.866   5.459   1.642 -0.7914 -1.9064  0.7465
10031TIP3    H251509   2.010   5.493   1.675 -0.5246 -1.0370 -1.2454
10032TIP3   OH251510   6.065   2.976   5.041 -0.1094  0.3970 -0.3259
10032TIP3    H151511   6.049   3.034   4.967 -0.4108  0.7435  0.0092
10032TIP3    H251512   6.155   2.995   5.067 -0.0712  0.4189 -0.4751
10033TIP3   OH251513   5.694   3.338   4.545 -0.1533  0.2142  0.1601
10033TIP3    H151514   5.715   3.355   4.637 -0.1765  0.2247  0.1634
10033TIP3    H251515   5.749   3.398   4.496 -0.1106  0.1798  0.1653
10034TIP3   OH251516   4.401   2.771  14.740  0.0905 -0.1033 -0.4235
10034TIP3    H151517   4.309   2.791  14.759  0.0789 -1.4493  1.0390
10034TIP3    H251518   4.421   2.696  14.796  1.5563 -0.9952 -2.0978
10035TIP3   OH251519   1.249   1.750   2.626 -0.9161 -0.4215 -0.1028
10035TIP3    H151520   1.283   1.767   2.538 -3.3187  0.8721 -0.8458
10035TIP3    H251521   1.237   1.655   2.629  1.5252 -0.7616 -0.2424
10036TIP3   OH251522   2.789   5.797   0.667 -0.3904 -0.1547 -0.3889
10036TIP3    H151523   2.879   5.782   0.696 -0.5516 -1.3142 -0.4773
10036TIP3    H251524   2.754   5.861   0.729  0.3291 -0.0881 -0.0466
10037TIP3   OH251525   4.992   6.313  10.988 -0.2421 -0.6111  0.2041
10037TIP3    H151526   4.918   6.254  11.007 -0.3116 -0.4010  0.5954
10037TIP3    H251527   4.952   6.400  10.984  0.1367 -0.3784  1.3810
10038TIP3   OH251528   6.271   5.617   4.630 -0.2330  0.0191 -0.5104
10038TIP3    H151529   6.192   5.669   4.612  0.7656  1.3148 -1.2763
10038TIP3    H251530   6.334   5.682   4.662  1.2230 -0.6217 -2.0146
10039TIP3   OH251531   6.730   0.409  12.017  0.1254  0.0623 -0.0566
10039TIP3    H151532   6.668   0.368  12.077 -0.9899 -0.5255 -1.5587
10039TIP3    H251533   6.679   0.421  11.936  0.4752  4.1642  0.2395
10040TIP3   OH251534   5.834   1.782  16.817 -0.2954  0.0010 -0.5658
10040TIP3    H151535   5.779   1.713  16.778 -0.9312  0.4513 -0.4653
10040TIP3    H251536   5.867   1.831  16.741 -0.0648 -0.2379 -0.6237
10041TIP3   OH251537   2.290   6.632  15.267  0.1492 -0.7000  0.6404
10041TIP3    H151538   2.238   6.599  15.341  0.8079  0.0425  1.4470
10041TIP3    H251539   2.261   6.580  15.192 -1.1381 -0.8877  1.2530
10042TIP3   OH251540   6.204   3.223   0.356 -0.3169  0.1813  0.0816
10042TIP3    H151541   6.286   3.239   0.402 -1.2053  1.1327  1.3704
10042TIP3    H251542   6.208   3.277   0.277  0.4372 -0.0671 -0.0547
10043TIP3   OH251543   6.028   5.890  10.582 -0.3032  0.7162 -0.0284
10043TIP3    H151544   6.050   5.803  10.616  2.7188  0.9748 -1.1418
10043TIP3    H251545   5.972   5.873  10.506  0.6726 -0.3059 -0.5348
10044TIP3   OH251546   2.808   3.857  12.918  0.7202  0.0607  0.0556
10044TIP3    H151547   2.780   3.897  13.001 -0.1532 -0.1717 -0.1291
10044TIP3    H251548   2.731   3.859  12.863  0.0281 -3.7849  0.7362
10045TIP3   OH251549   4.397   1.629  13.089  0.3614  0.7437 -0.0789
10045TIP3    H151550   4.476   1.650  13.039 -0.6087  0.8250 -1.6221
10045TIP3    H251551   4.339   1.587  13.025 -0.9932  1.0287  0.9415
10046TIP3   OH251552   2.031   0.977   5.848  0.4332 -0.1893 -0.3555
10046TIP3    H151553   2.072   1.014   5.926 -0.2099  0.7824 -0.4691
10046TIP3    H251554   2.102   0.935   5.800  0.9861 -0.0070  0.3016
10047TIP3   OH251555   3.375   1.480  11.686 -0.3361  0.4835 -0.1384
10047TIP3    H151556   3.363   1.388  11.707 -0.2360  0.7536  1.1024
10047TIP3    H251557   3.300   1.501  11.629  1.1087 -1.0362 -2.7201
10048TIP3   OH251558   5.386   6.518  11.201  0.0287  0.2859 -0.1675
10048TIP3    H151559   5.434   6.449  11.155 -0.9013 -1.7345  1.7940
10048TIP3    H251560   5.353   6.476  11.280 -3.2567  2.1586 -0.4417
10049TIP3   OH251561   2.671   6.474  16.233  0.8193 -0.0801  0.0581
10049TIP3    H151562   2.669   6.411  16.161 -0.5516 -1.0035  0.8818
10049TIP3    H251563   2.627   6.552  16.199  0.1645 -0.5205 -0.0986
10050TIP3   OH251564   2.425   0.403   4.929 -0.1723 -0.3548 -0.1106
10050TIP3    H151565   2.508   0.424   4.886 -0.9586  2.8602 -0.1932
10050TIP3    H251566   2.422   0.460   5.006 -2.7677  0.4502 -0.7394
10051TIP3   OH251567   3.935   4.361  13.257  0.1358  0.2186 -0.2594
10051TIP3    H151568   3.956   4.338  13.166  0.0085 -2.5643  0.3717
10051TIP3    H251569   3.869   4.430  13.250 -0.7801 -0.8164 -2.3100
10052TIP3   OH251570   1.749   4.274   5.340  0.1362  0.0551  0.8459
10052TIP3    H151571   1.661   4.237   5.332  0.1480  0.1294  0.3596
10052TIP3    H251572   1.803   4.217   5.285 -0.0100  1.3615 -0.6624
10053TIP3   OH251573   2.256   6.474  11.324  0.6035 -0.1990 -0.1719
10053TIP3    H151574   2.245   6.491  11.231 -0.4876  0.4319  0.0635
10053TIP3    H251575   2.347   6.497  11.342  0.4941  0.8077 -0.8482
10054TIP3   OH251576   6.762   0.507   5.287  0.2620 -0.2842  0.3307
10054TIP3    H151577   6.855   0.508   5.261  0.3296 -1.1057  0.5073
10054TIP3    H251578   6.762   0.540   5.377  0.4601 -0.8599  0.5449
10055TIP3   OH251579   0.962   0.367  16.914 -0.0830 -0.0965 -0.1712
10055TIP3    H151580   1.025   0.300  16.889  2.0786  1.4561  0.9749
10055TIP3    H251581   0.975   0.438  16.850 -0.9955  0.0479 -0.2077
10056TIP3   OH251582   3.933   1.872  12.232  0.4332 -0.0843  0.2244
10056TIP3    H151583   3.909   1.828  12.314  1.4279 -0.3034  0.4039
10056TIP3    H251584   4.003   1.818  12.196  2.0669  1.6570  0.7127
10057TIP3   OH251585   1.268   6.559  13.077 -0.4288 -0.5347  0.2280
10057TIP3    H151586   1.340   6.547  13.015  0.6149 -0.8014  1.4764
10057TIP3    H251587   1.240   6.470  13.099  1.5328 -0.5764  2.7988
10058TIP3   OH251588   2.334   5.826  12.088 -0.1242  0.0753 -0.7610
10058TIP3    H151589   2.400   5.865  12.146  1.3531 -2.7461 -0.4484
10058TIP3    H251590   2.297   5.754  12.139 -2.4936  0.7683 -1.4545
10059TIP3   OH251591   2.165   6.399  12.675 -0.3351  0.2405 -0.0076
10059TIP3    H151592   2.213   6.352  12.743 -1.9025 -0.8815  0.3639
10059TIP3    H251593   2.192   6.357  12.594  0.1774  0.3868  0.0856
10060TIP3   OH251594   2.546   2.057   4.509 -0.2452 -0.2321 -0.2337
10060TIP3    H151595   2.537   1.982   4.567 -0.7523 -0.2034 -0.2676
10060TIP3    H251596   2.638   2.081   4.512 -0.6690  1.2034  2.3262
10061TIP3   OH251597   4.395   2.474  16.645  0.3847  0.2996  1.2298
10061TIP3    H151598   4.468   2.500  16.589  0.1562 -0.9706  0.2997
10061TIP3    H251599   4.435   2.454  16.729  1.1057 -0.2378  0.7720
10062TIP3   OH251600   4.256   6.066   1.306 -0.2107  0.2690  0.1410
10062TIP3    H151601   4.338   6.116   1.301 -0.3597  0.4752 -0.2723
10062TIP3    H251602   4.270   6.004   1.377  0.6194 -0.2702 -0.4924
10063TIP3   OH251603   5.553   6.478   3.253  0.0436 -0.2302  0.1868
10063TIP3    H151604   5.584   6.557   3.297 -0.3351  0.4089 -0.6649
10063TIP3    H251605   5.476   6.451   3.302  0.1192 -0.0152  0.4230
10064TIP3   OH251606   2.651   0.293   0.909 -0.5325 -0.0901  0.2933
10064TIP3    H151607   2.610   0.365   0.862  1.6489  1.3773  0.6272
10064TIP3    H251608   2.744   0.301   0.891  0.0380 -1.2172  2.5100
10065TIP3   OH251609   2.303   3.753   2.135 -0.1563  0.3176 -0.1273
10065TIP3    H151610   2.235   3.695   2.168  0.8205 -0.3339  0.7884
10065TIP3    H251611   2.316   3.728   2.044 -1.0612  0.3678 -0.2648
10066TIP3   OH251612   3.733   0.735  16.696 -0.4285  0.1205 -0.2558
10066TIP3    H151613   3.715   0.733  16.790  1.0001 -2.6189  0.0035
10066TIP3    H251614   3.651   0.707  16.655 -0.6200 -0.0672  0.2581
10067TIP3   OH251615   3.837   2.110  15.987 -0.9697 -0.5279  0.3609
10067TIP3    H151616   3.847   2.149  15.900  0.9236 -1.5082  0.1133
10067TIP3    H251617   3.789   2.029  15.972  0.9531 -1.6243 -0.0562
10068TIP3   OH251618   3.887   2.698  12.821 -0.0664 -0.0446 -0.0450
10068TIP3    H151619   3.914   2.785  12.850 -2.5341  0.1881  1.7682
10068TIP3    H251620   3.876   2.706  12.726  4.0000  0.3759 -0.5428
10069TIP3   OH251621   2.527   6.592   1.066 -0.6172  0.2400  0.2462
10069TIP3    H151622   2.455   6.558   1.013  1.4816 -0.6156 -2.1721
10069TIP3    H251623   2.533   6.684   1.041  1.1123 -0.4269 -1.9968
10070TIP3   OH251624   1.217   0.032   5.781 -1.0084  0.4266  0.4850
10070TIP3    H151625   1.151   0.052   5.847 -1.2715 -0.3345  0.4528
10070TIP3    H251626   1.283   0.101   5.791 -1.8578  1.2561  0.4437
10071TIP3   OH251627   0.491   3.671   1.545  0.3280 -0.6637  0.1259
10071TIP3    H151628   0.465   3.579   1.545 -1.3285 -0.2198  1.3231
10071TIP3    H251629   0.517   3.689   1.635  1.0261 -0.0570 -0.1911
10072TIP3   OH251630   6.091   0.112   4.971 -0.0409  0.0631 -0.6377
10072TIP3    H151631   6.180   0.140   4.993  0.1794 -0.1462 -1.2610
10072TIP3    H251632   6.101   0.025   4.932 -0.6068 -0.3536  0.1351
10073TIP3   OH251633   5.860   2.350   0.615 -0.1121  0.2575  0.3974
10073TIP3    H151634   5.861   2.256   0.632 -0.6698 -0.1180 -1.5624
10073TIP3    H251635   5.952   2.373   0.603  0.0766  0.0892  1.4487
10074TIP3   OH251636   0.644   2.718   1.367  0.2842 -0.1185  0.0574
10074TIP3    H151637   0.700   2.771   1.312  0.6938  1.3546  1.8589
10074TIP3    H251638   0.559   2.718   1.322  0.6778  0.8607 -0.6947
10075TIP3   OH251639   3.541   4.636   4.533  0.0183 -0.7513 -0.3609
10075TIP3    H151640   3.579   4.634   4.445  0.1479  3.2656 -0.4996
10075TIP3    H251641   3.447   4.650   4.517  0.3426  2.3687  0.0622
10076TIP3   OH251642   3.170   4.609  16.437 -0.2570 -0.1709 -0.4188
10076TIP3    H151643   3.223   4.688  16.448  1.9565 -1.5746 -0.6097
10076TIP3    H251644   3.162   4.599  16.342  1.3457 -1.3515 -0.4497
10077TIP3   OH251645   0.805   1.680   5.804 -0.1329  0.5451 -0.2444
10077TIP3    H151646   0.835   1.691   5.894  0.4895 -1.1605 -0.2110
10077TIP3    H251647   0.731   1.620   5.811  1.4018 -1.5065 -1.0679
10078TIP3   OH251648   4.768   5.249   5.169 -0.1379  0.3863  0.0663
10078TIP3    H151649   4.827   5.237   5.095 -0.6272  2.9119 -0.7739
10078TIP3    H251650   4.681   5.236   5.132 -0.3587  1.2538  0.2784
10079TIP3   OH251651   3.588   2.869  11.947 -0.2920 -0.2076  0.2798
10079TIP3    H151652   3.633   2.897  11.867 -0.2530 -0.8537  0.0656
10079TIP3    H251653   3.655   2.823  11.997 -0.6722 -1.0685  0.0128
10080TIP3   OH251654   3.144   2.762   0.654  0.0076 -0.3980 -0.3288
10080TIP3    H151655   3.070   2.810   0.619 -0.0026  0.8133  1.3085
10080TIP3    H251656   3.221   2.803   0.615 -0.0915 -0.3023 -0.4214
10081TIP3   OH251657   2.862   2.485  14.068 -0.4452 -0.0159 -0.0589
10081TIP3    H151658   2.822   2.410  14.113 -2.3483  0.5033 -0.8442
10081TIP3    H251659   2.790   2.525  14.019  0.7201  1.8595 -0.2917
10082TIP3   OH251660   5.985   6.093  11.849 -0.3151 -0.7979 -0.1750
10082TIP3    H151661   6.064   6.082  11.901 -2.1148 -1.1233  2.5960
10082TIP3    H251662   5.987   6.184  11.821  0.0563 -0.2386  1.6144
10083TIP3   OH251663   6.188   3.589  14.652  0.5225  0.1338 -0.1464
10083TIP3    H151664   6.121   3.645  14.693  1.3774 -0.7172  2.5045
10083TIP3    H251665   6.262   3.648  14.637 -0.0268  0.5960 -1.1417
10084TIP3   OH251666   6.138   2.079  12.615 -0.3373 -0.4683  0.4742
10084TIP3    H151667   6.186   2.144  12.667  0.9483 -0.2711 -0.9416
10084TIP3    H251668   6.200   2.006  12.605 -0.5941 -0.5253 -0.7344
10085TIP3   OH251669   4.131   3.085  13.314 -0.0609 -0.2496  0.3607
10085TIP3    H151670   4.133   3.009  13.256  1.2398 -0.1704  0.2983
10085TIP3    H251671   4.049   3.130  13.292 -1.3646 -2.1909  1.1299
10086TIP3   OH251672   0.072   2.756  14.471 -0.5339 -0.5885 -0.3100
10086TIP3    H151673  -0.008   2.806  14.488  0.2373  0.2609  1.0349
10086TIP3    H251674   0.065   2.679  14.527  0.1273  0.1290  0.8118
10087TIP3   OH251675   1.793   4.899  11.649 -0.4594  0.3490  0.6444
10087TIP3    H151676   1.788   4.878  11.556 -0.3713 -0.6354  0.8614
10087TIP3    H251677   1.878   4.942  11.659 -1.1914  2.0247 -0.0284
10088TIP3   OH251678   0.077   2.567  14.677  0.6202  0.0237  0.3308
10088TIP3    H151679   0.160   2.572  14.724  0.2816 -3.4292  1.4274
10088TIP3    H251680   0.013   2.608  14.735  1.0969  0.4195  0.5785
10089TIP3   OH251681   5.715   5.764  16.950 -0.0209  0.0730 -0.2254
10089TIP3    H151682   5.750   5.784  16.863  0.3465 -0.3068 -0.1668
10089TIP3    H251683   5.792   5.755  17.006 -0.2916  1.2395  0.3446
10090TIP3   OH251684   5.100   2.892   4.846 -0.0575  0.1087 -0.5075
10090TIP3    H151685   5.195   2.905   4.835  0.2415 -0.5441  1.1108
10090TIP3    H251686   5.091   2.860   4.936 -2.1077  2.9432  0.3382
10091TIP3   OH251687   2.698   6.384  12.326 -0.5702  0.2325 -0.3750
10091TIP3    H151688   2.634   6.447  12.359 -0.7028 -1.2206  2.3078
10091TIP3    H251689   2.647   6.326  12.269 -1.4530 -0.2745  0.9021
10092TIP3   OH251690   2.147   5.934   4.275  0.2053  0.5255 -0.1324
10092TIP3    H151691   2.148   5.999   4.205 -2.2504  1.1700  0.3809
10092TIP3    H251692   2.167   5.984   4.354  0.5291  0.2448 -0.0371
10093TIP3   OH251693   1.375   3.431  16.936 -0.2652 -0.3199 -0.5547
10093TIP3    H151694   1.404   3.438  17.027  1.4584 -1.0960 -1.0115
10093TIP3    H251695   1.404   3.344  16.908 -0.6555 -0.0410 -1.8888
10094TIP3   OH251696   6.596   5.098  13.408 -0.4639 -0.3366  0.0518
10094TIP3    H151697   6.676   5.047  13.422 -1.0395 -0.3897  3.6230
10094TIP3    H251698   6.626   5.188  13.396  0.3114 -0.8711 -2.2904
10095TIP3   OH251699   3.823   4.468  15.502 -0.0074 -0.1756 -0.1402
10095TIP3    H151700   3.797   4.426  15.420  0.9223  3.1497 -2.2587
10095TIP3    H251701   3.919   4.467  15.499  0.0268  0.0509  0.8788
10096TIP3   OH251702   0.996   1.832   2.574  0.1804  0.6035  0.3582
10096TIP3    H151703   1.029   1.867   2.491  0.4142 -0.8464 -0.1735
10096TIP3    H251704   1.074   1.794   2.616 -0.2151 -0.0363  0.5253
10097TIP3   OH251705   1.233   2.567   2.527  0.6034 -0.0488 -0.4198
10097TIP3    H151706   1.312   2.605   2.566  0.4607 -0.7402  0.5528
10097TIP3    H251707   1.235   2.475   2.553 -0.0316 -0.2856 -1.1941
10098TIP3   OH251708   2.792   5.005  12.060  0.4365 -0.0753  0.4871
10098TIP3    H151709   2.741   5.068  12.111 -0.7171  0.2079 -0.9972
10098TIP3    H251710   2.728   4.962  12.003  1.5933 -0.8645 -0.2357
10099TIP3   OH251711   0.212   6.614   0.925  0.1250 -0.0922  0.0501
10099TIP3    H151712   0.173   6.532   0.954  0.8665 -0.5180 -0.1528
10099TIP3    H251713   0.284   6.588   0.868 -0.6946  0.7134 -1.3887
10100TIP3   OH251714   2.558   3.818  11.632 -0.0859 -0.3004  0.0006
10100TIP3    H151715   2.603   3.831  11.716 -0.2602 -0.2709  0.0889
10100TIP3    H251716   2.628   3.796  11.571 -0.1147 -1.6902  0.4488
10101TIP3   OH251717   1.965   0.164  13.977  0.5636 -0.4564  0.5469
10101TIP3    H151718   1.932   0.091  13.924 -1.2013  0.3357  0.5237
10101TIP3    H251719   1.895   0.182  14.039  0.8741  1.4043  0.3896
10102TIP3   OH251720   0.208   1.481   5.512  0.0304 -0.3713 -0.0276
10102TIP3    H151721   0.298   1.509   5.529 -0.7574  2.2284 -0.0482
10102TIP3    H251722   0.210   1.449   5.422  0.8230  0.1804 -0.2083
10103TIP3   OH251723   4.830   2.833   0.848 -0.4411 -0.1732 -0.4619
10103TIP3    H151724   4.901   2.808   0.906 -0.6930 -1.1749 -0.5694
10103TIP3    H251725   4.754   2.784   0.880 -0.9527  0.4720 -0.6747
10104TIP3   OH251726   2.913   4.023  11.539 -0.4830  0.7650 -0.0543
10104TIP3    H151727   2.840   4.068  11.496 -1.2724 -1.9827 -1.7557
10104TIP3    H251728   2.988   4.041  11.482 -0.8371 -0.2039 -0.8375
10105TIP3   OH251729   6.670   0.277   6.199  0.0979  0.3460  0.6194
10105TIP3    H151730   6.694   0.220   6.272 -2.2811  1.2276  2.1410
10105TIP3    H251731   6.575   0.266   6.191  0.3346  0.1431 -2.4698
10106TIP3   OH251732   6.784   2.399  16.674  0.0750 -0.0401  0.4905
10106TIP3    H151733   6.745   2.396  16.587  0.5067  0.4614  0.2824
10106TIP3    H251734   6.846   2.326  16.675  0.8260  0.5911  0.0199
10107TIP3   OH251735   0.779   2.014  16.661 -0.3507 -0.2108 -0.3833
10107TIP3    H151736   0.793   1.935  16.609 -0.6863  0.2108 -1.1188
10107TIP3    H251737   0.687   2.010  16.687  0.4369 -1.7253  2.3651
10108TIP3   OH251738   5.561   1.114   5.074  0.0678  0.4344  0.2986
10108TIP3    H151739   5.589   1.184   5.132  0.8507  0.7994 -0.5046
10108TIP3    H251740   5.642   1.079   5.038 -0.4246  0.6720 -1.0964
10109TIP3   OH251741   4.491   3.929  10.831 -0.5400  0.8315  0.6006
10109TIP3    H151742   4.581   3.902  10.813 -1.3627 -2.6909  1.4810
10109TIP3    H251743   4.442   3.906  10.752 -0.4434  4.3145 -0.5723
10110TIP3   OH251744   1.331   4.949  13.929 -0.1803  0.0165  0.1548
10110TIP3    H151745   1.270   4.982  13.995  0.4689 -1.6018  1.6456
10110TIP3    H251746   1.276   4.911  13.861 -0.8565  1.0596  0.1157
10111TIP3   OH251747   4.465   1.110   1.161  0.3598  0.5022 -0.3599
10111TIP3    H151748   4.488   1.020   1.182 -0.1461  0.6587  0.9247
10111TIP3    H251749   4.465   1.155   1.245 -3.4863  0.7495 -0.3871
10112TIP3   OH251750   0.701   1.378  14.830  0.6551  0.1926 -0.0021
10112TIP3    H151751   0.613   1.390  14.794  0.5575  0.4269  0.3054
10112TIP3    H251752   0.760   1.409  14.762  0.4677  0.7669  0.0920
10113TIP3   OH251753   4.469   3.768  11.651  0.0952  0.2418 -0.1675
10113TIP3    H151754   4.409   3.763  11.726 -1.1291 -1.9741 -1.2453
10113TIP3    H251755   4.412   3.772  11.575  1.3412  2.1709 -1.0515
10114TIP3   OH251756   6.261   3.723   0.106 -0.0962 -0.1754  0.4911
10114TIP3    H151757   6.338   3.739   0.161 -1.5298  2.5937  1.7662
10114TIP3    H251758   6.295   3.726   0.016  1.0923  2.2334  0.9999
10115TIP3   OH251759   0.532   5.284  11.705  0.8587  0.1518  0.7872
10115TIP3    H151760   0.480   5.210  11.673  0.8200  0.1707  0.8054
10115TIP3    H251761   0.521   5.281  11.800  0.7176  0.2838  0.7760
10116TIP3   OH251762   1.633   6.484   0.049  0.4115 -0.2423  0.1359
10116TIP3    H151763   1.703   6.474  -0.015 -0.4133 -0.9489 -0.6783
10116TIP3    H251764   1.618   6.395   0.081  0.8013  0.1055  1.2989
10117TIP3   OH251765   4.937   3.649   2.576 -0.2922  0.5241 -0.5270
10117TIP3    H151766   4.926   3.594   2.653 -1.5741 -0.4387 -1.3913
10117TIP3    H251767   4.849   3.677   2.553  0.0872  0.8381 -1.6372
10118TIP3   OH251768   5.915   6.771  10.967  0.3431  0.3567 -0.2954
10118TIP3    H151769   5.958   6.774  10.881 -0.1048  0.6418 -0.5139
10118TIP3    H251770   5.923   6.680  10.995  0.3956  0.2408 -0.6882
10119TIP3   OH251771   5.455   3.537  14.797  0.6126 -0.0168 -0.7504
10119TIP3    H151772   5.536   3.587  14.805 -0.8414  1.8953  3.5907
10119TIP3    H251773   5.478   3.449  14.829  1.2057  0.2280 -0.4913
10120TIP3   OH251774   3.662   2.668   4.381 -0.0897 -0.3780  0.2347
10120TIP3    H151775   3.754   2.647   4.398 -0.3803 -1.2460  0.7355
10120TIP3    H251776   3.664   2.758   4.347  1.0200 -0.7093 -0.5950
10121TIP3   OH251777   4.376   5.106   3.434  0.5184  0.0482 -0.0041
10121TIP3    H151778   4.332   5.111   3.519  0.2800 -0.3248 -0.1047
10121TIP3    H251779   4.397   5.013   3.423  0.2124  0.0388 -0.5211
10122TIP3   OH251780   2.662   4.929   0.296  0.0352  0.3892 -0.1004
10122TIP3    H151781   2.752   4.922   0.264  0.1369 -1.4749  0.4963
10122TIP3    H251782   2.607   4.909   0.221  0.0960  1.9820 -0.5794
10123TIP3   OH251783   4.502   2.845  13.402 -0.7036  0.5131  0.2524
10123TIP3    H151784   4.476   2.925  13.448 -1.7151  0.3160  0.0388
10123TIP3    H251785   4.577   2.812  13.451 -1.2753  0.7410  1.3004
10124TIP3   OH251786   1.346   1.685   4.807 -0.2650 -0.4300 -0.0090
10124TIP3    H151787   1.327   1.778   4.798 -0.5859 -0.1090  3.4438
10124TIP3    H251788   1.268   1.641   4.774 -0.2141  0.5190 -1.4062
10125TIP3   OH251789   5.583   4.978   2.467  0.2460  0.1484  0.5411
10125TIP3    H151790   5.609   5.029   2.544  0.7192  1.5505 -0.5268
10125TIP3    H251791   5.661   4.927   2.445  0.3445  0.2984  0.5420
10126TIP3   OH251792   4.682   3.235   0.590 -0.4245  0.3053  0.3000
10126TIP3    H151793   4.602   3.195   0.555 -1.2949  1.4270  0.9464
10126TIP3    H251794   4.696   3.190   0.674  0.4889 -0.9399 -0.5075
10127TIP3   OH251795   1.932   4.464   5.391  0.1365 -0.1847  0.1426
10127TIP3    H151796   2.005   4.473   5.329 -0.3681  1.5812 -0.2214
10127TIP3    H251797   1.884   4.387   5.361  1.9821 -1.5337  0.5437
10128TIP3   OH251798   3.374   6.457   5.124 -0.1934  0.0388  0.6504
10128TIP3    H151799   3.464   6.448   5.154  0.3757  0.7994 -0.7675
10128TIP3    H251800   3.336   6.523   5.182  0.3484  0.1558  0.8728
10129TIP3   OH251801   5.346   3.002   4.944 -0.4361  0.1810  0.4448
10129TIP3    H151802   5.440   3.019   4.953  0.0714 -2.0368 -0.3854
10129TIP3    H251803   5.310   3.017   5.032  0.7184  0.8233  0.8149
10130TIP3   OH251804   5.840   5.412  15.793 -0.2928  0.4179 -0.5701
10130TIP3    H151805   5.925   5.395  15.834  0.0687  0.9572 -1.1012
10130TIP3    H251806   5.820   5.503  15.815 -1.0834  0.0697  0.1812
10131TIP3   OH251807   1.927   1.671   4.917 -0.0350  0.2112  0.3483
10131TIP3    H151808   1.970   1.587   4.927  1.6632  1.0509  0.2531
10131TIP3    H251809   1.998   1.734   4.909 -1.2788  1.6071 -0.0378
10132TIP3   OH251810   4.015   0.673   2.697  0.3685  0.4231  0.4407
10132TIP3    H151811   3.932   0.706   2.663  0.7816  0.4390 -0.5775
10132TIP3    H251812   4.036   0.730   2.771  0.0033  1.0872  0.0309
10133TIP3   OH251813   6.725   4.435  13.015 -0.0322 -0.6265  0.1456
10133TIP3    H151814   6.662   4.499  12.983 -0.0385 -0.6571  0.0978
10133TIP3    H251815   6.809   4.463  12.976  0.0254 -0.4541  0.3919
10134TIP3   OH251816   1.519   0.469   4.541  0.1322 -0.7079 -0.5076
10134TIP3    H151817   1.435   0.434   4.571  0.2597  0.0811  0.7771
10134TIP3    H251818   1.506   0.564   4.539  0.4732 -0.6798 -1.9125
10135TIP3   OH251819   1.040   5.369   5.495 -0.7954  0.4299 -0.0047
10135TIP3    H151820   1.099   5.297   5.517  0.4626  1.3959 -0.1789
10135TIP3    H251821   0.954   5.328   5.490  0.0030 -1.2101 -0.8353
10136TIP3   OH251822   3.078   5.437  17.025 -0.1501 -0.3502  0.1808
10136TIP3    H151823   3.157   5.448  16.971 -1.0759 -1.2119 -1.4001
10136TIP3    H251824   3.104   5.375  17.094  0.6746 -0.3198 -0.0978
10137TIP3   OH251825   4.684   5.883  12.278  0.7050  0.1230  0.3423
10137TIP3    H151826   4.659   5.911  12.366  0.6763 -0.7816  0.6236
10137TIP3    H251827   4.722   5.796  12.290 -0.6519 -0.6249 -0.7313
10138TIP3   OH251828   0.036   1.159  16.715 -0.5326 -0.1704  0.3579
10138TIP3    H151829   0.090   1.180  16.792 -0.0868 -1.3963  0.3869
10138TIP3    H251830  -0.038   1.110  16.750 -0.6961 -0.1134  0.0916
10139TIP3   OH251831   2.799   0.665   3.911  0.3510  0.2144  0.3527
10139TIP3    H151832   2.786   0.651   4.005  1.4237 -1.3954  0.2898
10139TIP3    H251833   2.719   0.707   3.881 -1.2236 -1.8962  1.4689
10140TIP3   OH251834   4.308   3.899  17.194 -0.0038  0.5873  0.2376
10140TIP3    H151835   4.349   3.812  17.201  0.0633  0.6062  0.0681
10140TIP3    H251836   4.215   3.884  17.212  0.1253  0.5894  0.9401
10141TIP3   OH251837   2.053   3.979  11.699  0.0571 -0.4703  0.3233
10141TIP3    H151838   2.142   3.959  11.670  0.1964 -0.8812  1.0159
10141TIP3    H251839   2.005   4.000  11.619  0.5945 -0.9474 -0.1254
10142TIP3   OH251840   4.483   2.824   3.523  0.4701 -0.1616  0.0354
10142TIP3    H151841   4.569   2.783   3.514  0.6247 -0.1650  1.4633
10142TIP3    H251842   4.426   2.754   3.556  0.6141  0.6080  1.9689
10143TIP3   OH251843   5.368   3.037  13.191  0.4163  0.5523 -0.4044
10143TIP3    H151844   5.303   2.980  13.150  0.6406 -0.0872  0.1141
10143TIP3    H251845   5.339   3.043  13.283  0.5068  1.1139 -0.4142
10144TIP3   OH251846   6.493   4.685  14.171 -0.2491 -0.3109 -0.8779
10144TIP3    H151847   6.581   4.649  14.180 -0.5686 -0.7314  0.6526
10144TIP3    H251848   6.451   4.629  14.105  0.2010 -0.9500 -0.6256
10145TIP3   OH251849   0.265   0.300   1.095  0.0301 -0.0683 -0.0456
10145TIP3    H151850   0.192   0.311   1.156 -0.9265 -1.9097 -0.8086
10145TIP3    H251851   0.234   0.234   1.033  0.7871  2.1052 -2.8194
10146TIP3   OH251852   4.613   0.316   6.268  0.2266  0.0654  0.0596
10146TIP3    H151853   4.541   0.262   6.300  0.1659 -0.3520 -0.7542
10146TIP3    H251854   4.692   0.278   6.308  0.2878 -1.2128 -1.1905
10147TIP3   OH251855   3.531   1.070   0.713 -0.1462  0.0153  0.0436
10147TIP3    H151856   3.547   1.060   0.807  1.1740  2.4310  0.1292
10147TIP3    H251857   3.610   1.034   0.671 -0.9890 -1.5971 -0.1699
10148TIP3   OH251858   1.801   4.913  13.443 -0.4498  0.0951  0.3090
10148TIP3    H151859   1.800   4.820  13.466  1.0969 -0.5023 -1.8464
10148TIP3    H251860   1.723   4.924  13.388 -0.4831  0.0126  0.3400
10149TIP3   OH251861   1.930   1.585   5.308 -0.5175 -0.4468  0.0552
10149TIP3    H151862   2.020   1.618   5.298 -0.3252 -0.4963  1.5237
10149TIP3    H251863   1.877   1.643   5.254  0.4506 -0.6707 -1.1603
10150TIP3   OH251864   0.402   6.300  16.789 -0.0398 -0.5345  0.3314
10150TIP3    H151865   0.492   6.312  16.758 -0.5315 -2.7234 -2.0499
10150TIP3    H251866   0.373   6.389  16.810  1.8043  0.5474 -1.4342
10151TIP3   OH251867   1.155   1.750  12.727 -0.1394 -0.5561  0.5901
10151TIP3    H151868   1.240   1.787  12.748 -0.8104  0.9281  0.7292
10151TIP3    H251869   1.172   1.692  12.652  1.2707 -1.5938  1.6743
10152TIP3   OH251870   4.668   4.908  11.237  0.3523 -0.4718 -0.0650
10152TIP3    H151871   4.670   4.964  11.159  0.6776 -1.3889 -0.7184
10152TIP3    H251872   4.578   4.877  11.242  1.2104 -3.6286 -2.4074
10153TIP3   OH251873   4.618   2.740  13.643 -0.5896 -0.3083  0.0041
10153TIP3    H151874   4.617   2.834  13.660  0.9021 -0.2711 -0.0562
10153TIP3    H251875   4.589   2.701  13.726 -1.3606  0.1999 -0.0192
10154TIP3   OH251876   6.037   5.579   2.929  0.1120 -0.2739  0.5269
10154TIP3    H151877   6.018   5.557   3.020  0.0568  0.6059  0.7370
10154TIP3    H251878   6.130   5.600   2.928  0.0124  0.1776  0.4809
10155TIP3   OH251879   0.454   2.068  11.067 -0.5070  0.1830  0.2780
10155TIP3    H151880   0.523   2.029  11.013  2.9181  0.8579  3.9288
10155TIP3    H251881   0.466   2.162  11.055 -1.3389  0.2900  0.3103
10156TIP3   OH251882   4.247   4.631  16.777 -0.2110 -0.1236 -0.1532
10156TIP3    H151883   4.290   4.651  16.694 -1.3973  0.3886 -0.6608
10156TIP3    H251884   4.201   4.549  16.761 -1.2249  0.4684 -0.3031
10157TIP3   OH251885   2.329   1.215  10.957 -0.4283 -0.0813 -0.4266
10157TIP3    H151886   2.246   1.230  10.912 -0.0567 -0.1139 -1.1273
10157TIP3    H251887   2.396   1.237  10.891  0.1344 -2.5418 -0.6971
10158TIP3   OH251888   2.744   5.695  16.591 -0.4234  0.1688  0.3370
10158TIP3    H151889   2.823   5.662  16.548 -0.2840  1.3691 -0.3306
10158TIP3    H251890   2.771   5.776  16.633 -1.2307  0.4318  0.3662
10159TIP3   OH251891   3.145   6.166   5.735  0.4701 -0.4591 -0.3566
10159TIP3    H151892   3.112   6.204   5.816  0.6020 -1.9939  0.4340
10159TIP3    H251893   3.239   6.155   5.751  0.3459 -1.5979 -0.3703
10160TIP3   OH251894   0.106   2.616   6.483  0.3506 -0.1173 -0.1338
10160TIP3    H151895   0.073   2.569   6.559  1.5125 -0.1171  0.3828
10160TIP3    H251896   0.121   2.549   6.417 -1.5574 -0.0046 -0.7016
10161TIP3   OH251897   6.403   2.172   1.416 -0.4383  0.1741  0.3522
10161TIP3    H151898   6.344   2.105   1.382 -1.1137  1.4659 -1.0490
10161TIP3    H251899   6.488   2.150   1.379 -0.1709 -1.1911  1.6941
10162TIP3   OH251900   1.578   4.298   4.793 -0.1003  0.5102  0.7913
10162TIP3    H151901   1.623   4.308   4.877  0.5675  0.3006  0.4529
10162TIP3    H251902   1.569   4.388   4.760 -1.6956  0.7433  1.7806
10163TIP3   OH251903   0.349   1.029  13.419 -0.2099  0.1309 -0.3579
10163TIP3    H151904   0.399   0.950  13.395 -0.1566  0.0998 -0.1499
10163TIP3    H251905   0.313   1.060  13.337  0.2187  0.1966 -0.5244
10164TIP3   OH251906   6.174   4.925   2.664  0.3989 -0.1263  0.0149
10164TIP3    H151907   6.120   5.002   2.646  0.6265  0.4840  1.8636
10164TIP3    H251908   6.212   4.942   2.750  0.4121 -2.3437  0.4705
10165TIP3   OH251909   4.087   4.113  12.440  0.0426  0.4281  0.4217
10165TIP3    H151910   4.101   4.146  12.351  1.7014 -0.7269  0.2134
10165TIP3    H251911   4.057   4.189  12.490  0.5907  1.4491 -0.7798
10166TIP3   OH251912   4.038   5.390   3.217 -0.3028 -0.1240  0.2955
10166TIP3    H151913   4.131   5.411   3.230 -0.5093  1.1954 -0.2354
10166TIP3    H251914   4.039   5.318   3.154  0.3514  0.3084 -0.2084
10167TIP3   OH251915   5.142   0.951  13.598  0.8017  0.0703  0.2164
10167TIP3    H151916   5.107   1.001  13.671  1.0981 -1.3276  1.3290
10167TIP3    H251917   5.096   0.867  13.601 -0.3326  0.5563 -2.1627
10168TIP3   OH251918   3.379   3.906   6.530  0.3368  0.1120 -0.2198
10168TIP3    H151919   3.440   3.860   6.473  1.1299  1.0226 -0.1070
10168TIP3    H251920   3.358   3.842   6.598 -0.5713 -0.9672 -1.4746
10169TIP3   OH251921   5.115   6.409   1.549  0.1511 -0.2106  0.7155
10169TIP3    H151922   5.181   6.389   1.482 -1.0425 -0.0628 -0.5358
10169TIP3    H251923   5.121   6.503   1.561 -0.6489 -0.0161 -0.3033
10170TIP3   OH251924   1.871   4.753   0.995  0.0646 -0.0931 -0.0885
10170TIP3    H151925   1.851   4.806   1.072 -1.2654 -0.1393 -0.3808
10170TIP3    H251926   1.923   4.810   0.939 -0.0933  0.3940  0.2534
10171TIP3   OH251927   6.064   6.684   5.643 -0.8203 -0.2681 -0.3322
10171TIP3    H151928   6.077   6.597   5.682  0.5672  0.0019 -0.1805
10171TIP3    H251929   6.119   6.742   5.694 -1.3839  0.6315 -0.7394
10172TIP3   OH251930   6.459   6.579  16.430 -0.5420 -0.1534  0.3185
10172TIP3    H151931   6.438   6.511  16.495  0.2582 -1.1486 -0.4494
10172TIP3    H251932   6.531   6.542  16.379  1.3093  2.1115  1.1988
10173TIP3   OH251933   0.750   5.661  16.071  0.7047 -0.2563  0.6006
10173TIP3    H151934   0.841   5.674  16.042  0.6537  1.7799  1.2741
10173TIP3    H251935   0.758   5.630  16.161  0.7248  0.2510  0.7740
10174TIP3   OH251936   0.672   1.719  15.525  0.1418  0.5282  0.1404
10174TIP3    H151937   0.709   1.806  15.541  1.9230 -0.5784  2.2424
10174TIP3    H251938   0.577   1.732  15.532  0.4321  2.0640  1.5844
10175TIP3   OH251939   6.529   2.819  12.476 -0.1511  0.1012 -0.3993
10175TIP3    H151940   6.451   2.859  12.438  0.2942  1.2470 -0.1257
10175TIP3    H251941   6.496   2.769  12.550 -0.5807  0.9321 -0.0222
10176TIP3   OH251942   0.142   4.111  16.113  0.2304  0.1016 -0.8548
10176TIP3    H151943   0.107   4.025  16.091  1.6295 -0.1923 -1.9995
10176TIP3    H251944   0.174   4.102  16.203  0.0525 -0.4751 -0.8493
10177TIP3   OH251945   0.889   6.562   4.802 -0.3882  1.5172 -0.0671
10177TIP3    H151946   0.891   6.468   4.789  0.8627  1.4088  0.8337
10177TIP3    H251947   0.934   6.599   4.726 -0.6850  1.3757 -0.3097
10178TIP3   OH251948   3.498   0.737  17.214  0.1492  0.5006 -0.2968
10178TIP3    H151949   3.421   0.689  17.246 -0.9560  1.1447 -1.9154
10178TIP3    H251950   3.476   0.829  17.227  1.9739  0.6234  2.1399
10179TIP3   OH251951   0.091   6.461   4.898  0.2258  0.2132  0.2204
10179TIP3    H151952   0.182   6.465   4.871  0.7399 -1.4776  1.6369
10179TIP3    H251953   0.091   6.404   4.975 -1.8403  1.2088  0.9986
10180TIP3   OH251954   1.424   1.734   2.409 -0.1109  0.4053 -0.1069
10180TIP3    H151955   1.464   1.653   2.379 -2.1121  0.0159 -1.8329
10180TIP3    H251956   1.477   1.803   2.369  0.5063 -0.0605 -0.1075
10181TIP3   OH251957   4.287   1.046   3.358  0.3735 -0.1260 -0.1674
10181TIP3    H151958   4.277   1.031   3.452  1.6961  1.8209  0.3290
10181TIP3    H251959   4.247   1.132   3.343 -0.3847 -0.6944 -1.5106
10182TIP3   OH251960   5.915   2.105   0.732 -0.6711 -0.2573 -0.1102
10182TIP3    H151961   5.979   2.068   0.671 -0.1842  1.4091 -0.6351
10182TIP3    H251962   5.854   2.033   0.748 -0.0463 -1.1382 -1.5240
10183TIP3   OH251963   2.847   6.437   5.698 -0.7160 -0.0660  0.5578
10183TIP3    H151964   2.839   6.453   5.792  1.4310 -0.7025  0.8780
10183TIP3    H251965   2.928   6.481   5.673 -1.3789  0.2757 -1.0533
10184TIP3   OH251966   2.562   2.195  12.909  0.1196 -0.3058 -0.2769
10184TIP3    H151967   2.524   2.143  12.980  0.3299 -0.2614 -0.1334
10184TIP3    H251968   2.496   2.193  12.840 -0.4403  0.3605  0.2392
10185TIP3   OH251969   0.121   6.189  12.297 -0.4772 -0.2248  0.2538
10185TIP3    H151970   0.206   6.147  12.307 -1.0819 -2.3976 -3.1123
10185TIP3    H251971   0.141   6.275  12.259  0.2251 -0.5010  0.0012
10186TIP3   OH251972   5.881   3.022   5.952 -0.0999 -0.3852 -0.1119
10186TIP3    H151973   5.835   3.068   6.022  0.3659  0.2561 -0.2228
10186TIP3    H251974   5.826   2.946   5.933 -0.7228 -0.0371  0.2805
10187TIP3   OH251975   3.667   6.439   2.382  0.0792 -0.1382  0.3358
10187TIP3    H151976   3.738   6.470   2.326 -0.5939 -1.8096 -1.5014
10187TIP3    H251977   3.589   6.485   2.349  0.0303  0.4558  1.2752
10188TIP3   OH251978   6.737   0.473   3.594 -0.5363  0.2503 -0.1603
10188TIP3    H151979   6.765   0.413   3.663 -2.7146  0.2936  0.8093
10188TIP3    H251980   6.679   0.422   3.539 -0.8425  0.9282 -0.4725
10189TIP3   OH251981   6.721   3.058   4.707 -0.2215  0.5685 -0.1085
10189TIP3    H151982   6.713   3.100   4.622 -0.7065  0.0652 -0.3163
10189TIP3    H251983   6.814   3.035   4.714  0.0135  1.5489 -0.0502
10190TIP3   OH251984   6.468   6.398  17.089  0.6300  0.0637 -0.5141
10190TIP3    H151985   6.475   6.310  17.127  1.6596  1.1971  2.0256
10190TIP3    H251986   6.381   6.427  17.112  0.9959  0.4688  0.3735
10191TIP3   OH251987   5.731   5.375  11.990  0.3697  0.5706  0.2639
10191TIP3    H151988   5.741   5.402  11.899 -0.0870 -0.1610 -0.0103
10191TIP3    H251989   5.764   5.285  11.992  0.8538  0.7601  0.9294
10192TIP3   OH251990   3.018   3.591   4.311 -0.2076 -0.1349 -0.4455
10192TIP3    H151991   2.950   3.537   4.270 -0.9344 -0.3764  1.0168
10192TIP3    H251992   2.996   3.588   4.404  0.8179  1.2105 -0.1594
10193TIP3   OH251993   6.672   2.065   0.926  0.6368  0.2257  0.2399
10193TIP3    H151994   6.675   1.998   0.995 -1.0638 -0.4861 -0.3672
10193TIP3    H251995   6.602   2.125   0.954  0.3304  0.2485 -0.5787
10194TIP3   OH251996   5.672   1.929   1.481 -0.1397 -0.7052 -0.5351
10194TIP3    H151997   5.663   1.902   1.572 -0.5648  1.1263  0.0035
10194TIP3    H251998   5.706   1.852   1.436 -1.2518 -2.0871  0.9044
10195TIP3   OH251999   1.841   5.256   4.530  0.1275  0.2380  0.0407
10195TIP3    H152000   1.918   5.286   4.481 -0.3675  0.5087 -0.5823
10195TIP3    H252001   1.807   5.335   4.571  0.5755 -0.0001  0.8764
10196TIP3   OH252002   0.405   4.358  15.258 -0.2131  0.0173 -1.0380
10196TIP3    H152003   0.357   4.323  15.183  2.4541  0.4679 -3.0490
10196TIP3    H252004   0.409   4.452  15.242  0.0359  0.1653 -0.1140
10197TIP3   OH252005   2.953   2.000  16.126  0.5012  0.0375  0.3283
10197TIP3    H152006   3.024   2.005  16.190  1.4135 -0.0050 -0.6720
10197TIP3    H252007   2.874   1.990  16.179  1.0091  2.0812  1.5387
10198TIP3   OH252008   3.160   6.186   3.870 -0.2684 -0.3659 -0.2506
10198TIP3    H152009   3.199   6.214   3.953 -0.8026  0.4972 -0.2836
10198TIP3    H252010   3.161   6.090   3.874  0.3599 -0.3300  0.4475
10199TIP3   OH252011   6.261   5.643  12.588 -0.2346  0.1743  0.0836
10199TIP3    H152012   6.266   5.591  12.668 -0.0585  0.4863  0.2771
10199TIP3    H252013   6.223   5.583  12.523  0.5026 -0.3794  0.1537
10200TIP3   OH252014   0.426   6.680   5.652 -0.1650 -0.0299 -0.1560
10200TIP3    H152015   0.355   6.728   5.694  0.8450 -0.3597  1.9912
10200TIP3    H252016   0.420   6.592   5.688 -0.4379 -0.8461 -2.1523
10201TIP3   OH252017   6.521   2.590  16.303  0.2020  0.2125 -0.1647
10201TIP3    H152018   6.458   2.630  16.243 -1.5513 -0.6213  1.0787
10201TIP3    H252019   6.576   2.663  16.332 -1.2354  1.2619 -0.0125
10202TIP3   OH252020   2.456   2.400   4.239 -0.0044  0.0719 -0.0115
10202TIP3    H152021   2.490   2.488   4.222 -1.2362  0.5362 -0.1442
10202TIP3    H252022   2.372   2.397   4.192  0.1390 -1.2539 -0.2045
10203TIP3   OH252023   3.730   2.511  15.024 -0.0104  0.0188 -0.4154
10203TIP3    H152024   3.755   2.538  15.112  0.1630 -1.2341 -0.0607
10203TIP3    H252025   3.645   2.468  15.035 -0.2969  0.4357 -0.9584
10204TIP3   OH252026   3.225   4.237  14.625 -0.5106 -0.1420  0.3517
10204TIP3    H152027   3.217   4.313  14.567 -1.0194 -0.8897 -0.5616
10204TIP3    H252028   3.311   4.201  14.606 -1.4241 -1.4847 -1.2892
10205TIP3   OH252029   2.464   4.699   2.846 -0.5426  0.0885 -0.3746
10205TIP3    H152030   2.556   4.680   2.828 -0.8497 -0.9737 -0.8862
10205TIP3    H252031   2.466   4.772   2.907  0.6516 -0.3508  0.1267
10206TIP3   OH252032   0.703   0.405   5.487 -0.3833  0.4304  0.4925
10206TIP3    H152033   0.630   0.344   5.498  1.6017 -2.2053 -0.4992
10206TIP3    H252034   0.714   0.412   5.392  0.8784  0.4988  0.6376
10207TIP3   OH252035   5.763   6.109  16.192  0.4283  0.0855 -0.0416
10207TIP3    H152036   5.756   6.035  16.132  1.1869  1.3356 -1.7068
10207TIP3    H252037   5.707   6.177  16.153  0.5426  0.7523  0.9327
10208TIP3   OH252038   3.921   0.804  11.607  0.0704 -0.7514  0.5015
10208TIP3    H152039   3.975   0.731  11.638  0.5192  0.1617  1.9120
10208TIP3    H252040   3.960   0.829  11.523  0.1030 -1.9326  0.1611
10209TIP3   OH252041   1.102   2.629  12.606  0.5347  0.1205 -0.1037
10209TIP3    H152042   1.127   2.663  12.520  0.1391 -1.6303 -0.9101
10209TIP3    H252043   1.171   2.566  12.628 -0.6967 -1.3012 -0.2677
10210TIP3   OH252044   0.498   1.845   1.267  0.0779 -0.2555  0.1850
10210TIP3    H152045   0.482   1.845   1.361 -1.1039 -0.7806 -0.0068
10210TIP3    H252046   0.520   1.936   1.246  1.4887 -0.3680  1.1487
10211TIP3   OH252047   1.017   6.686  15.961  0.0949 -0.1925  0.0015
10211TIP3    H152048   1.004   6.780  15.972  1.3174 -0.1627  1.2696
10211TIP3    H252049   1.108   6.677  15.934 -0.2998 -0.9525 -1.1168
10212TIP3   OH252050   5.244   3.803   0.509  0.2146  0.1547 -0.3706
10212TIP3    H152051   5.326   3.803   0.460  0.0818  1.9847 -0.5939
10212TIP3    H252052   5.269   3.778   0.598  1.2538  2.1737 -0.0702
10213TIP3   OH252053   2.314   5.056   1.510 -0.2440  0.7758  0.5222
10213TIP3    H152054   2.264   5.121   1.559 -1.4127  0.6981 -0.5477
10213TIP3    H252055   2.291   5.072   1.419 -1.0994 -1.6084  0.2961
10214TIP3   OH252056   2.587   4.430   5.009  0.0552  0.1659 -0.2917
10214TIP3    H152057   2.535   4.361   4.967 -1.6318  0.9422  0.4700
10214TIP3    H252058   2.609   4.393   5.095  1.4065 -0.4471 -0.8864
10215TIP3   OH252059   1.329   5.018  14.273  0.2780  0.1452  0.1484
10215TIP3    H152060   1.299   5.014  14.364  0.2885  1.8958  0.2478
10215TIP3    H252061   1.394   5.089  14.272  1.5487 -0.9955 -0.8751
10216TIP3   OH252062   2.756   3.659  12.585  0.1942 -0.2695 -0.1391
10216TIP3    H152063   2.699   3.586  12.607  0.7000 -0.8335 -0.6716
10216TIP3    H252064   2.698   3.734  12.573 -0.2907 -0.4923  0.8184
10217TIP3   OH252065   4.266   1.110  15.482  0.3560 -0.5325 -0.1681
10217TIP3    H152066   4.311   1.145  15.559 -0.2156 -1.9938  0.8453
10217TIP3    H252067   4.336   1.071  15.429  0.6679 -0.1049 -0.0706
10218TIP3   OH252068   2.484   6.249  16.565 -0.2031  0.1675 -0.1785
10218TIP3    H152069   2.455   6.281  16.480 -2.0271  0.2674  0.4605
10218TIP3    H252070   2.536   6.321  16.602 -1.5712  1.1358 -0.1197
10219TIP3   OH252071   1.924   2.018   4.220 -0.3895 -0.4799 -0.2439
10219TIP3    H152072   1.886   1.948   4.273  2.4185 -1.7490  0.1670
10219TIP3    H252073   1.933   1.980   4.133  1.3760 -0.7766  0.0389
10220TIP3   OH252074   4.974   0.665   1.764  0.1810 -0.5760  0.0207
10220TIP3    H152075   4.901   0.643   1.707  1.9691 -0.7544 -2.2858
10220TIP3    H252076   4.965   0.759   1.779 -0.7460 -0.6731  0.1016
10221TIP3   OH252077   6.424   0.630  11.589  0.1356  0.1698  0.4688
10221TIP3    H152078   6.486   0.663  11.524 -2.5770  2.0288 -1.3168
10221TIP3    H252079   6.422   0.699  11.656 -0.9850  0.7839 -0.1790
10222TIP3   OH252080   1.682   5.241  15.172  0.2281  0.2334  0.0605
10222TIP3    H152081   1.670   5.325  15.215  0.7212  0.8313 -0.9425
10222TIP3    H252082   1.599   5.225  15.126 -0.3961 -0.5343  1.4309
10223TIP3   OH252083   5.536   6.218  12.829  0.0887  0.4906  0.0748
10223TIP3    H152084   5.580   6.277  12.767  2.4301 -0.7355  0.5173
10223TIP3    H252085   5.498   6.150  12.774 -0.2988  0.9583 -0.2372
10224TIP3   OH252086   6.410   5.085  11.230  0.2075  0.3330  0.5201
10224TIP3    H152087   6.330   5.035  11.243 -0.3496  0.7539 -1.2431
10224TIP3    H252088   6.380   5.173  11.206  1.1943  0.3643 -0.6398
10225TIP3   OH252089   6.777   0.368  12.965  0.4428  0.0228  0.5246
10225TIP3    H152090   6.781   0.292  12.906 -0.1333 -0.1405  0.6973
10225TIP3    H252091   6.746   0.332  13.048 -0.3067  0.5347  0.4608
10226TIP3   OH252092   3.217   0.579   4.489  0.5403  0.3917  0.3436
10226TIP3    H152093   3.145   0.639   4.506 -0.1678  0.1827 -1.7785
10226TIP3    H252094   3.224   0.576   4.393  1.9007 -1.3097  0.4661
10227TIP3   OH252095   6.369   1.405  16.145 -0.0055 -0.0356 -0.1787
10227TIP3    H152096   6.365   1.418  16.050 -0.2593  1.0893 -0.0275
10227TIP3    H252097   6.277   1.409  16.173  0.0300 -0.8258  0.0658
10228TIP3   OH252098   6.458   0.231  16.760 -0.3438  0.5336  0.5830
10228TIP3    H152099   6.493   0.219  16.848  0.4173  0.3774  0.2678
10228TIP3    H252100   6.480   0.150  16.714 -0.6554  0.6488  0.2268
10229TIP3   OH252101   6.124   6.736  14.560 -0.2752 -0.4863  0.3496
10229TIP3    H152102   6.205   6.695  14.530 -1.7451 -2.7607 -0.6735
10229TIP3    H252103   6.055   6.688  14.515 -2.2220  1.1435  1.5113
10230TIP3   OH252104   0.820   3.702   5.353  0.3211  0.1709  0.3077
10230TIP3    H152105   0.864   3.740   5.277  1.7984 -0.0241  1.0370
10230TIP3    H252106   0.803   3.776   5.411  0.4891  0.1331  0.4072
10231TIP3   OH252107   3.423   6.701   2.233 -0.2351  0.4588  0.6718
10231TIP3    H152108   3.432   6.677   2.141  1.9906 -1.5826  1.3500
10231TIP3    H252109   3.496   6.761   2.249 -2.0978  2.8222  0.5317
10232TIP3   OH252110   5.601   0.741  11.976 -0.0288 -0.4707 -0.0753
10232TIP3    H152111   5.671   0.694  12.021  0.4739  1.2914  1.0719
10232TIP3    H252112   5.643   0.819  11.941 -1.6374  1.3437  1.8480
10233TIP3   OH252113   5.407   3.227  17.146  0.5063 -0.1541 -0.3428
10233TIP3    H152114   5.400   3.178  17.228 -1.1421 -0.0509 -0.4149
10233TIP3    H252115   5.409   3.159  17.078 -1.7852 -0.1396 -0.4442
10234TIP3   OH252116   5.852   6.468   4.842 -0.4804 -0.9285  0.2853
10234TIP3    H152117   5.897   6.393   4.803 -0.1444 -0.8638  0.5443
10234TIP3    H252118   5.827   6.439   4.929  3.9656  0.7840  2.3034
10235TIP3   OH252119   1.396   5.471  12.542 -0.0078  0.5551 -0.2886
10235TIP3    H152120   1.381   5.386  12.582 -1.3026  0.7353 -0.3616
10235TIP3    H252121   1.351   5.533  12.600  2.0475  1.3621  0.4969
10236TIP3   OH252122   1.039   5.027  13.699  0.3700  0.3837  0.4576
10236TIP3    H152123   1.107   5.019  13.632  1.0527 -1.7988  1.3899
10236TIP3    H252124   1.079   5.079  13.768  0.2843  1.0757 -0.0033
10237TIP3   OH252125   1.734   2.849   2.552 -0.8937  0.3250  0.0996
10237TIP3    H152126   1.651   2.885   2.585  0.3030  1.5624  1.8728
10237TIP3    H252127   1.742   2.764   2.596 -0.8513  0.5557  0.5435
10238TIP3   OH252128   0.767   0.707   5.841 -0.0307  0.0773 -0.1104
10238TIP3    H152129   0.717   0.784   5.812 -1.7359 -1.2036 -0.6966
10238TIP3    H252130   0.755   0.706   5.936  0.1684  0.6577 -0.0783
10239TIP3   OH252131   2.671   0.578  11.797 -0.3157  0.2190  0.4179
10239TIP3    H152132   2.707   0.649  11.851 -1.6987  1.9059 -0.8357
10239TIP3    H252133   2.688   0.606  11.707 -0.0796 -1.4893 -0.0706
10240TIP3   OH252134   2.843   6.160  13.165 -0.1377  0.3993  0.2387
10240TIP3    H152135   2.929   6.181  13.201  1.1092 -0.9541 -1.8284
10240TIP3    H252136   2.831   6.221  13.093  0.3618 -1.2412 -1.2721
10241TIP3   OH252137   3.858   3.284   2.733  0.0828  0.1426 -0.2232
10241TIP3    H152138   3.767   3.306   2.713 -0.3666  0.2805  1.8184
10241TIP3    H252139   3.865   3.191   2.715 -0.5817  0.0405  0.0334
10242TIP3   OH252140   2.090   3.309  14.470  0.8105 -0.1162 -0.0279
10242TIP3    H152141   1.998   3.296  14.447  0.7396  0.9151 -0.3372
10242TIP3    H252142   2.129   3.222  14.459 -0.0283 -0.4669 -0.3342
10243TIP3   OH252143   4.692   6.664  13.015 -0.3543 -0.4265 -0.1137
10243TIP3    H152144   4.653   6.692  12.933 -0.6918  0.0822  0.2185
10243TIP3    H252145   4.754   6.596  12.990 -0.3304 -0.1535 -0.8058
10244TIP3   OH252146   1.424   6.374  16.460  0.3514 -0.0987  0.1931
10244TIP3    H152147   1.358   6.316  16.499  1.1559 -0.6717  0.7133
10244TIP3    H252148   1.383   6.406  16.380 -0.7064 -0.1597  0.7018
10245TIP3   OH252149   2.694   5.564   2.242 -0.2604  0.1669 -0.1858
10245TIP3    H152150   2.732   5.603   2.164  1.7756 -2.0276 -0.3446
10245TIP3    H252151   2.740   5.606   2.315  1.3111 -1.2489 -0.3338
10246TIP3   OH252152   6.753   2.222  11.426  0.0805 -0.4507  0.0360
10246TIP3    H152153   6.666   2.187  11.405  0.3261 -1.7422  1.1018
10246TIP3    H252154   6.809   2.192  11.355  0.0908 -1.4343  0.4540
10247TIP3   OH252155   4.740   0.154   3.186  0.3870  0.4795 -0.4082
10247TIP3    H152156   4.749   0.080   3.246  1.8359  1.1198  0.1768
10247TIP3    H252157   4.695   0.117   3.110 -0.8108 -0.5149  0.7382
10248TIP3   OH252158   1.983   0.244   1.230  0.3493  0.4710 -0.1013
10248TIP3    H152159   1.892   0.263   1.210  1.0013  0.7624 -2.9793
10248TIP3    H252160   2.028   0.329   1.223  1.1606  0.0070 -0.6476
10249TIP3   OH252161   6.207   5.566   4.882  0.1602  0.5111 -0.2215
10249TIP3    H152162   6.277   5.541   4.942  0.3159  1.1420 -0.1383
10249TIP3    H252163   6.231   5.525   4.798 -0.8363 -1.6530  0.5028
10250TIP3   OH252164   1.377   0.325   1.828 -0.3593 -0.1540 -0.0429
10250TIP3    H152165   1.283   0.310   1.822 -0.2427 -0.6518 -0.7692
10250TIP3    H252166   1.414   0.272   1.756  0.3873  0.7552 -0.3342
10251TIP3   OH252167   6.406   3.922  14.796  0.4124 -0.3659 -0.1593
10251TIP3    H152168   6.366   3.916  14.709 -0.2312 -0.2150  0.1231
10251TIP3    H252169   6.417   3.831  14.824  1.3367 -0.4347 -0.7189
10252TIP3   OH252170   0.483   2.851   1.787 -0.0279 -0.1401  0.1967
10252TIP3    H152171   0.531   2.821   1.864  1.2247 -0.0089 -0.5180
10252TIP3    H252172   0.549   2.855   1.717 -1.2276 -0.6588 -0.9856
10253TIP3   OH252173   1.108   5.062   3.725 -0.3178 -0.2742 -0.7136
10253TIP3    H152174   1.167   4.987   3.737 -0.4449  0.0013  1.7560
10253TIP3    H252175   1.167   5.135   3.706  0.0936 -0.1851  0.8593
10254TIP3   OH252176   3.968   2.820   4.721 -0.1412 -0.7772  0.1745
10254TIP3    H152177   4.055   2.810   4.761  0.8500 -0.6299 -1.8502
10254TIP3    H252178   3.961   2.746   4.660 -0.5277  0.3754 -1.2339
10255TIP3   OH252179   4.345   6.648  14.444 -0.2056  0.1381  0.4192
10255TIP3    H152180   4.371   6.647  14.536  1.6741 -0.3260 -0.1000
10255TIP3    H252181   4.253   6.620  14.444 -0.1578 -0.0190  2.1236
10256TIP3   OH252182   1.815   1.333  10.532  0.2038 -0.7889 -0.2509
10256TIP3    H152183   1.799   1.325  10.438  1.1436 -0.2428 -0.4689
10256TIP3    H252184   1.735   1.370  10.568 -0.5388 -1.9293 -0.6841
10257TIP3   OH252185   1.264   6.042   6.328  0.6433 -0.1523  0.0383
10257TIP3    H152186   1.303   6.028   6.415  1.8039 -2.7274 -0.8432
10257TIP3    H252187   1.281   6.134   6.309 -0.5270  0.7250  2.9674
10258TIP3   OH252188   2.006   4.948   6.081 -0.1279  0.7167  0.0057
10258TIP3    H152189   1.932   4.931   6.141  0.4337 -1.4394  0.1350
10258TIP3    H252190   1.996   4.882   6.012  2.1438 -0.1869  0.4873
10259TIP3   OH252191   2.610   3.295   0.039  0.6270 -0.5691  0.7870
10259TIP3    H152192   2.523   3.335   0.047  0.7247 -0.7150  2.8152
10259TIP3    H252193   2.670   3.363   0.068  0.9951 -1.2438  1.6320
10260TIP3   OH252194   1.291   1.091  12.939 -0.0460  0.6338 -0.3500
10260TIP3    H152195   1.211   1.102  12.889 -0.5211 -2.1456 -0.2780
10260TIP3    H252196   1.264   1.099  13.030  0.0889  1.4225 -0.3713
10261TIP3   OH252197   6.154   1.827   5.166  0.3592 -0.3178  0.8227
10261TIP3    H152198   6.089   1.760   5.143  0.5099 -0.9890  2.3127
10261TIP3    H252199   6.238   1.786   5.148  0.4200 -0.0343  0.4528
10262TIP3   OH252200   2.046   1.134   5.249 -0.2513 -0.1966 -0.5790
10262TIP3    H152201   2.090   1.085   5.180  0.2356  1.7984 -1.7359
10262TIP3    H252202   2.079   1.223   5.240 -1.9536  0.6024  0.7344
10263TIP3   OH252203   4.353   0.692  13.274 -0.2966 -0.4956 -0.1883
10263TIP3    H152204   4.364   0.714  13.182  3.0719 -2.2940 -0.2745
10263TIP3    H252205   4.269   0.645  13.277 -0.2084 -0.8495 -2.4106
10264TIP3   OH252206   4.783   0.826   3.268  0.3296 -0.7076  0.1952
10264TIP3    H152207   4.725   0.892   3.305  3.7648  1.5324  1.9296
10264TIP3    H252208   4.742   0.802   3.185 -1.5791  2.8795 -0.0090
10265TIP3   OH252209   2.172   1.512  11.338 -0.1496 -0.8992  0.7227
10265TIP3    H152210   2.245   1.508  11.276  0.9710  1.6555  1.8170
10265TIP3    H252211   2.094   1.492  11.285  1.0851 -1.5053 -0.8933
10266TIP3   OH252212   1.262   0.749   4.007  0.3918 -0.1221 -0.2809
10266TIP3    H152213   1.342   0.741   4.059  0.1544  2.3864  0.5413
10266TIP3    H252214   1.242   0.659   3.979  2.5843 -0.9928  0.8489
10267TIP3   OH252215   2.358   6.029   2.583  0.1368  0.1580 -0.4376
10267TIP3    H152216   2.325   5.993   2.501  2.7815 -1.6077 -0.7717
10267TIP3    H252217   2.361   6.124   2.568 -0.6581 -0.0301 -1.8818
10268TIP3   OH252218   6.401   4.356  12.100  0.0131 -0.0235  0.1348
10268TIP3    H152219   6.403   4.277  12.154 -1.1509 -1.2739 -1.6412
10268TIP3    H252220   6.485   4.355  12.054 -1.1339 -1.7832 -2.0346
10269TIP3   OH252221   4.664   6.663   3.766  0.3673  0.3546 -0.0145
10269TIP3    H152222   4.569   6.676   3.765  0.5775  1.8651 -0.5858
10269TIP3    H252223   4.699   6.734   3.713  1.9486  0.7184  1.4799
10270TIP3   OH252224   5.252   5.161  11.190  0.0039 -0.0491  0.2355
10270TIP3    H152225   5.346   5.178  11.184 -0.2511  1.1365 -0.5806
10270TIP3    H252226   5.211   5.244  11.165 -1.2720 -1.1792 -1.5624
10271TIP3   OH252227   1.066   3.732   1.279  0.4849 -0.2693  0.1968
10271TIP3    H152228   1.126   3.787   1.230  1.9108  1.0903  3.3271
10271TIP3    H252229   0.986   3.785   1.287  0.4941 -0.2143 -0.0734
10272TIP3   OH252230   0.316   3.912   2.829 -0.0969  0.1217  0.2134
10272TIP3    H152231   0.395   3.966   2.830  0.3479 -0.5230  0.8946
10272TIP3    H252232   0.261   3.949   2.899 -0.6286  0.9017 -0.6150
10273TIP3   OH252233   0.235   2.392  11.375 -0.3134  0.0450 -0.8104
10273TIP3    H152234   0.142   2.390  11.353 -0.9515 -0.8683  1.7452
10273TIP3    H252235   0.249   2.479  11.413 -0.4966 -0.4057  0.2922
10274TIP3   OH252236   2.211   0.382  15.314 -0.6538  0.3708  0.1385
10274TIP3    H152237   2.240   0.300  15.355 -1.0716 -0.4150 -1.0890
10274TIP3    H252238   2.221   0.366  15.220 -1.5275  1.4314 -0.1489
10275TIP3   OH252239   4.880   0.933   1.776  0.2154  0.5773  0.0584
10275TIP3    H152240   4.801   0.940   1.830  1.2101  1.8654  1.4042
10275TIP3    H252241   4.848   0.915   1.688 -1.6789  2.5677  0.3089
10276TIP3   OH252242   6.646   0.884   0.838 -0.1713 -0.1569 -0.9406
10276TIP3    H152243   6.711   0.819   0.811 -0.0518 -0.0327 -0.9531
10276TIP3    H252244   6.680   0.967   0.805  0.2175  0.0622 -0.0038
10277TIP3   OH252245   5.225   4.920   6.457 -0.1876  0.0631  0.0388
10277TIP3    H152246   5.192   4.992   6.404  2.1204  0.6582 -0.6626
10277TIP3    H252247   5.216   4.949   6.547  1.8702  1.8060 -0.2710
10278TIP3   OH252248   2.765   6.558  15.618  0.0912  0.0335  0.5991
10278TIP3    H152249   2.691   6.618  15.628  1.1658  1.7680 -1.4940
10278TIP3    H252250   2.736   6.494  15.553 -0.1998 -0.3452  1.0957
10279TIP3   OH252251   3.483   4.672   3.466  0.6336 -0.0984  0.0794
10279TIP3    H152252   3.418   4.625   3.414  2.3478 -0.5820 -1.6791
10279TIP3    H252253   3.514   4.606   3.529  0.2333 -0.1732  0.2031
10280TIP3   OH252254   3.137   3.361   2.063 -0.0943  0.0267  0.5206
10280TIP3    H152255   3.099   3.272   2.063 -2.8705  1.1626  0.4216
10280TIP3    H252256   3.140   3.384   2.156 -0.1113  0.1182  0.4977
10281TIP3   OH252257   3.117   2.657   0.935 -0.1284  0.7770 -0.0312
10281TIP3    H152258   3.143   2.709   0.859 -0.1570  1.1594  0.2168
10281TIP3    H252259   3.194   2.659   0.992  0.3259 -0.5187 -0.5810
10282TIP3   OH252260   1.421   4.753   1.100  0.6714  0.2783  0.2299
10282TIP3    H152261   1.421   4.681   1.163  0.7291  2.3993  2.7500
10282TIP3    H252262   1.344   4.804   1.123 -0.9092 -0.4127 -3.2937
10283TIP3   OH252263   5.574   1.968  15.636  0.0253  0.0324  0.2223
10283TIP3    H152264   5.599   1.983  15.545  2.2781  0.9693  0.9544
10283TIP3    H252265   5.655   1.980  15.685 -1.5960  1.7831  2.5876
10284TIP3   OH252266   1.289   1.690   1.675  0.0972 -0.3956 -0.0916
10284TIP3    H152267   1.362   1.743   1.709 -0.3142 -0.6692  1.2753
10284TIP3    H252268   1.318   1.661   1.589  0.8257  1.0713 -0.3548
10285TIP3   OH252269   5.408   3.749  15.818  0.1619  0.6100 -0.1445
10285TIP3    H152270   5.449   3.810  15.758  1.4136 -1.4833 -1.4846
10285TIP3    H252271   5.325   3.726  15.776 -0.1325  1.0979  0.1705
10286TIP3   OH252272   3.258   4.427  14.436  0.5866 -0.1467 -0.2114
10286TIP3    H152273   3.270   4.513  14.475  0.6310 -0.4944  0.5542
10286TIP3    H252274   3.169   4.429  14.400  0.5546  0.1894 -0.1145
10287TIP3   OH252275   3.389   4.188  11.847 -0.3908  0.2667 -0.3399
10287TIP3    H152276   3.389   4.201  11.752 -0.0270 -1.7758 -0.6335
10287TIP3    H252277   3.296   4.190  11.871 -0.4039  2.4943 -0.4705
10288TIP3   OH252278   1.262   2.463  14.601  0.1631  0.0990 -0.2417
10288TIP3    H152279   1.352   2.434  14.584  0.5211  1.2750 -0.3551
10288TIP3    H252280   1.226   2.481  14.515 -0.6918 -1.8485 -0.3107
10289TIP3   OH252281   4.570   4.125   2.245 -0.6860 -0.1048 -0.0063
10289TIP3    H152282   4.542   4.158   2.330 -0.7632 -1.8836  0.6801
10289TIP3    H252283   4.493   4.133   2.189 -1.5471 -1.7380  0.9236
10290TIP3   OH252284   0.270   1.768  15.873  0.2606 -0.4101  0.8922
10290TIP3    H152285   0.344   1.758  15.932  0.8025  0.6973  0.4044
10290TIP3    H252286   0.298   1.834  15.810 -0.7087 -0.8222  0.0231
10291TIP3   OH252287   5.201   6.233   3.149 -0.4165 -0.1745 -0.2395
10291TIP3    H152288   5.281   6.221   3.098 -1.6024 -0.9808 -1.9560
10291TIP3    H252289   5.156   6.149   3.142 -1.3782  0.2449  0.7867
10292TIP3   OH252290   5.901   1.878  11.874  0.2101  0.2640 -0.1325
10292TIP3    H152291   5.961   1.877  11.799  1.1689 -1.3524  0.6112
10292TIP3    H252292   5.957   1.898  11.949 -0.4458  0.2500  0.3657
10293TIP3   OH252293   4.680   3.824   5.836 -0.3314 -0.1245  0.6406
10293TIP3    H152294   4.679   3.888   5.765  3.8042  0.4950  1.0666
10293TIP3    H252295   4.682   3.739   5.791  1.5760  0.2428 -0.0041
10294TIP3   OH252296   4.353   5.665   1.967  0.1964 -0.3951 -0.6519
10294TIP3    H152297   4.272   5.624   1.936 -0.0254  0.0067 -0.6119
10294TIP3    H252298   4.323   5.741   2.016  0.5330 -1.1786  0.7816
10295TIP3   OH252299   3.290   3.652  13.290  0.0708  0.2739  0.1219
10295TIP3    H152300   3.349   3.705  13.344 -0.8077 -0.3251  1.7179
10295TIP3    H252301   3.302   3.563  13.323 -2.4285  0.2795  1.1656
10296TIP3   OH252302   5.387   2.740   0.212 -0.4305 -0.7167 -0.0362
10296TIP3    H152303   5.453   2.732   0.143 -0.0747 -1.4097  0.3779
10296TIP3    H252304   5.314   2.785   0.170  1.1271  2.0431  0.0842
10297TIP3   OH252305   2.110   0.645  12.584 -0.1405  0.0577  0.4912
10297TIP3    H152306   2.126   0.617  12.494 -2.3639 -0.2794  0.1702
10297TIP3    H252307   2.087   0.738  12.575 -0.2028  0.0640  0.7325
10298TIP3   OH252308   0.224   3.885   1.914 -0.2138 -0.5594 -0.5123
10298TIP3    H152309   0.259   3.866   1.827 -0.1139  1.0458 -0.8293
10298TIP3    H252310   0.136   3.847   1.912  0.1608 -1.4303 -0.9511
10299TIP3   OH252311   3.623   1.158   5.485 -0.4170 -0.1725  0.2249
10299TIP3    H152312   3.598   1.181   5.396 -0.2468 -3.7424 -0.8441
10299TIP3    H252313   3.556   1.095   5.513  1.3139 -1.5493  1.3739
10300TIP3   OH252314   6.094   1.087  15.129 -0.8182 -0.2552  0.3234
10300TIP3    H152315   6.064   1.039  15.206 -2.7226  0.6155  0.1586
10300TIP3    H252316   6.047   1.170  15.133 -0.2292  0.1745 -1.2852
10301TIP3   OH252317   6.704   4.854   2.354  0.0027 -0.4242  0.3058
10301TIP3    H152318   6.639   4.876   2.420  0.8737  1.1893  0.6663
10301TIP3    H252319   6.655   4.810   2.285 -2.1649  3.8071 -1.0431
10302TIP3   OH252320   1.495   5.130  12.349  0.2201  0.1563  0.4092
10302TIP3    H152321   1.400   5.118  12.338  0.5149 -1.8831 -0.0545
10302TIP3    H252322   1.523   5.172  12.267 -0.6498  3.0730  1.5639
10303TIP3   OH252323   6.720   0.564  15.262  0.1853 -0.1936 -0.0568
10303TIP3    H152324   6.741   0.524  15.347  1.0233 -2.4277 -1.2552
10303TIP3    H252325   6.806   0.583  15.223 -0.1944  0.9579 -0.3329
10304TIP3   OH252326   4.151   3.431   3.956  0.0610  0.5353  0.3861
10304TIP3    H152327   4.195   3.510   3.926 -0.4534  0.7237  0.1277
10304TIP3    H252328   4.089   3.410   3.886  1.2289 -0.9269 -0.2207
10305TIP3   OH252329   3.310   0.948   4.970 -0.0240  0.6895 -0.1642
10305TIP3    H152330   3.298   0.893   4.892 -3.5152  0.7245  0.2836
10305TIP3    H252331   3.328   0.887   5.041  0.3946  0.4644 -0.4613
10306TIP3   OH252332   3.866   1.735   2.322 -0.1833 -0.0096  0.6844
10306TIP3    H152333   3.801   1.802   2.301 -0.8354 -0.2607  1.8403
10306TIP3    H252334   3.846   1.710   2.412  0.3963 -1.3583  0.4523
10307TIP3   OH252335   1.141   4.696   4.671 -0.3898 -0.2876  0.8163
10307TIP3    H152336   1.052   4.697   4.635 -0.4932  1.0674  1.1126
10307TIP3    H252337   1.139   4.625   4.735 -0.1557 -2.8535 -1.9168
10308TIP3   OH252338   1.792   5.702  16.079 -0.5954 -0.5912 -0.4311
10308TIP3    H152339   1.829   5.639  16.017  0.0093 -0.2725 -0.3883
10308TIP3    H252340   1.812   5.666  16.165 -0.9571 -0.7496 -0.4094
10309TIP3   OH252341   5.576   2.918  13.972 -0.1366 -0.1345 -0.0051
10309TIP3    H152342   5.495   2.905  14.021 -1.2087  1.9252 -1.1700
10309TIP3    H252343   5.580   2.843  13.913 -0.0876 -1.3533  1.5192
10310TIP3   OH252344   4.513   6.551   1.963 -0.2775 -0.1287  0.4343
10310TIP3    H152345   4.472   6.594   2.038 -2.9119  0.9521 -1.5378
10310TIP3    H252346   4.550   6.622   1.912 -0.4106 -0.6603 -0.4038
10311TIP3   OH252347   1.016   6.595   3.156  0.1312 -0.1558  0.1484
10311TIP3    H152348   0.971   6.679   3.168 -1.7766 -1.3531  1.5938
10311TIP3    H252349   0.993   6.567   3.067  1.3140  1.1290 -0.5890
10312TIP3   OH252350   2.163   0.926   1.939  0.2393 -0.1676  0.1661
10312TIP3    H152351   2.098   0.857   1.949  1.6402 -1.3689  1.3113
10312TIP3    H252352   2.140   0.970   1.858 -1.4223 -1.1839  0.0745
10313TIP3   OH252353   2.172   4.691   4.713  0.2861 -0.3166  0.6903
10313TIP3    H152354   2.226   4.757   4.670  0.8767 -0.7072  0.8197
10313TIP3    H252355   2.083   4.727   4.710  0.5251  0.2579  0.3287
10314TIP3   OH252356   5.900   1.591   4.428 -0.1867  0.2747 -0.5437
10314TIP3    H152357   5.893   1.678   4.388 -0.9391 -0.2406 -1.5420
10314TIP3    H252358   5.887   1.607   4.522 -3.1800  0.8819 -1.0129
10315TIP3   OH252359   0.246   2.913  14.336  0.1203  0.0635 -0.3499
10315TIP3    H152360   0.278   2.833  14.295 -0.0479  0.4639 -1.2753
10315TIP3    H252361   0.185   2.882  14.403 -0.1543 -0.5841 -0.8852
10316TIP3   OH252362   0.759   5.258   6.475 -0.3315 -0.2531  0.0694
10316TIP3    H152363   0.694   5.188   6.479 -0.9357  0.3311  0.7015
10316TIP3    H252364   0.843   5.214   6.488 -0.7907 -0.7324  1.5344
10317TIP3   OH252365   6.053   1.094   5.410  0.1767 -0.3234  0.1138
10317TIP3    H152366   6.064   1.023   5.346 -1.7935 -0.4178 -0.1444
10317TIP3    H252367   6.001   1.160   5.364 -0.4089  0.0488  1.2947
10318TIP3   OH252368   1.476   3.959   5.811  0.0232 -0.3236  0.2386
10318TIP3    H152369   1.452   4.039   5.764 -0.2783 -0.8013 -0.4340
10318TIP3    H252370   1.549   3.923   5.761 -0.5696 -1.0561 -0.1216
10319TIP3   OH252371   2.909   0.950   1.708 -0.2725 -0.3949  0.6734
10319TIP3    H152372   2.900   1.014   1.637  1.5617  0.5559  1.2661
10319TIP3    H252373   2.997   0.914   1.696 -0.4968 -1.2742  1.6270
10320TIP3   OH252374   3.829   1.983   3.481 -0.5675  0.3492  0.5544
10320TIP3    H152375   3.866   1.928   3.412 -1.8528 -0.1955  0.2721
10320TIP3    H252376   3.756   2.029   3.438 -0.7527  0.7518  1.2946
10321TIP3   OH252377   1.059   2.328  16.193  0.7083 -0.2971  0.2534
10321TIP3    H152378   1.146   2.289  16.181  0.6119  0.3149 -2.6628
10321TIP3    H252379   1.004   2.284  16.128 -0.9406  0.0984  1.3447
10322TIP3   OH252380   0.365   2.622   0.153 -0.3967  0.3808 -0.4206
10322TIP3    H152381   0.425   2.548   0.164 -3.0300 -2.0041 -1.3063
10322TIP3    H252382   0.326   2.634   0.240 -0.3148  0.4312 -0.3905
10323TIP3   OH252383   6.724   5.919  13.892 -0.3422  0.0513 -0.2901
10323TIP3    H152384   6.793   5.860  13.921 -0.9257 -0.8489 -0.7090
10323TIP3    H252385   6.691   5.880  13.812 -1.9012  0.0154  0.3533
10324TIP3   OH252386   0.195   2.742   3.033  0.7027  0.5921 -0.0506
10324TIP3    H152387   0.231   2.655   3.013  1.8942  1.1444 -0.3140
10324TIP3    H252388   0.136   2.760   2.961  0.0839 -0.2036  0.2450
10325TIP3   OH252389   5.240   3.437   0.140 -0.2635  0.5257  0.6579
10325TIP3    H152390   5.306   3.387   0.188  0.4334  0.8074 -0.0057
10325TIP3    H252391   5.170   3.373   0.123 -0.3019  0.3038  1.6164
10326TIP3   OH252392   6.181   3.020   1.801 -0.4644  0.1717 -0.1742
10326TIP3    H152393   6.266   2.978   1.799 -1.4023 -1.7583 -0.1772
10326TIP3    H252394   6.186   3.087   1.732  1.2554  0.5429  0.2919
10327TIP3   OH252395   3.101   0.724   3.036 -0.3641 -0.3438 -0.7599
10327TIP3    H152396   3.186   0.768   3.031  1.0128 -2.9264 -0.7909
10327TIP3    H252397   3.074   0.736   3.127  0.0948  0.3749 -0.7145
10328TIP3   OH252398   3.854   0.983  12.341 -0.4168 -0.9161  0.6400
10328TIP3    H152399   3.890   1.062  12.380  1.8856 -1.8079  0.4267
10328TIP3    H252400   3.841   1.004  12.249 -0.5531 -0.5495  0.7443
10329TIP3   OH252401   4.987   2.036  13.374  0.1233  0.2114  0.2467
10329TIP3    H152402   4.980   2.124  13.338 -0.1028  0.5809  1.1905
10329TIP3    H252403   4.975   1.978  13.298 -0.9991  0.9706 -0.1649
10330TIP3   OH252404   1.501   5.757  15.470  0.3084  0.3181  0.2864
10330TIP3    H152405   1.458   5.816  15.532  1.8562  1.2974  0.4557
10330TIP3    H252406   1.586   5.798  15.452  0.4309 -0.6326 -1.4580
10331TIP3   OH252407   2.208   4.300   0.454  0.0612  0.2114 -0.2022
10331TIP3    H152408   2.295   4.325   0.484  0.5265  1.4507 -2.5031
10331TIP3    H252409   2.172   4.379   0.415 -1.0063 -1.0099 -1.7618
10332TIP3   OH252410   1.201   5.573   2.485 -0.1057  0.2958 -0.3209
10332TIP3    H152411   1.116   5.588   2.525  0.0166 -0.1117  0.0912
10332TIP3    H252412   1.191   5.602   2.394 -0.2997  1.5072  0.0762
10333TIP3   OH252413   0.278   2.674   6.074 -0.7576  0.4395  0.3657
10333TIP3    H152414   0.265   2.755   6.123 -1.3211 -0.2649  1.3854
10333TIP3    H252415   0.336   2.621   6.128 -1.3069 -0.3085  0.2344
10334TIP3   OH252416   2.042   2.303   0.123  0.6373 -0.3597  0.4757
10334TIP3    H152417   2.024   2.240   0.054 -0.2753 -0.5510  0.8705
10334TIP3    H252418   2.134   2.289   0.146  0.6207 -1.0894  0.1076
10335TIP3   OH252419   2.480   6.264  14.895 -0.4112 -0.0477  0.4888
10335TIP3    H152420   2.423   6.340  14.881 -0.7279 -0.4535 -0.4822
10335TIP3    H252421   2.478   6.250  14.989  0.0458  1.4484  0.7340
10336TIP3   OH252422   2.583   5.787   1.737 -0.7681 -0.1772 -0.6163
10336TIP3    H152423   2.622   5.838   1.666 -2.2111  0.1047 -1.2206
10336TIP3    H252424   2.658   5.758   1.789  0.3385 -0.5518 -2.3533
10337TIP3   OH252425   3.087   5.027   3.167  0.4049 -0.0737 -0.0366
10337TIP3    H152426   3.009   4.979   3.195 -0.1459 -0.1133 -1.5842
10337TIP3    H252427   3.054   5.095   3.108  1.6889 -1.4027 -2.3657
10338TIP3   OH252428   6.441   4.532   2.215  0.0664  0.5670 -0.4461
10338TIP3    H152429   6.413   4.442   2.231 -1.6523  1.6226  2.8321
10338TIP3    H252430   6.534   4.534   2.240 -0.4889  0.2314  1.6716
10339TIP3   OH252431   2.189   4.846   4.302 -0.6895  0.4598 -0.3337
10339TIP3    H152432   2.210   4.939   4.293 -0.8480  0.5315  0.0155
10339TIP3    H252433   2.252   4.814   4.367  0.2426  0.0216 -1.4286
10340TIP3   OH252434   0.559   0.557   3.919  0.4627 -0.8311 -0.1643
10340TIP3    H152435   0.525   0.514   3.997  0.9883  0.2898  0.7153
10340TIP3    H252436   0.652   0.533   3.918  0.3898 -1.0804 -0.5991
10341TIP3   OH252437   5.438   2.256   2.651  0.2886 -1.1773  0.1586
10341TIP3    H152438   5.430   2.216   2.564 -0.0850  0.0108 -0.3602
10341TIP3    H252439   5.532   2.272   2.661  0.3425 -1.4009  0.0043
10342TIP3   OH252440   3.705   5.801   3.589  0.2232 -0.0824 -0.4186
10342TIP3    H152441   3.713   5.820   3.683  0.2463 -0.7631 -0.2790
10342TIP3    H252442   3.790   5.821   3.552  1.0102 -2.1997  0.1425
10343TIP3   OH252443   4.938   0.377  16.540  0.4098 -0.3317 -0.4478
10343TIP3    H152444   4.907   0.289  16.518 -1.0511 -0.0291  0.3525
10343TIP3    H252445   4.963   0.371  16.632 -0.8117  0.3702 -0.0504
10344TIP3   OH252446   4.118   5.057   0.356 -0.6304 -0.2731  0.4662
10344TIP3    H152447   4.029   5.081   0.332  0.1189  0.2128 -1.9864
10344TIP3    H252448   4.115   4.962   0.367 -1.0376 -0.5205 -1.5819
10345TIP3   OH252449   1.144   6.201  11.260  0.3336 -0.2343 -0.7177
10345TIP3    H152450   1.082   6.263  11.221  0.0783 -0.8345 -1.2790
10345TIP3    H252451   1.203   6.178  11.189  0.8334 -0.1373 -0.3380
10346TIP3   OH252452   4.439   1.066  11.257  0.3257  0.0567 -0.3124
10346TIP3    H152453   4.477   1.105  11.178  0.2319 -0.3162 -0.5463
10346TIP3    H252454   4.432   0.972  11.236 -1.6600  0.2626 -0.6821
10347TIP3   OH252455   1.180   2.695   4.343  0.2067  1.0720  0.0070
10347TIP3    H152456   1.207   2.715   4.253  3.5012  1.0510  0.9543
10347TIP3    H252457   1.148   2.778   4.377 -0.0060  1.3306 -0.8065
10348TIP3   OH252458   5.779   1.449  11.335  0.4387 -0.4160  0.1856
10348TIP3    H152459   5.724   1.394  11.279 -0.6465  0.9748 -0.1402
10348TIP3    H252460   5.824   1.508  11.273  1.3924 -0.7607  0.5475
10349TIP3   OH252461   0.080   4.783  12.853 -0.2344  0.0926  0.3168
10349TIP3    H152462   0.136   4.845  12.805 -2.4940  1.6537 -0.3659
10349TIP3    H252463   0.061   4.714  12.789 -0.8831  0.7079 -0.1745
10350TIP3   OH252464   1.435   6.611   3.344 -0.5093  0.7816 -0.3613
10350TIP3    H152465   1.405   6.554   3.415 -1.0344  0.0636 -1.1586
10350TIP3    H252466   1.499   6.669   3.386  0.4461 -0.7620  0.3522
10351TIP3   OH252467   0.276   0.199   5.209  0.0108 -0.3994  0.3839
10351TIP3    H152468   0.276   0.293   5.227 -0.1845 -0.2668 -0.3077
10351TIP3    H252469   0.184   0.177   5.197  0.0347 -0.7308  0.7934
10352TIP3   OH252470   3.783   5.853   1.157 -0.6102 -0.1322 -0.2151
10352TIP3    H152471   3.779   5.805   1.240  0.9689  0.4802  0.2359
10352TIP3    H252472   3.874   5.883   1.151 -1.7013  3.5304 -0.0177
10353TIP3   OH252473   2.157   3.921   6.644 -0.0233  0.3190  0.3783
10353TIP3    H152474   2.154   3.869   6.564 -0.8724  0.9788 -0.0251
10353TIP3    H252475   2.250   3.942   6.655  0.2859 -0.9471  0.3467
10354TIP3   OH252476   6.350   1.561  17.058  0.2266  0.3628 -0.5697
10354TIP3    H152477   6.297   1.562  16.979 -1.5267 -1.8601  0.5194
10354TIP3    H252478   6.439   1.545  17.027 -0.5124 -0.9753 -2.0620
10355TIP3   OH252479   1.926   6.298  14.484  0.2761 -0.3158  0.5183
10355TIP3    H152480   1.831   6.310  14.476  0.2368 -1.4765 -1.1579
10355TIP3    H252481   1.964   6.373  14.440  0.0744 -1.9235 -2.5669
10356TIP3   OH252482   2.964   4.180  14.590  0.3244 -0.2283  0.0922
10356TIP3    H152483   3.053   4.195  14.623  0.8448 -1.4583 -0.6960
10356TIP3    H252484   2.926   4.117  14.652 -0.0368  0.3634  0.4783
10357TIP3   OH252485   1.727   1.742  16.585 -0.0470  0.2477 -0.1937
10357TIP3    H152486   1.653   1.800  16.569 -1.5966 -0.5936  3.3985
10357TIP3    H252487   1.687   1.658  16.608  2.0336 -0.4774  0.9585
10358TIP3   OH252488   1.950   0.689   2.246  0.5183  0.4857  0.3731
10358TIP3    H152489   1.857   0.699   2.266  0.7659 -1.1062  2.5493
10358TIP3    H252490   1.988   0.652   2.326  3.1778  1.8570 -0.1973
10359TIP3   OH252491   1.681   2.535  10.777 -0.0888 -0.6084 -0.4684
10359TIP3    H152492   1.652   2.462  10.723 -1.7370 -0.6832  0.4728
10359TIP3    H252493   1.627   2.609  10.749 -0.3338 -0.4347  0.4263
10360TIP3   OH252494   0.671   3.234   4.604  0.2208  0.1611 -0.0895
10360TIP3    H152495   0.644   3.145   4.582  1.5619 -0.2444 -0.1406
10360TIP3    H252496   0.605   3.290   4.563  0.0463 -0.7633 -1.0905
10361TIP3   OH252497   0.085   2.197  12.457  0.6052  0.1123 -0.6652
10361TIP3    H152498   0.170   2.232  12.485  1.2426 -0.7071 -1.5147
10361TIP3    H252499   0.107   2.114  12.414 -0.9056 -1.7042  1.9254
10362TIP3   OH252500   3.216   4.600  15.832 -0.5021  0.0094  0.3577
10362TIP3    H152501   3.177   4.686  15.848  1.4365  1.6602 -3.4111
10362TIP3    H252502   3.310   4.613  15.846 -0.1354 -1.3498 -0.8101
10363TIP3   OH252503   0.133   6.365  11.043 -0.0207 -0.0772 -0.2466
10363TIP3    H152504   0.141   6.404  10.957 -0.3100  0.0865 -0.1999
10363TIP3    H252505   0.187   6.286  11.039  0.2156  0.0953 -0.4754
10364TIP3   OH252506   5.281   4.794  12.042  0.6988  0.4298 -0.4915
10364TIP3    H152507   5.262   4.835  11.957 -0.0189 -1.0135 -1.0484
10364TIP3    H252508   5.234   4.710  12.039 -0.7332  1.0814  2.0051
10365TIP3   OH252509   2.272   5.948   1.429 -0.1317 -0.3738 -0.6515
10365TIP3    H152510   2.208   5.899   1.481  0.5434  1.1536  1.7225
10365TIP3    H252511   2.327   5.881   1.389 -1.5142 -1.6297 -0.4638
10366TIP3   OH252512   6.641   2.942  14.532 -0.1717 -0.3851  0.0634
10366TIP3    H152513   6.556   2.906  14.507 -0.2476 -0.2153  0.0756
10366TIP3    H252514   6.652   3.019  14.476 -1.0121  0.8494  1.5696
10367TIP3   OH252515   1.498   5.172  11.542  0.0492 -0.0510 -0.3466
10367TIP3    H152516   1.530   5.230  11.610 -0.3694  1.0278 -1.0623
10367TIP3    H252517   1.562   5.181  11.471  0.3894 -1.0389 -0.1838
10368TIP3   OH252518   5.981   0.863  12.176  0.5442  0.0650  0.5785
10368TIP3    H152519   6.016   0.855  12.265  1.8457 -0.9109 -0.0000
10368TIP3    H252520   5.941   0.778  12.158 -1.4256  0.8939  0.9164
10369TIP3   OH252521   3.112   6.562   5.665 -0.0362  0.0075  0.0813
10369TIP3    H152522   3.192   6.569   5.613 -0.0254 -0.6951 -0.0023
10369TIP3    H252523   3.143   6.562   5.756  0.2421 -2.3412  0.0140
10370TIP3   OH252524   3.001   6.002  14.428 -0.2169 -0.5325 -0.2910
10370TIP3    H152525   3.033   6.065  14.492 -2.0630 -1.3890  1.5202
10370TIP3    H252526   3.057   5.925  14.440 -0.0884 -0.4337 -0.2458
10371TIP3   OH252527   3.512   5.668  14.405  0.0989 -0.3029 -0.0858
10371TIP3    H152528   3.560   5.715  14.473 -0.3644 -0.5498  0.4096
10371TIP3    H252529   3.430   5.717  14.396  1.1253  1.1358 -2.1217
10372TIP3   OH252530   2.415   2.842   1.110 -0.0796  0.3405  0.1950
10372TIP3    H152531   2.406   2.937   1.109  1.0448  0.4457 -0.8666
10372TIP3    H252532   2.449   2.820   1.023 -2.8689 -1.2936 -0.5622
10373TIP3   OH252533   1.905   1.959  16.962 -0.2469 -0.0863 -0.5679
10373TIP3    H152534   1.819   1.922  16.983 -0.8333  0.5573 -1.7687
10373TIP3    H252535   1.918   1.938  16.869  0.2140  1.1462 -0.7878
10374TIP3   OH252536   4.719   1.672  12.675 -0.3564  0.1496 -0.3139
10374TIP3    H152537   4.748   1.698  12.587 -0.3645 -0.3266 -0.4585
10374TIP3    H252538   4.623   1.674  12.669 -0.3625 -0.7035 -0.5647
10375TIP3   OH252539   2.978   3.400  11.075 -0.0291 -0.1922  0.3356
10375TIP3    H152540   2.938   3.337  11.135  0.3772 -0.8680 -0.0966
10375TIP3    H252541   3.066   3.413  11.109  0.5053 -1.2416 -0.5823
10376TIP3   OH252542   0.685   3.993  13.240 -0.0387  0.0613  0.1153
10376TIP3    H152543   0.699   3.904  13.208 -0.3687 -0.6127  1.8054
10376TIP3    H252544   0.640   4.038  13.168 -0.7291 -1.4050 -0.3723
10377TIP3   OH252545   5.849   5.112  14.537  0.0868 -0.6953 -0.5687
10377TIP3    H152546   5.763   5.071  14.541  0.3765 -1.1265  1.9446
10377TIP3    H252547   5.883   5.105  14.626  2.4111  0.1487 -1.3604
10378TIP3   OH252548   2.538   1.275  15.854 -0.3889 -0.4962 -0.0570
10378TIP3    H152549   2.518   1.181  15.858  2.8357 -1.2158  0.0153
10378TIP3    H252550   2.618   1.280  15.802 -0.7368  2.2743 -0.3747
10379TIP3   OH252551   6.121   5.196   5.005 -0.2815 -0.2240 -0.3207
10379TIP3    H152552   6.130   5.137   4.930 -2.1898  1.0636 -1.6190
10379TIP3    H252553   6.190   5.261   4.992  0.4215 -0.9253 -0.0848
10380TIP3   OH252554   1.304   0.605   0.005  0.2387  0.3167  0.4075
10380TIP3    H152555   1.286   0.587  -0.087 -2.1438 -0.2802  0.9344
10380TIP3    H252556   1.371   0.541   0.030  0.8599  0.4524 -0.8886
10381TIP3   OH252557   1.084   5.755  14.376  0.6998 -0.0260 -0.4250
10381TIP3    H152558   1.103   5.682  14.436  2.9623  0.1393 -0.8653
10381TIP3    H252559   0.989   5.756  14.368  0.6101 -2.9563 -0.4370
10382TIP3   OH252560   3.781   1.702  10.984  0.3809 -0.0108  0.4553
10382TIP3    H152561   3.704   1.750  10.953  0.7830  0.4412  0.1643
10382TIP3    H252562   3.777   1.711  11.080  0.6553  0.9075  0.3833
10383TIP3   OH252563   4.571   5.329   6.904 -0.5380  0.4411 -0.1397
10383TIP3    H152564   4.531   5.295   6.984 -2.5817  0.4469 -1.1405
10383TIP3    H252565   4.665   5.317   6.918 -1.0570 -3.7348  0.3864
10384TIP3   OH252566   5.174   2.684   4.213  0.0705 -0.3676  0.3933
10384TIP3    H152567   5.263   2.706   4.184  0.3160  0.0776  1.4723
10384TIP3    H252568   5.168   2.589   4.199  0.3032 -0.2256 -0.7704
10385TIP3   OH252569   3.544   2.337   3.078 -0.4222  0.1038  0.4789
10385TIP3    H152570   3.477   2.339   3.146 -1.0942 -0.2416 -0.1729
10385TIP3    H252571   3.579   2.427   3.076 -0.4418  0.1290  1.2310
10386TIP3   OH252572   6.626   0.084  15.921 -0.1653  0.7434 -0.3765
10386TIP3    H152573   6.585   0.121  15.999  0.5033  2.1503 -0.6711
10386TIP3    H252574   6.573   0.007  15.900 -2.4381  2.2873 -0.5235
10387TIP3   OH252575   4.057   1.656  16.227 -0.0398  0.4914 -0.4889
10387TIP3    H152576   4.002   1.582  16.255  0.1915  0.9011  1.0794
10387TIP3    H252577   4.146   1.621  16.228 -0.1338  0.1741 -1.8737
10388TIP3   OH252578   0.211   3.292   4.322 -0.6497 -0.0559 -0.2985
10388TIP3    H152579   0.273   3.231   4.282 -2.0247 -0.1989 -2.2846
10388TIP3    H252580   0.161   3.327   4.248 -1.0591  2.1742  0.9791
10389TIP3   OH252581   5.417   3.030  16.959 -0.0974 -0.2190  0.5500
10389TIP3    H152582   5.351   2.961  16.957  0.3302 -0.6235 -1.7258
10389TIP3    H252583   5.499   2.984  16.977  0.1747 -0.3193 -0.8839
10390TIP3   OH252584   4.339   0.939   1.581  0.1454 -0.1189  0.0531
10390TIP3    H152585   4.309   0.848   1.577  0.5575 -0.2825  0.5305
10390TIP3    H252586   4.260   0.989   1.601 -0.2784 -0.2450 -1.2697
10391TIP3   OH252587   1.801   4.559  16.365 -0.7021  0.6098 -0.2813
10391TIP3    H152588   1.710   4.540  16.388  0.0338 -1.8477  0.7316
10391TIP3    H252589   1.794   4.606  16.281 -2.9049  0.8699 -0.0035
10392TIP3   OH252590   5.692   5.173   5.012  0.0220  0.3869  0.2098
10392TIP3    H152591   5.746   5.180   5.091 -0.1096  0.5463  0.2847
10392TIP3    H252592   5.661   5.262   4.996  0.0644  0.3598 -0.0324
10393TIP3   OH252593   2.954   2.233  16.832  0.5118 -0.2343  0.6755
10393TIP3    H152594   2.879   2.287  16.854 -1.1168 -2.1419  0.0092
10393TIP3    H252595   2.960   2.170  16.904  0.9491 -0.6155  0.3102
10394TIP3   OH252596   2.088   3.941   2.683  0.9653 -0.3024 -0.3313
10394TIP3    H152597   2.171   3.982   2.705 -1.0531  3.7535  0.3956
10394TIP3    H252598   2.078   3.955   2.588  0.4752  0.5499 -0.1606
10395TIP3   OH252599   2.689   6.366   3.778  0.1136  0.1281 -0.0187
10395TIP3    H152600   2.784   6.360   3.794  0.0788  1.8302  0.9289
10395TIP3    H252601   2.654   6.404   3.859 -1.5110 -1.3838 -0.0070
10396TIP3   OH252602   2.490   0.723  13.964  0.6829 -0.4662  0.2667
10396TIP3    H152603   2.465   0.776  14.040  0.6884 -0.9223  0.5910
10396TIP3    H252604   2.543   0.781  13.910  0.6524 -0.1294  0.5990
10397TIP3   OH252605   3.993   5.993   1.283  0.0782 -0.1392  0.1730
10397TIP3    H152606   4.063   5.987   1.218 -0.7672 -0.7221 -0.7090
10397TIP3    H252607   4.038   6.004   1.366  1.1820  0.7546 -0.5268
10398TIP3   OH252608   5.963   3.383   3.302 -0.4563 -0.0382  0.1979
10398TIP3    H152609   6.033   3.317   3.296 -0.4544 -0.0601  0.4614
10398TIP3    H252610   5.970   3.432   3.220 -0.9173 -0.8171 -0.3172
10399TIP3   OH252611   1.241   0.642   4.554  0.4429 -0.0616  0.0463
10399TIP3    H152612   1.312   0.678   4.500  0.7421 -0.1456  0.3872
10399TIP3    H252613   1.242   0.694   4.634  0.5464 -0.4982  0.3302
10400TIP3   OH252614   0.769   5.576  16.333 -0.5240  0.2060 -0.5452
10400TIP3    H152615   0.816   5.502  16.373 -1.7320 -0.0553  0.4252
10400TIP3    H252616   0.789   5.650  16.391 -1.1970  0.1206 -0.2010
10401TIP3   OH252617   4.861   0.581  16.870 -0.7766 -0.4469  0.4803
10401TIP3    H152618   4.776   0.617  16.844 -0.2070  0.3698 -0.2716
10401TIP3    H252619   4.872   0.609  16.961 -0.2510  1.4772 -0.1495
10402TIP3   OH252620   6.473   6.324  15.874  0.2751  0.6680  0.1670
10402TIP3    H152621   6.494   6.278  15.793 -0.7817 -0.2695  0.4037
10402TIP3    H252622   6.531   6.287  15.939 -0.3448 -0.1124  0.2844
10403TIP3   OH252623   1.426   3.620  11.939  0.0805 -0.1741  0.2052
10403TIP3    H152624   1.494   3.602  12.004  0.6222  2.0105  0.2812
10403TIP3    H252625   1.428   3.716  11.928 -2.2376 -0.1960 -0.5921
10404TIP3   OH252626   5.585   5.578  15.684  0.2438 -0.0402  0.0905
10404TIP3    H152627   5.531   5.504  15.654 -1.0974  1.3756 -1.0355
10404TIP3    H252628   5.651   5.588  15.617  1.8101 -1.6157  1.3479
10405TIP3   OH252629   6.436   5.698  14.459  0.6761 -0.2014  0.1063
10405TIP3    H152630   6.432   5.693  14.363  1.2516  0.4536  0.0485
10405TIP3    H252631   6.344   5.710  14.485  0.5562  0.0104 -0.3899
10406TIP3   OH252632   0.592   4.044   0.771  0.2293 -0.4923  0.3693
10406TIP3    H152633   0.640   4.020   0.850 -0.0719  0.3091  0.8018
10406TIP3    H252634   0.502   4.056   0.800  0.4654  1.6751  0.2813
10407TIP3   OH252635   6.703   1.391   5.506  0.1473  0.2049 -0.0349
10407TIP3    H152636   6.795   1.417   5.514  0.2362  0.1774 -0.9007
10407TIP3    H252637   6.673   1.379   5.596  1.0189  0.1201  0.2430
10408TIP3   OH252638   3.557   2.427   1.477  0.1088  0.4241 -0.2543
10408TIP3    H152639   3.577   2.357   1.415  0.7903 -1.1388  1.6601
10408TIP3    H252640   3.552   2.506   1.424  3.3684 -0.4177 -1.9572
10409TIP3   OH252641   6.335   1.322  15.406  0.3085 -0.1440 -0.1109
10409TIP3    H152642   6.348   1.375  15.485 -2.8667  0.2504  0.2056
10409TIP3    H252643   6.383   1.241  15.424 -0.3820 -0.0816  2.2569
10410TIP3   OH252644   0.088   4.386  15.676  0.4307  0.4294  0.8212
10410TIP3    H152645   0.129   4.313  15.721  1.9723  1.3345  0.9174
10410TIP3    H252646  -0.006   4.371  15.686  0.7359 -1.5796  0.7429
10411TIP3   OH252647   2.892   2.385   2.427  0.1191  0.4412  0.1227
10411TIP3    H152648   2.813   2.416   2.469 -0.1736 -0.0860 -0.0268
10411TIP3    H252649   2.861   2.336   2.351  0.5805  0.1561  0.1126
10412TIP3   OH252650   2.732   2.658  15.853 -0.1193  0.1544  0.0046
10412TIP3    H152651   2.706   2.743  15.887  1.7261  1.1213 -0.9369
10412TIP3    H252652   2.824   2.650  15.876 -0.4418 -1.8935  0.6661
10413TIP3   OH252653   1.254   0.201   2.663  0.5361  0.2597  0.2302
10413TIP3    H152654   1.168   0.242   2.663  0.1499 -0.5502 -0.0449
10413TIP3    H252655   1.294   0.230   2.580  0.6033  0.7823  0.4439
10414TIP3   OH252656   0.247   2.278  15.514 -0.2355  0.2135  0.0765
10414TIP3    H152657   0.239   2.353  15.456 -0.5180  0.4825  0.4547
10414TIP3    H252658   0.196   2.209  15.472 -0.0591  0.2684 -0.2251
10415TIP3   OH252659   5.362   4.051   0.050  0.7551  0.1094  0.8054
10415TIP3    H152660   5.268   4.040   0.060  0.9983 -0.1734  3.1028
10415TIP3    H252661   5.396   3.962   0.040  0.9030  0.0960  1.3855
10416TIP3   OH252662   0.814   3.503   4.538 -1.0942  0.0096 -0.4371
10416TIP3    H152663   0.784   3.426   4.587  0.7269  0.2161  1.0466
10416TIP3    H252664   0.810   3.574   4.601  3.3574 -0.1231  0.1516
10417TIP3   OH252665   2.906   2.559   1.064  0.0003  0.3227 -0.9151
10417TIP3    H152666   2.887   2.637   1.116 -0.4277 -0.8617  0.7407
10417TIP3    H252667   2.990   2.578   1.022  0.0480  1.5548 -0.3027
10418TIP3   OH252668   0.866   3.188  12.630 -0.0163 -0.1061  0.3300
10418TIP3    H152669   0.921   3.250  12.581  0.7556 -0.2590  1.0020
10418TIP3    H252670   0.916   3.106  12.629  1.2211  0.5667  3.5895
10419TIP3   OH252671   6.114   6.776   1.384  0.1590  0.4453 -0.0753
10419TIP3    H152672   6.173   6.811   1.451  0.0875  2.1819 -0.8955
10419TIP3    H252673   6.160   6.699   1.350  1.4190  1.0960  0.1185
10420TIP3   OH252674   2.424   6.058  16.797 -0.3244 -0.0107  0.5804
10420TIP3    H152675   2.510   6.085  16.830  0.1142 -1.1682  0.4168
10420TIP3    H252676   2.367   6.133  16.814  0.5554  0.4978  1.3517
10421TIP3   OH252677   5.939   3.461   2.624 -0.0846  0.0541 -0.1063
10421TIP3    H152678   5.887   3.405   2.681 -0.2130 -0.0026 -0.2789
10421TIP3    H252679   6.023   3.470   2.669  0.3637 -1.2488 -0.6505
10422TIP3   OH252680   1.822   5.439   6.233 -0.1130  0.1090 -0.0169
10422TIP3    H152681   1.754   5.488   6.186 -0.0494 -0.5235 -0.7676
10422TIP3    H252682   1.798   5.347   6.220  1.3009 -0.1410 -0.9006
10423TIP3   OH252683   2.665   3.058  14.808 -0.3277 -0.4332 -0.4302
10423TIP3    H152684   2.593   2.995  14.805 -0.8864  0.2781 -1.8252
10423TIP3    H252685   2.731   3.021  14.749  0.1098 -0.6546  0.1952
10424TIP3   OH252686   4.023   0.497   0.442 -0.0572 -0.6455  0.5579
10424TIP3    H152687   3.935   0.533   0.433  0.4288  0.5533  0.5077
10424TIP3    H252688   4.040   0.498   0.536  0.3904  0.3431  0.4752
10425TIP3   OH252689   3.375   4.335   5.500  0.4186 -0.3069  0.1360
10425TIP3    H152690   3.385   4.297   5.412 -0.3867  1.7241 -0.8613
10425TIP3    H252691   3.419   4.273   5.557  0.1711 -2.1496 -1.5876
10426TIP3   OH252692   5.758   4.748  13.212 -0.1897  0.0190 -0.4047
10426TIP3    H152693   5.700   4.808  13.165 -0.5925 -0.7923 -0.9459
10426TIP3    H252694   5.833   4.737  13.154 -0.4217 -0.5240 -0.6029
10427TIP3   OH252695   0.754   5.737   3.311 -0.2745  0.4289 -0.4211
10427TIP3    H152696   0.791   5.685   3.383 -2.0027 -0.0230  0.1493
10427TIP3    H252697   0.775   5.686   3.232  0.9565  0.5513 -0.1925
10428TIP3   OH252698   3.457   3.018   3.559 -0.6882  0.0830 -0.1462
10428TIP3    H152699   3.419   3.089   3.610  0.0859  0.5541 -0.2237
10428TIP3    H252700   3.381   2.973   3.520 -1.1944  0.6253  0.2136
10429TIP3   OH252701   6.466   1.541  10.270 -0.0192 -0.4138 -0.0945
10429TIP3    H152702   6.460   1.467  10.208 -1.0272 -0.1494 -0.3181
10429TIP3    H252703   6.500   1.502  10.350 -2.4922 -1.5181  0.4377
10430TIP3   OH252704   4.357   2.685   3.026  1.0676 -0.3737  0.0540
10430TIP3    H152705   4.351   2.781   3.033  1.2685 -0.5058  2.4856
10430TIP3    H252706   4.402   2.658   3.106  0.1154 -2.6030 -0.1285
10431TIP3   OH252707   1.019   4.982   4.596  0.2321 -0.9456  0.7323
10431TIP3    H152708   1.105   4.953   4.564  0.4299  1.5619 -1.0846
10431TIP3    H252709   1.037   5.011   4.686  2.0280  2.4767 -0.6115
10432TIP3   OH252710   2.988   3.572  11.666 -0.3674  0.2516 -0.2621
10432TIP3    H152711   2.993   3.666  11.686 -1.9984  0.1634  0.6437
10432TIP3    H252712   3.072   3.537  11.694  0.3178  1.4736 -0.7613
10433TIP3   OH252713   1.033   5.336   2.392 -0.0675  0.1223  0.1939
10433TIP3    H152714   1.101   5.291   2.343 -0.1808  0.8929 -0.6876
10433TIP3    H252715   1.079   5.375   2.467  0.3295  0.0252  0.0031
10434TIP3   OH252716   4.825   0.562  13.799  0.2594 -0.0475 -0.0507
10434TIP3    H152717   4.796   0.485  13.751 -0.8312 -0.6074  1.4661
10434TIP3    H252718   4.746   0.615  13.810  0.2916 -0.3637  1.9084
10435TIP3   OH252719   2.082   3.716   5.141  0.1934  0.4039 -0.2385
10435TIP3    H152720   2.031   3.656   5.197  1.1050  0.6575  0.8830
10435TIP3    H252721   2.153   3.746   5.197  0.4029  1.6564 -1.1602
10436TIP3   OH252722   3.831   3.947   3.871  0.1556  0.1963  0.3586
10436TIP3    H152723   3.740   3.940   3.842  0.5828  0.0509 -0.9845
10436TIP3    H252724   3.870   4.012   3.813  1.6993 -2.0069 -1.1514
10437TIP3   OH252725   0.700   6.390  13.602 -0.1309  0.2533 -0.1475
10437TIP3    H152726   0.663   6.478  13.605 -1.8994 -0.2932 -3.5212
10437TIP3    H252727   0.654   6.343  13.672 -1.6291  1.1315 -0.5179
10438TIP3   OH252728   2.610   5.919  14.051 -0.1200  0.5020  0.4367
10438TIP3    H152729   2.701   5.943  14.033  0.0071  1.6005  2.5041
10438TIP3    H252730   2.558   5.992  14.017 -0.0927  0.8721  1.1788
10439TIP3   OH252731   5.353   6.511   4.856 -0.1634  0.5820  0.0191
10439TIP3    H152732   5.262   6.481   4.852 -0.2522  0.7259  0.7491
10439TIP3    H252733   5.386   6.475   4.938  0.6927 -0.1519 -0.6441
10440TIP3   OH252734   6.672   5.111  13.106 -0.1343 -0.0337  0.5514
10440TIP3    H152735   6.697   5.168  13.179  1.2718 -0.2860  0.2659
10440TIP3    H252736   6.709   5.025  13.129 -0.2243 -0.2670 -0.1607
10441TIP3   OH252737   5.463   4.772   2.161  0.4852 -0.5803  0.2285
10441TIP3    H152738   5.433   4.855   2.199 -0.5967  0.0773 -2.0033
10441TIP3    H252739   5.532   4.797   2.100 -0.9400 -1.1082 -1.6602
10442TIP3   OH252740   4.823   3.755  11.019 -0.5220 -0.3150 -0.3746
10442TIP3    H152741   4.751   3.700  11.050 -0.6643  0.0312 -0.0880
10442TIP3    H252742   4.900   3.721  11.064 -1.0479  1.5071  1.9889
10443TIP3   OH252743   5.261   2.115   5.606  0.4724  0.5238 -0.0572
10443TIP3    H152744   5.231   2.153   5.688  0.7593 -1.6114  1.0838
10443TIP3    H252745   5.195   2.141   5.541  0.4118  2.4798  0.7757
10444TIP3   OH252746   2.592   0.290   3.886  0.3269  0.0608 -0.0001
10444TIP3    H152747   2.642   0.322   3.812 -0.7875  1.4265 -0.1871
10444TIP3    H252748   2.640   0.321   3.963  0.5132  0.1847 -0.1677
10445TIP3   OH252749   6.658   3.958  16.506 -1.2154 -0.7988 -0.1698
10445TIP3    H152750   6.719   4.028  16.479 -0.4427 -1.5922 -0.5291
10445TIP3    H252751   6.598   3.950  16.432 -0.5321 -1.3645 -0.6760
10446TIP3   OH252752   6.239   1.188   2.192  0.2225  0.1185  0.4333
10446TIP3    H152753   6.301   1.187   2.264  0.4509  1.3317  0.2612
10446TIP3    H252754   6.268   1.117   2.134  0.4465 -0.4042  1.1820
10447TIP3   OH252755   1.753   3.431  13.549 -0.3564  0.4239  0.2240
10447TIP3    H152756   1.773   3.482  13.628  0.9921 -0.7636  0.6675
10447TIP3    H252757   1.658   3.429  13.546 -0.4282  1.2958  1.2894
10448TIP3   OH252758   1.267   1.644  13.117  0.2478  0.0788 -0.3572
10448TIP3    H152759   1.333   1.600  13.171  0.6219  0.3579 -0.5833
10448TIP3    H252760   1.256   1.587  13.041 -1.1903 -0.9476  0.5895
10449TIP3   OH252761   5.388   2.410   6.343 -0.0540 -0.3360 -0.2598
10449TIP3    H152762   5.298   2.384   6.363 -0.1922  0.3942  0.1045
10449TIP3    H252763   5.442   2.366   6.408 -0.3789  1.0596  0.9808
10450TIP3   OH252764   4.082   6.350   1.087  0.1403 -0.6751  0.1012
10450TIP3    H152765   4.143   6.387   1.152  0.8145  0.4146 -1.1249
10450TIP3    H252766   4.071   6.420   1.023 -1.5097 -1.2923 -0.3010
10451TIP3   OH252767   3.483   2.625  16.299 -0.0205 -0.1590  0.0532
10451TIP3    H152768   3.569   2.632  16.342  0.0281 -0.7811  0.0612
10451TIP3    H252769   3.426   2.587  16.366 -0.2554  0.0564 -0.0229
10452TIP3   OH252770   5.554   6.043  15.250  0.5991  0.2321  0.5624
10452TIP3    H152771   5.533   5.956  15.284  0.1334  0.1443  0.0540
10452TIP3    H252772   5.486   6.100  15.286  0.5881  0.2866  0.4570
10453TIP3   OH252773   0.977   2.630  15.037 -0.0738 -0.1444  0.5952
10453TIP3    H152774   1.054   2.630  14.981  0.1437 -1.3691  0.8739
10453TIP3    H252775   0.961   2.537  15.056 -1.1844  0.1442  1.1206
10454TIP3   OH252776   3.975   3.882  13.728 -0.4307 -0.2072 -0.5961
10454TIP3    H152777   3.934   3.969  13.728  0.0464  0.0217 -0.7001
10454TIP3    H252778   3.952   3.845  13.642 -0.5108 -0.1215 -0.6116
10455TIP3   OH252779   5.114   2.131  13.051 -1.1379  0.1852 -0.5796
10455TIP3    H152780   5.164   2.086  12.982 -2.7037 -1.4588 -0.6599
10455TIP3    H252781   5.024   2.103  13.038 -1.7794  1.4876  0.8791
10456TIP3   OH252782   1.719   1.066  15.129 -0.7134  0.1297  0.4030
10456TIP3    H152783   1.805   1.059  15.088 -0.5817  0.5763  0.6006
10456TIP3    H252784   1.661   1.016  15.072 -0.5835  0.9866 -0.4837
10457TIP3   OH252785   6.480   2.229  14.739 -0.1113 -0.3529  1.0201
10457TIP3    H152786   6.493   2.312  14.786 -3.0229  0.1940  0.9647
10457TIP3    H252787   6.443   2.170  14.805 -2.2866 -0.2064 -0.0254
10458TIP3   OH252788   3.023   0.396   5.473 -0.6668  0.2635  0.4191
10458TIP3    H152789   3.032   0.305   5.500 -0.6055 -0.1343 -0.9225
10458TIP3    H252790   3.112   0.431   5.473 -0.3958 -0.3574 -1.3609
10459TIP3   OH252791   2.081   3.919   3.438  0.3267  0.0319  0.4424
10459TIP3    H152792   2.128   3.954   3.362 -0.1321  1.9582  1.0067
10459TIP3    H252793   1.989   3.919   3.410  0.3808 -1.3476  0.2312
10460TIP3   OH252794   4.197   1.753  16.697  0.2853 -0.1336 -0.6233
10460TIP3    H152795   4.150   1.831  16.669  1.3224  0.8053  0.2006
10460TIP3    H252796   4.141   1.680  16.670 -1.9781  0.9695  0.9514
10461TIP3   OH252797   6.515   2.510   4.339 -0.0282 -0.3123  0.3597
10461TIP3    H152798   6.429   2.544   4.316 -0.0664  0.6713  1.8417
10461TIP3    H252799   6.509   2.493   4.433  1.1645 -0.9390  0.3307
10462TIP3   OH252800   2.713   1.532   4.548  0.5209 -0.1602  0.3477
10462TIP3    H152801   2.667   1.455   4.581  0.3642  0.3219  1.2729
10462TIP3    H252802   2.747   1.575   4.626  1.2316  0.3238 -0.2136
10463TIP3   OH252803   4.319   2.670   3.733  0.3253 -0.3018  0.4307
10463TIP3    H152804   4.351   2.714   3.812  0.0416 -1.4603  1.1965
10463TIP3    H252805   4.371   2.590   3.728  1.5100  0.5463 -1.4882
10464TIP3   OH252806   1.797   4.428   4.638 -0.5720  0.2999 -0.4217
10464TIP3    H152807   1.781   4.520   4.661 -1.8333  0.1705 -0.7391
10464TIP3    H252808   1.731   4.380   4.688 -2.2841 -0.1207 -3.0238
10465TIP3   OH252809   3.798   4.150   4.723  0.1017  0.0755  0.2674
10465TIP3    H152810   3.826   4.204   4.797  1.7962 -0.0911 -0.2251
10465TIP3    H252811   3.877   4.103   4.697 -0.6336 -0.3575 -1.2368
10466TIP3   OH252812   5.097   4.491  13.948  0.1651  0.2935 -0.3117
10466TIP3    H152813   5.044   4.422  13.989 -0.9904 -0.6634 -3.3070
10466TIP3    H252814   5.092   4.564  14.009 -1.5342 -1.0684  1.2486
10467TIP3   OH252815   4.082   5.457   1.610  0.1035 -0.1920 -0.2390
10467TIP3    H152816   4.125   5.534   1.574  2.3487 -1.7032 -0.9295
10467TIP3    H252817   4.028   5.424   1.539  3.1282 -2.1324 -1.7539
10468TIP3   OH252818   5.326   1.849  15.670 -0.3635  0.3551 -0.2732
10468TIP3    H152819   5.396   1.914  15.661  0.2760 -0.4378 -1.1091
10468TIP3    H252820   5.293   1.836  15.581 -1.6650  0.8128  0.1281
10469TIP3   OH252821   0.030   3.066   1.527  0.2421 -0.2964  0.8751
10469TIP3    H152822   0.113   3.064   1.576  0.8378  1.2594 -0.0212
10469TIP3    H252823   0.001   3.157   1.533 -0.3387 -0.3755 -0.5597
10470TIP3   OH252824   4.830   6.653   0.380  0.9840  0.2418  0.4986
10470TIP3    H152825   4.799   6.591   0.446  1.2965  1.1224  1.4676
10470TIP3    H252826   4.759   6.655   0.315 -0.4655  1.2703  2.0598
10471TIP3   OH252827   3.846   3.937  12.644  0.2748  0.6749 -0.5822
10471TIP3    H152828   3.914   3.999  12.619 -0.3175  0.9367 -1.5626
10471TIP3    H252829   3.843   3.874  12.571  1.8875 -1.3756  1.0546
10472TIP3   OH252830   0.606   1.535  15.955  0.3675 -0.0020  0.4986
10472TIP3    H152831   0.572   1.479  16.025  2.2332 -0.2255  1.2592
10472TIP3    H252832   0.680   1.582  15.995 -0.2221  1.8877 -0.5549
10473TIP3   OH252833   2.121   3.900  11.405  0.4970 -0.4826  0.1162
10473TIP3    H152834   2.087   3.823  11.360 -0.5857  0.2200 -0.2760
10473TIP3    H252835   2.162   3.865  11.484 -2.5129 -1.2190  1.4215
10474TIP3   OH252836   3.492   3.672  10.613 -0.1325 -0.0681  0.1314
10474TIP3    H152837   3.477   3.636  10.526  0.6342  0.7674 -0.3524
10474TIP3    H252838   3.487   3.597  10.672 -4.9060 -0.1098 -0.1063
10475TIP3   OH252839   4.309   1.202  14.164  0.0318  0.6789 -0.6980
10475TIP3    H152840   4.364   1.230  14.237  0.2229  1.1858 -1.0292
10475TIP3    H252841   4.252   1.135  14.200  0.3175  0.7293 -0.1540
10476TIP3   OH252842   5.344   5.367   3.948 -0.0577  0.0197  0.2098
10476TIP3    H152843   5.419   5.396   4.000  0.8415 -0.1361 -0.9936
10476TIP3    H252844   5.328   5.438   3.887 -0.7310 -0.0621  0.2866
10477TIP3   OH252845   0.808   5.190   2.653  0.2732 -0.8282 -0.1755
10477TIP3    H152846   0.903   5.180   2.644  0.3243  0.0483 -0.6193
10477TIP3    H252847   0.796   5.255   2.722 -0.0123 -1.3062  0.2276
10478TIP3   OH252848   1.404   0.403   2.796  0.2398  0.2875  0.2718
10478TIP3    H152849   1.368   0.336   2.738 -0.0619  0.9756 -0.3451
10478TIP3    H252850   1.327   0.443   2.837  0.4953 -0.9050  1.9630
10479TIP3   OH252851   2.148   0.153   3.527  0.1520  0.0269 -0.0046
10479TIP3    H152852   2.185   0.071   3.559  1.2329 -0.0939 -1.4934
10479TIP3    H252853   2.096   0.186   3.600  2.7391 -0.0952  1.9847
10480TIP3   OH252854   6.355   3.105   3.075  0.7788  0.2047  0.3966
10480TIP3    H152855   6.403   3.072   3.151  0.3571 -0.3121  0.4373
10480TIP3    H252856   6.406   3.074   3.000  0.1716 -0.8737  0.4251
10481TIP3   OH252857   1.444   4.233  14.881 -0.4856 -0.3938  0.1143
10481TIP3    H152858   1.459   4.247  14.788  0.1595 -0.3899  0.2137
10481TIP3    H252859   1.350   4.215  14.889 -0.8691  1.2907 -0.3331
10482TIP3   OH252860   4.677   4.895  16.322 -0.6618 -0.3127 -0.1413
10482TIP3    H152861   4.697   4.807  16.289 -0.3399 -0.1105 -0.5010
10482TIP3    H252862   4.642   4.941  16.246  1.6521  0.6677 -0.6733
10483TIP3   OH252863   2.694   5.781  11.487 -0.3688  0.3450 -0.1817
10483TIP3    H152864   2.703   5.869  11.450 -0.4116  1.0630  1.4424
10483TIP3    H252865   2.734   5.723  11.422 -1.0953  1.4625 -1.6610
10484TIP3   OH252866   4.534   5.666  12.085 -0.1683 -0.1661  0.3147
10484TIP3    H152867   4.595   5.733  12.055  0.0228 -0.2526  0.5051
10484TIP3    H252868   4.569   5.584  12.050 -1.3026  0.0118 -1.2944
10485TIP3   OH252869   4.607   2.180   4.466 -0.3246 -0.0668 -0.5787
10485TIP3    H152870   4.532   2.126   4.441 -1.1680  0.6856  0.3033
10485TIP3    H252871   4.596   2.195   4.560  0.2554  1.0976 -0.6858
10486TIP3   OH252872   2.897   6.581  15.864  0.2983  0.0960  0.2977
10486TIP3    H152873   2.905   6.488  15.886 -0.7681  0.2300  1.2553
10486TIP3    H252874   2.874   6.581  15.771  0.6317 -0.5829  0.2057
10487TIP3   OH252875   1.809   0.101   6.070  0.2791 -0.2762 -0.2627
10487TIP3    H152876   1.882   0.143   6.116  0.6752  1.9931 -2.8763
10487TIP3    H252877   1.737   0.164   6.077 -1.1382 -2.0010  1.2945
10488TIP3   OH252878   1.691   3.154   1.959 -0.6110  0.5234  0.1320
10488TIP3    H152879   1.610   3.117   1.924 -0.2285  0.5149 -0.7477
10488TIP3    H252880   1.708   3.104   2.039  0.0480 -1.3923 -1.1786
10489TIP3   OH252881   1.065   1.575  12.124  0.6367  0.1195 -0.1943
10489TIP3    H152882   1.156   1.564  12.149  0.1967 -1.3298  0.8317
10489TIP3    H252883   1.049   1.504  12.062  0.0395  0.0130  0.0829
10490TIP3   OH252884   5.442   3.826   3.282  0.0977 -0.2507 -0.2415
10490TIP3    H152885   5.532   3.833   3.250  0.4039 -1.5495  0.2779
10490TIP3    H252886   5.444   3.752   3.343 -1.6808 -1.3985 -1.5086
10491TIP3   OH252887   4.711   2.429  17.208  0.2892 -0.6094 -0.3243
10491TIP3    H152888   4.740   2.490  17.276  0.6367  0.4342 -1.3809
10491TIP3    H252889   4.791   2.404  17.162  0.1991 -2.2062  0.3434
10492TIP3   OH252890   3.917   0.541   3.075 -0.4424 -0.1019 -0.5346
10492TIP3    H152891   4.003   0.582   3.069 -1.0145  1.3379  0.7652
10492TIP3    H252892   3.930   0.468   3.137 -0.0340 -0.2433 -0.7848
10493TIP3   OH252893   3.651   0.360   3.982 -0.5299  0.0217  0.7868
10493TIP3    H152894   3.580   0.299   4.000 -1.9958  1.8606  1.4431
10493TIP3    H252895   3.608   0.446   3.976  1.2418  0.8032 -1.7640
10494TIP3   OH252896   3.669   1.715  14.646 -0.5139  0.1439  0.0416
10494TIP3    H152897   3.656   1.802  14.683 -0.7288  0.9578 -1.9131
10494TIP3    H252898   3.752   1.685  14.683 -0.8295  0.8360  1.3403
10495TIP3   OH252899   3.559   5.541  10.730 -0.0461  0.2748 -1.1114
10495TIP3    H152900   3.576   5.469  10.792 -1.0709 -0.7128 -1.9618
10495TIP3    H252901   3.530   5.497  10.650 -3.0326  1.7270 -0.8784
10496TIP3   OH252902   4.394   6.556   5.822  0.1595  0.3953  0.3642
10496TIP3    H152903   4.310   6.516   5.800  0.4988  0.1061 -0.4273
10496TIP3    H252904   4.436   6.573   5.737  0.7904  0.7684  0.7451
10497TIP3   OH252905   5.839   2.347  14.864 -0.1280 -0.4661 -0.5224
10497TIP3    H152906   5.856   2.374  14.954 -1.9272 -1.0596  0.0137
10497TIP3    H252907   5.913   2.382  14.814  1.8301 -1.6159  1.4442
10498TIP3   OH252908   2.478   2.599   3.490 -0.5813 -0.2091  0.1714
10498TIP3    H152909   2.399   2.590   3.543 -0.1304  1.1820  1.1021
10498TIP3    H252910   2.536   2.656   3.542  0.1358  0.6218 -1.5007
10499TIP3   OH252911   2.790   1.243   0.496 -0.0475 -0.0108 -0.5217
10499TIP3    H152912   2.783   1.284   0.409 -2.2618 -0.5399 -0.6251
10499TIP3    H252913   2.760   1.311   0.556  0.2337 -0.0968 -0.2840
10500TIP3   OH252914   5.136   4.117  15.135  0.0068  0.6737 -0.1375
10500TIP3    H152915   5.065   4.163  15.090  0.0885  0.4147 -0.5308
10500TIP3    H252916   5.119   4.024  15.118  0.7040  0.6361 -0.6176
10501TIP3   OH252917   3.368   0.464  13.363 -0.0210 -0.0196  0.5387
10501TIP3    H152918   3.314   0.452  13.441 -1.6244 -0.3382 -0.5982
10501TIP3    H252919   3.420   0.384  13.358 -0.1520 -0.1438  1.0928
10502TIP3   OH252920   4.427   3.146  14.707 -0.2476  0.0288 -0.1501
10502TIP3    H152921   4.386   3.230  14.686  2.1051  1.1840 -0.3565
10502TIP3    H252922   4.461   3.114  14.623 -0.6523 -0.8611  0.0193
10503TIP3   OH252923   0.220   1.452  17.150 -0.5640  0.0877 -0.4366
10503TIP3    H152924   0.148   1.454  17.213  0.2259  1.2764  0.4348
10503TIP3    H252925   0.299   1.464  17.202  0.3072 -1.6002 -1.3461
10504TIP3   OH252926   6.397   1.925   0.428 -0.2849 -0.2147  0.0928
10504TIP3    H152927   6.464   1.980   0.385 -0.1662 -0.5778 -0.1872
10504TIP3    H252928   6.382   1.854   0.366 -0.6055 -0.3770  0.3601
10505TIP3   OH252929   0.355   0.430  12.284  0.0551  0.3621 -0.2728
10505TIP3    H152930   0.437   0.470  12.315  0.1548  0.0115 -0.0722
10505TIP3    H252931   0.366   0.424  12.189  1.2099 -1.7301 -0.0400
10506TIP3   OH252932   1.050   2.942  12.593 -0.4572  0.1489  0.2071
10506TIP3    H152933   1.092   2.910  12.673  0.0716  1.1288  0.3312
10506TIP3    H252934   1.094   2.895  12.522 -0.0885  0.1702  0.4200
10507TIP3   OH252935   4.742   2.988   4.481  0.0068  0.3058 -0.1786
10507TIP3    H152936   4.728   2.924   4.552  0.5658  0.7924  0.3707
10507TIP3    H252937   4.666   3.046   4.486  1.0949  1.6278  1.4024
10508TIP3   OH252938   2.298   3.870  14.174  0.7366  0.7132  0.2344
10508TIP3    H152939   2.240   3.831  14.240  0.8470 -0.0113 -0.0921
10508TIP3    H252940   2.300   3.963  14.196 -0.4410  0.7215  0.3220
10509TIP3   OH252941   1.196   0.913  17.135 -0.2101  0.2116  0.2238
10509TIP3    H152942   1.145   0.838  17.103 -2.5961  1.6819  0.4668
10509TIP3    H252943   1.270   0.920  17.075 -1.0431 -1.1287 -0.9715
10510TIP3   OH252944   2.752   2.166   0.912  0.0534 -0.0407 -0.1920
10510TIP3    H152945   2.817   2.217   0.961  2.7595  0.0157 -3.6146
10510TIP3    H252946   2.795   2.081   0.897 -0.6225 -0.0262 -2.4643
10511TIP3   OH252947   6.253   6.551  16.740  0.0411 -0.8455  0.3134
10511TIP3    H152948   6.313   6.623  16.758 -0.7278 -0.2589  0.5639
10511TIP3    H252949   6.187   6.558  16.809 -1.1880 -0.5234 -0.8770
10512TIP3   OH252950   3.713   2.197  15.708 -0.7679 -0.1770  0.2575
10512TIP3    H152951   3.751   2.221  15.624  2.5623 -1.7704  1.2160
10512TIP3    H252952   3.712   2.101  15.707  1.6239 -0.3144  2.9221
10513TIP3   OH252953   6.303   5.862   4.336 -0.5169 -0.2302 -0.1871
10513TIP3    H152954   6.380   5.810   4.360 -0.5462 -0.4896 -0.6684
10513TIP3    H252955   6.233   5.798   4.326 -0.0763 -0.3209 -2.8288
10514TIP3   OH252956   1.245   1.905   3.545  0.4830 -0.2215 -0.1466
10514TIP3    H152957   1.202   1.986   3.574  0.5964 -0.1438 -0.1960
10514TIP3    H252958   1.185   1.836   3.572 -0.1724 -0.0521 -1.1448
10515TIP3   OH252959   4.619   1.569   4.337 -0.4370  0.5953  0.0105
10515TIP3    H152960   4.626   1.550   4.243 -0.1753 -0.5308  0.2499
10515TIP3    H252961   4.623   1.483   4.379 -2.5345  0.9282  0.9493
10516TIP3   OH252962   4.152   5.949  15.324  0.6877  0.0499 -0.0763
10516TIP3    H152963   4.196   6.029  15.352  0.2707 -0.8987  3.5838
10516TIP3    H252964   4.073   5.945  15.379  0.1370 -2.2914 -0.9827
10517TIP3   OH252965   6.239   6.006   2.303 -0.0862 -0.5386 -0.0818
10517TIP3    H152966   6.233   6.036   2.394  0.5740 -2.1105  0.4999
10517TIP3    H252967   6.217   6.082   2.251  0.9610  0.7952  1.3723
10518TIP3   OH252968   1.446   1.931   4.914 -0.6350  0.0612  0.3438
10518TIP3    H152969   1.532   1.936   4.954 -0.2560 -3.9596  0.2695
10518TIP3    H252970   1.461   1.945   4.821 -0.3306  1.0514  0.5382
10519TIP3   OH252971   1.300   3.790   3.348 -0.4414 -0.0446 -0.5387
10519TIP3    H152972   1.284   3.770   3.440  0.0079 -0.8500 -0.6363
10519TIP3    H252973   1.272   3.712   3.300  0.3717 -0.0698 -0.9909
10520TIP3   OH252974   3.648   3.828   3.127 -0.2463 -0.9631  0.0388
10520TIP3    H152975   3.701   3.801   3.202  1.3480  1.0597 -0.3045
10520TIP3    H252976   3.704   3.814   3.051  0.3518  2.3176 -0.2161
10521TIP3   OH252977   3.777   3.352  14.506  0.1874  0.7631 -0.0514
10521TIP3    H152978   3.706   3.358  14.442 -0.4731 -1.6716  0.4017
10521TIP3    H252979   3.758   3.420  14.570 -0.9851  1.0181 -0.6576
10522TIP3   OH252980   3.209   1.242   3.031  0.5184 -0.2407  0.3461
10522TIP3    H152981   3.181   1.276   2.946  0.1981  0.6372  0.7928
10522TIP3    H252982   3.140   1.179   3.055  0.9085 -0.9245 -0.3023
10523TIP3   OH252983   4.020   3.254  14.457  0.1099 -1.1508 -0.5612
10523TIP3    H152984   4.062   3.300  14.385  0.2368 -1.2061 -0.5227
10523TIP3    H252985   3.933   3.293  14.463  1.1888  1.0873  1.2968
10524TIP3   OH252986   0.941   3.099  13.616  0.1716 -0.3358  0.0440
10524TIP3    H152987   1.028   3.096  13.655 -0.2288 -0.5670  0.9188
10524TIP3    H252988   0.892   3.160  13.670 -0.2557 -0.3280 -0.3495
10525TIP3   OH252989   5.570   3.694   5.950  0.2347  0.2119 -0.0830
10525TIP3    H152990   5.569   3.730   5.861 -0.0108  3.2667  1.1014
10525TIP3    H252991   5.484   3.715   5.985  0.0509 -1.6614  0.6476
10526TIP3   OH252992   6.214   4.425   3.702  0.1687 -0.2721 -0.1873
10526TIP3    H152993   6.211   4.370   3.624  1.6417 -0.6617  0.0237
10526TIP3    H252994   6.178   4.510   3.673  0.8945 -0.3458 -1.3284
10527TIP3   OH252995   1.224   1.045  16.600  0.2030 -0.0354  0.8381
10527TIP3    H152996   1.189   1.040  16.689 -0.3751  0.6172  0.6557
10527TIP3    H252997   1.247   0.955  16.578 -4.1031 -1.0438 -0.1023
10528TIP3   OH252998   6.037   3.967   0.792  1.0169  0.0525 -0.2678
10528TIP3    H152999   6.089   3.949   0.870  2.0230 -0.8976 -1.1401
10528TIP3    H253000   6.078   3.915   0.723 -0.4112  0.1627 -1.2313
10529TIP3   OH253001   4.724   4.607   6.224 -0.7582  0.7728 -0.1991
10529TIP3    H153002   4.695   4.568   6.141  1.8362 -0.6953 -0.4833
10529TIP3    H253003   4.734   4.533   6.283  0.6331  1.4301  0.4124
10530TIP3   OH253004   5.536   6.635   1.757 -0.6978 -0.4154  0.1400
10530TIP3    H153005   5.475   6.568   1.726  0.1626 -0.3196 -1.7972
10530TIP3    H253006   5.489   6.718   1.744 -0.6522 -0.4340 -0.1509
10531TIP3   OH253007   5.585   2.165   4.056  0.1539 -0.2265  0.5054
10531TIP3    H153008   5.641   2.236   4.089 -0.3942  1.0541 -1.2458
10531TIP3    H253009   5.554   2.121   4.135 -0.9263  2.6074  1.7572
10532TIP3   OH253010   4.301   1.044   5.430  0.1649  0.4006 -0.2084
10532TIP3    H153011   4.301   0.969   5.490  0.7223  0.5941  0.0382
10532TIP3    H253012   4.234   1.102   5.464  0.5723  0.5739  0.3141
10533TIP3   OH253013   2.158   4.368  14.219  0.1760  0.1306 -0.4777
10533TIP3    H153014   2.140   4.462  14.212 -1.5647 -0.1578 -0.0386
10533TIP3    H253015   2.246   4.364  14.258  0.6043  1.5650 -1.2222
10534TIP3   OH253016   5.497   2.498   5.070 -0.3776  0.0111 -0.7671
10534TIP3    H153017   5.490   2.431   5.001 -0.6441  1.2898 -2.0113
10534TIP3    H253018   5.408   2.531   5.081 -0.1245  0.6803 -0.6973
10535TIP3   OH253019   1.326   4.491  14.604 -1.0322 -0.0737  0.1378
10535TIP3    H153020   1.376   4.572  14.616  0.5010 -0.8866 -0.6494
10535TIP3    H253021   1.391   4.421  14.609 -2.6169 -1.4365  2.8714
10536TIP3   OH253022   2.790   5.854  15.635  0.1642  0.5153  0.5542
10536TIP3    H153023   2.732   5.795  15.587 -0.7650  1.0971  0.9654
10536TIP3    H253024   2.859   5.796  15.670 -1.5307 -0.5709  2.1887
10537TIP3   OH253025   6.604   0.056  11.348 -0.9587  0.2538 -0.3592
10537TIP3    H153026   6.663   0.076  11.421  0.2965 -0.3271 -1.2117
10537TIP3    H253027   6.581  -0.037  11.361  0.5986 -0.3251 -1.6309
10538TIP3   OH253028   6.696   2.055  13.071  0.3513 -0.3634  0.2228
10538TIP3    H153029   6.787   2.024  13.065  0.2486 -0.5514 -0.4366
10538TIP3    H253030   6.644   1.975  13.073  0.2400 -0.2592  1.2604
10539TIP3   OH253031   3.413   3.447   4.395  0.0759  1.1367 -0.2227
10539TIP3    H153032   3.488   3.506   4.387 -1.0942  2.6203 -0.4498
10539TIP3    H253033   3.393   3.447   4.489 -0.5755  1.9437 -0.3559
10540TIP3   OH253034   3.734   6.086   5.021 -0.2325  0.4130 -0.3080
10540TIP3    H153035   3.781   6.054   5.098  0.8036  0.9522 -0.7091
10540TIP3    H253036   3.796   6.075   4.949 -0.7221  1.1462 -0.8464
10541TIP3   OH253037   1.130   5.996  15.874  0.6268  0.3593  0.1945
10541TIP3    H153038   1.109   5.981  15.966 -0.2177  2.7057  0.4064
10541TIP3    H253039   1.224   6.013  15.872  0.4533  1.3689  0.7514
10542TIP3   OH253040   3.176   5.358   5.303  0.2698 -0.0987  0.1284
10542TIP3    H153041   3.135   5.294   5.245 -2.6518  0.5507  1.3752
10542TIP3    H253042   3.215   5.306   5.373  1.6522 -0.7309 -1.0830
10543TIP3   OH253043   0.752   5.651  12.083  0.5857  0.0737  0.2216
10543TIP3    H153044   0.791   5.738  12.087 -0.3251  0.4696  0.5556
10543TIP3    H253045   0.827   5.592  12.076  1.2485  0.8146  0.9738
10544TIP3   OH253046   0.260   6.329   0.345 -0.4569  0.0954 -0.1880
10544TIP3    H153047   0.181   6.279   0.323  0.4749 -0.8260 -1.5052
10544TIP3    H253048   0.227   6.412   0.379 -2.0175 -0.8901  0.7762
10545TIP3   OH253049   2.628   1.712   5.769 -0.9857 -0.1510  0.3655
10545TIP3    H153050   2.619   1.624   5.804 -0.3811 -1.3318 -2.3179
10545TIP3    H253051   2.689   1.703   5.696  1.1633  2.9679  1.6745
10546TIP3   OH253052   0.321   4.196   1.324 -0.4281 -0.2867  0.0706
10546TIP3    H153053   0.336   4.107   1.291 -0.5008 -0.1682 -0.2775
10546TIP3    H253054   0.409   4.228   1.345 -0.2823  0.0051 -0.9485
10547TIP3   OH253055   0.165   6.203  15.733 -0.3541 -0.3726  0.4637
10547TIP3    H153056   0.184   6.115  15.699  1.5927  0.8572 -1.7958
10547TIP3    H253057   0.247   6.231  15.774 -0.9352  0.4338  1.0938
10548TIP3   OH253058   2.785   6.162  14.039  0.2752 -0.4884 -0.1587
10548TIP3    H153059   2.839   6.087  14.063 -0.3795 -0.3874  1.6671
10548TIP3    H253060   2.781   6.158  13.943 -0.8881 -3.5776 -0.0385
10549TIP3   OH253061   6.511   2.353  13.219 -0.5621 -0.8228  0.2825
10549TIP3    H153062   6.491   2.443  13.244  0.7797 -0.8005  1.3265
10549TIP3    H253063   6.584   2.328  13.276  2.1498 -1.0165 -3.1106
10550TIP3   OH253064   5.492   5.859   3.497  0.0823 -0.1354 -0.4848
10550TIP3    H153065   5.550   5.806   3.552 -0.8071 -0.1029  0.5021
10550TIP3    H253066   5.478   5.807   3.418  1.2502 -0.2507 -0.6242
10551TIP3   OH253067   5.824   4.276  15.128  0.4315 -0.1694 -0.3585
10551TIP3    H153068   5.846   4.294  15.036 -2.4635  1.2446 -0.8389
10551TIP3    H253069   5.906   4.244  15.166  2.1652  0.9124 -2.9830
10552TIP3   OH253070   0.546   1.221   5.731  0.5030 -0.0884  0.3814
10552TIP3    H153071   0.520   1.271   5.808  1.2770  1.0901 -0.1120
10552TIP3    H253072   0.606   1.154   5.765  1.9155  1.2798  0.6227
10553TIP3   OH253073   2.536   4.664  14.275 -0.0736  0.1338 -0.0282
10553TIP3    H153074   2.490   4.665  14.192 -1.7019  1.3996  0.8526
10553TIP3    H253075   2.569   4.753  14.285  0.1634 -0.0264  0.6620
10554TIP3   OH253076   6.348   4.964   3.368  0.1056 -0.1117  0.2090
10554TIP3    H153077   6.394   5.021   3.431 -0.1181 -1.5314  1.6781
10554TIP3    H253078   6.256   4.973   3.391 -0.0234 -0.2655 -0.2449
10555TIP3   OH253079   3.707   2.148   0.652 -0.0084  0.9512  0.3144
10555TIP3    H153080   3.625   2.124   0.608 -0.0964 -1.0884  1.5054
10555TIP3    H253081   3.679   2.202   0.726 -0.4740 -1.0033  1.6218
10556TIP3   OH253082   4.940   4.064   5.567  0.0252 -0.2675  0.3864
10556TIP3    H153083   4.847   4.048   5.585  0.1005 -0.3213  0.7307
10556TIP3    H253084   4.983   3.981   5.588  0.1628 -0.2119  0.3200
10557TIP3   OH253085   2.176   6.010  10.517 -0.7727 -0.2570  0.2181
10557TIP3    H153086   2.271   6.021  10.518 -1.0220  2.7516 -1.2362
10557TIP3    H253087   2.162   5.925  10.477  1.2852  0.1131 -1.3964
10558TIP3   OH253088   4.586   1.406  13.551  0.3194  0.5313 -0.0607
10558TIP3    H153089   4.614   1.497  13.562 -1.3100  1.1857 -1.1346
10558TIP3    H253090   4.668   1.356  13.548  1.2796  2.0964 -0.6579
10559TIP3   OH253091   3.543   4.912   1.044 -0.4475 -0.1495  0.0114
10559TIP3    H153092   3.624   4.865   1.028 -0.1624  0.2321  0.3256
10559TIP3    H253093   3.567   5.004   1.034 -0.6143  0.0157  1.1016
10560TIP3   OH253094   3.315   4.293   3.427 -0.6135  0.4562  0.9014
10560TIP3    H153095   3.331   4.221   3.488  1.1272 -1.0047 -1.1937
10560TIP3    H253096   3.222   4.285   3.405  0.0493 -2.8064 -1.2001
10561TIP3   OH253097   5.993   3.647   3.758  0.1663 -0.4028 -0.0880
10561TIP3    H153098   5.983   3.739   3.782  0.7672 -0.1915 -0.6211
10561TIP3    H253099   6.070   3.618   3.806  0.2803 -0.4826 -0.3156
10562TIP3   OH253100   5.029   6.365  16.057  0.3835 -0.2035 -0.5740
10562TIP3    H153101   4.950   6.310  16.052  0.2761 -0.1413  0.4189
10562TIP3    H253102   5.062   6.367  15.967 -0.5093 -0.5869 -0.9181
10563TIP3   OH253103   5.166   5.753  12.346  0.0530 -0.5203 -0.4647
10563TIP3    H153104   5.171   5.660  12.322  0.6040 -1.4378  2.9773
10563TIP3    H253105   5.256   5.783  12.345  0.2666 -1.0038  1.9438
10564TIP3   OH253106   6.302   0.234  14.701  0.1355 -0.1281  0.2325
10564TIP3    H153107   6.332   0.306  14.646  1.6253 -0.1081  1.0347
10564TIP3    H253108   6.383   0.194  14.733 -0.5830 -3.2881 -1.6284
10565TIP3   OH253109   3.741   3.872   1.486  0.2112  0.3385  0.4384
10565TIP3    H153110   3.663   3.818   1.471 -0.7236  1.5509  0.8070
10565TIP3    H253111   3.758   3.864   1.580 -0.1736  0.9820  0.5699
10566TIP3   OH253112   3.611   6.338  16.676  0.0178  0.2382 -0.2192
10566TIP3    H153113   3.632   6.327  16.768 -1.6164  1.2976  0.3006
10566TIP3    H253114   3.695   6.360  16.635  0.8124 -0.5684  0.9481
10567TIP3   OH253115   5.133   6.202   1.778 -0.1140  0.1755  0.7867
10567TIP3    H153116   5.179   6.189   1.696 -1.6496 -2.0517  0.2362
10567TIP3    H253117   5.196   6.247   1.834  1.3128  0.7517 -1.2422
10568TIP3   OH253118   3.602   2.649  12.763  1.0057 -0.1671 -0.0322
10568TIP3    H153119   3.628   2.673  12.674 -0.4865  1.8186  0.0326
10568TIP3    H253120   3.677   2.674  12.818  2.0584 -1.6867 -0.7322
10569TIP3   OH253121   2.850   0.038  14.814 -0.7625 -0.4132  0.6628
10569TIP3    H153122   2.778   0.068  14.870 -0.8322  0.9731 -0.1361
10569TIP3    H253123   2.900   0.118  14.794  1.2979 -1.4159  1.6174
10570TIP3   OH253124   1.487   2.255  10.359 -0.2308  0.4141 -0.3597
10570TIP3    H153125   1.426   2.201  10.308 -0.8127  2.5665 -2.0009
10570TIP3    H253126   1.435   2.286  10.434 -0.2176 -0.3571 -0.0269
10571TIP3   OH253127   5.482   1.480   2.979  0.1233  0.1669 -0.4122
10571TIP3    H153128   5.528   1.461   3.061 -0.7131 -2.1361 -0.4427
10571TIP3    H253129   5.504   1.571   2.960  0.5068  0.6744  2.2555
10572TIP3   OH253130   4.927   2.794  13.795 -0.5679  0.0722 -0.2636
10572TIP3    H153131   5.009   2.779  13.842 -0.9492 -1.1882  0.0274
10572TIP3    H253132   4.925   2.726  13.728 -0.0942  1.7752 -2.0574
10573TIP3   OH253133   0.580   6.666  15.773  0.2865 -0.7409 -0.3504
10573TIP3    H153134   0.490   6.638  15.757 -0.5153  1.0691  0.8284
10573TIP3    H253135   0.575   6.762  15.779  2.1042 -0.6888  0.8239
10574TIP3   OH253136   5.733   1.909  15.975 -0.0464 -0.3665 -0.5579
10574TIP3    H153137   5.775   1.971  15.916  2.0266  0.2904  1.5242
10574TIP3    H253138   5.654   1.954  16.005  0.4460  0.4973 -0.5369
10575TIP3   OH253139   6.325   0.385   1.014  0.4135  0.4459 -0.8732
10575TIP3    H153140   6.298   0.421   0.929 -0.8791  0.9152 -0.2675
10575TIP3    H253141   6.261   0.316   1.032  2.5625 -1.8966 -1.7823
10576TIP3   OH253142   0.835   1.215  16.013 -0.1459  0.5361 -0.4653
10576TIP3    H153143   0.911   1.273  16.004 -0.9804  1.7135 -0.1314
10576TIP3    H253144   0.762   1.266  15.976 -0.9932 -0.1050  0.3114
10577TIP3   OH253145   0.896   1.423  16.657 -0.1969  0.4457 -0.0112
10577TIP3    H153146   0.965   1.458  16.601 -0.1141  0.6405  0.2135
10577TIP3    H253147   0.847   1.364  16.600  0.9974 -0.7841  0.1899
10578TIP3   OH253148   1.343   4.007   2.585 -0.1735  0.0953  0.3085
10578TIP3    H153149   1.260   4.053   2.570 -0.0865  0.5272  1.1018
10578TIP3    H253150   1.359   3.959   2.504 -1.2171 -0.0137  0.1596
10579TIP3   OH253151   4.445   1.883  12.278  0.2168 -0.1088  0.1325
10579TIP3    H153152   4.450   1.788  12.269  0.1185 -0.1769  0.7941
10579TIP3    H253153   4.532   1.909  12.310 -0.2407 -0.1406  1.4034
10580TIP3   OH253154   0.863   3.769  14.418 -0.5350  0.2927 -0.8753
10580TIP3    H153155   0.855   3.766  14.323 -1.6279 -0.3240 -0.7744
10580TIP3    H253156   0.838   3.859  14.440 -0.1316  0.4826 -1.1757
10581TIP3   OH253157   1.789   6.350  15.246  0.0600 -0.2440  0.2857
10581TIP3    H153158   1.764   6.357  15.338 -0.6671 -0.2125  0.0886
10581TIP3    H253159   1.706   6.335  15.200  0.4890 -0.8532 -0.2998
10582TIP3   OH253160   2.891   0.597   5.346  0.3521  0.8372 -0.1576
10582TIP3    H153161   2.797   0.600   5.360  0.5357  0.4430  1.2976
10582TIP3    H253162   2.922   0.531   5.408  1.4136 -0.0915 -1.6381
10583TIP3   OH253163   2.135   2.695  12.702 -0.6103  0.1348 -0.4070
10583TIP3    H153164   2.041   2.694  12.720 -0.5676  0.2582 -0.1679
10583TIP3    H253165   2.143   2.725  12.612 -0.8826 -1.5378 -0.9864
10584TIP3   OH253166   5.435   1.379  16.826 -0.4316 -0.0298  0.1818
10584TIP3    H153167   5.378   1.448  16.861  0.4384  0.3962  0.7679
10584TIP3    H253168   5.415   1.303  16.881 -0.2010  0.2099  0.6051
10585TIP3   OH253169   0.954   6.480  15.431 -0.3817  0.1770  0.0537
10585TIP3    H153170   0.956   6.562  15.480 -0.2040  1.0864 -1.4482
10585TIP3    H253171   1.046   6.457  15.419 -0.4080  0.3200 -0.4363
10586TIP3   OH253172   3.907   0.744  10.780 -0.3407  0.0016  0.5799
10586TIP3    H153173   3.891   0.831  10.816 -0.4263  1.6527 -3.1570
10586TIP3    H253174   4.002   0.734  10.781 -0.1918  1.0463 -0.8099
10587TIP3   OH253175   3.072   5.371   0.605  0.4835 -0.3527  0.8556
10587TIP3    H153176   2.990   5.356   0.558  0.8200  0.6873 -0.0774
10587TIP3    H253177   3.101   5.283   0.630 -0.1831 -0.8545 -0.0716
10588TIP3   OH253178   3.781   5.750   1.603 -0.8752 -0.0454 -0.2748
10588TIP3    H153179   3.846   5.704   1.657 -2.7773 -3.8312 -1.0145
10588TIP3    H253180   3.704   5.757   1.659 -0.7011  2.0622 -0.2813
10589TIP3   OH253181   4.679   0.530  13.190  0.2128 -0.3317  0.6554
10589TIP3    H153182   4.720   0.553  13.272  0.6567 -0.3346  0.4342
10589TIP3    H253183   4.589   0.507  13.214  0.3011 -0.1984  1.1178
10590TIP3   OH253184   5.227   1.604   1.860 -0.4937 -0.0894  0.6015
10590TIP3    H153185   5.235   1.541   1.932 -1.4318  0.5475  1.2878
10590TIP3    H253186   5.151   1.658   1.885  1.1653  2.2612  0.7606
10591TIP3   OH253187   0.685   2.237   2.926 -0.2887 -0.3330 -0.3195
10591TIP3    H153188   0.748   2.294   2.883  1.7932 -2.4538 -0.1972
10591TIP3    H253189   0.643   2.293   2.991  1.1245  1.2614 -0.7341
10592TIP3   OH253190   1.501   0.620  15.925  0.1984  1.1059  0.2906
10592TIP3    H153191   1.583   0.585  15.889 -0.0356 -0.0529  0.8609
10592TIP3    H253192   1.438   0.609  15.854  0.2072  0.6988  0.3465
10593TIP3   OH253193   6.340   5.394  14.235  0.0477  0.0839 -0.2035
10593TIP3    H153194   6.280   5.418  14.306  1.1522  0.8214  0.4916
10593TIP3    H253195   6.350   5.299  14.242 -0.1671  0.1051  0.3725
10594TIP3   OH253196   5.711   5.209   3.304  0.0968 -0.0046 -0.2236
10594TIP3    H153197   5.627   5.167   3.287  0.2379 -0.9360  1.2979
10594TIP3    H253198   5.757   5.206   3.221  0.0721 -2.8273 -0.1731
10595TIP3   OH253199   2.859   5.871  12.112 -0.1758 -0.9505 -0.4051
10595TIP3    H153200   2.895   5.783  12.114  1.7418 -0.2132 -1.1305
10595TIP3    H253201   2.823   5.881  12.023 -0.6811 -1.1080 -0.2199
10596TIP3   OH253202   2.500   5.549   6.645  0.3178 -0.3317  0.2036
10596TIP3    H153203   2.441   5.535   6.571  0.2353 -1.1197  0.4179
10596TIP3    H253204   2.566   5.480   6.636 -0.6338 -1.4747  1.8172
10597TIP3   OH253205   6.251   3.710   6.294  0.6633  0.5492  0.6983
10597TIP3    H153206   6.338   3.750   6.305  1.0387 -0.4167  1.2925
10597TIP3    H253207   6.225   3.686   6.382 -0.2335  0.8716  0.5205
10598TIP3   OH253208   0.618   2.252   1.889 -0.2114  0.0943  0.0330
10598TIP3    H153209   0.677   2.321   1.860  0.1975 -0.9526 -1.7200
10598TIP3    H253210   0.672   2.195   1.944 -0.5983  1.2372  1.6397
10599TIP3   OH253211   1.698   2.627   1.052  0.1450 -0.3957 -0.3878
10599TIP3    H153212   1.763   2.689   1.019 -0.4483 -0.0603 -0.9574
10599TIP3    H253213   1.726   2.608   1.141  0.4732  0.5164 -0.2874
10600TIP3   OH253214   5.915   5.050  13.333  0.3211  0.7926 -0.0169
10600TIP3    H153215   5.973   5.095  13.395  0.5433  0.9570 -0.3384
10600TIP3    H253216   5.889   4.970  13.378  1.2627  0.4383 -0.0890
10601TIP3   OH253217   2.205   2.269  10.797  0.1490 -0.1856  0.1179
10601TIP3    H153218   2.218   2.174  10.790  0.9200 -0.1358  0.7860
10601TIP3    H253219   2.115   2.283  10.767  0.2695 -1.0423 -0.6699
10602TIP3   OH253220   2.247   4.729   1.879  0.2686 -0.3125 -0.5468
10602TIP3    H153221   2.269   4.656   1.936 -1.0139 -1.5446 -1.6286
10602TIP3    H253222   2.302   4.716   1.801  1.3053  0.8419 -0.0388
10603TIP3   OH253223   4.322   6.387   3.789 -0.1114 -0.3321  0.0343
10603TIP3    H153224   4.246   6.415   3.839 -1.4906  0.6627 -2.5401
10603TIP3    H253225   4.394   6.387   3.853 -1.2283  3.4639  1.4437
10604TIP3   OH253226   2.679   1.636  17.075 -0.2991 -0.0461 -0.5444
10604TIP3    H153227   2.710   1.669  16.991 -0.8999 -0.4556 -0.9343
10604TIP3    H253228   2.620   1.704  17.107 -1.5919 -0.7511 -1.3799
10605TIP3   OH253229   3.648   4.283  17.036  0.4485  0.3138  0.4699
10605TIP3    H153230   3.607   4.308  17.118  1.4829  0.2592  1.0091
10605TIP3    H253231   3.665   4.189  17.045 -1.3695 -0.1532 -0.6537
10606TIP3   OH253232   1.980   2.888   2.875  0.3830 -0.2066 -0.4456
10606TIP3    H153233   2.060   2.863   2.922  0.1537  1.1290  0.6937
10606TIP3    H253234   1.914   2.825   2.903 -0.1852  1.5493  2.3572
10607TIP3   OH253235   4.661   5.183  16.655  0.4160  0.2496  0.4843
10607TIP3    H153236   4.627   5.218  16.573 -1.7152  0.6801  1.5279
10607TIP3    H253237   4.685   5.093  16.634  0.5240  0.5583 -0.7661
10608TIP3   OH253238   4.987   2.825   5.905  0.4538 -0.2386  0.8346
10608TIP3    H153239   5.047   2.751   5.913  1.9465  0.8522 -0.0795
10608TIP3    H253240   4.963   2.847   5.995  3.5420  1.0093  1.3856
10609TIP3   OH253241   3.896   5.752  11.894  0.3405 -0.7565 -0.2189
10609TIP3    H153242   3.968   5.689  11.899  1.2910  0.2663 -1.0723
10609TIP3    H253243   3.819   5.701  11.921  0.9243 -2.5644 -1.8911
10610TIP3   OH253244   0.908   3.021   3.645  0.5617 -0.1120 -0.4795
10610TIP3    H153245   0.839   2.961   3.674 -0.0307  0.4392 -0.7137
10610TIP3    H253246   0.961   3.037   3.723  0.0436 -0.0460 -0.1359
10611TIP3   OH253247   5.507   1.040   1.471 -0.0591  0.1677  0.1028
10611TIP3    H153248   5.551   1.092   1.538 -0.2278  0.4483 -0.0015
10611TIP3    H253249   5.538   0.950   1.486  1.0050  0.4453 -0.3331
10612TIP3   OH253250   3.068   4.028   3.503 -0.3428 -0.0157  0.8354
10612TIP3    H153251   3.090   4.007   3.412  0.4660  1.0827  0.7641
10612TIP3    H253252   3.044   4.121   3.501  2.6128  0.8240  2.2292
10613TIP3   OH253253   1.038   1.428   3.679 -0.0137  0.1842 -0.5767
10613TIP3    H153254   0.962   1.428   3.620 -0.9730 -0.5188  0.6511
10613TIP3    H253255   1.053   1.335   3.698  0.6397  0.3760 -0.1575
10614TIP3   OH253256   6.474   2.555   3.399 -0.0637 -0.0863  0.0928
10614TIP3    H153257   6.431   2.510   3.472  1.3447 -0.4007  0.7550
10614TIP3    H253258   6.504   2.484   3.342 -0.8203  0.1437 -0.5875
10615TIP3   OH253259   2.080   3.427  13.156  0.6642  0.0670 -0.0989
10615TIP3    H153260   2.128   3.344  13.153  0.9220  0.2336 -0.7881
10615TIP3    H253261   2.119   3.475  13.229 -0.1093 -0.7892  0.8896
10616TIP3   OH253262   3.814   2.772  12.072 -0.9705  0.2479 -0.3409
10616TIP3    H153263   3.872   2.834  12.029 -0.0397  0.4243  1.1288
10616TIP3    H253264   3.857   2.687  12.062 -1.6726  0.0058 -1.3520
10617TIP3   OH253265   2.544   1.271   5.966 -0.2582  0.0865  0.2837
10617TIP3    H153266   2.544   1.209   5.893  0.6840 -0.6514  0.9041
10617TIP3    H253267   2.480   1.235   6.028  0.0929 -0.1221  0.5246
10618TIP3   OH253268   1.880   6.465  12.664 -0.0741 -0.5786  0.5047
10618TIP3    H153269   1.973   6.448  12.647  0.0148 -0.1459  0.5393
10618TIP3    H253270   1.874   6.470  12.760 -0.5104 -2.6635  0.6096
10619TIP3   OH253271   0.087   5.485   0.126 -0.0806 -0.3752  0.3494
10619TIP3    H153272   0.128   5.498   0.211  0.9732  1.3495 -0.4047
10619TIP3    H253273   0.147   5.428   0.078  0.1904  0.0983  0.1300
10620TIP3   OH253274   3.008   2.985   2.528  0.7679 -0.1612  0.0843
10620TIP3    H153275   3.050   2.979   2.442  1.5814  0.0773  0.4564
10620TIP3    H253276   3.079   3.010   2.587 -0.1404  1.4476  0.5264
10621TIP3   OH253277   4.075   4.936  16.172 -0.0839 -0.7382  0.1169
10621TIP3    H153278   4.060   5.030  16.168  0.4114 -0.6832 -0.4779
10621TIP3    H253279   4.030   4.908  16.252  1.6667  0.3384  1.4985
10622TIP3   OH253280   6.615   3.124  14.105  0.0331  0.8128  0.1775
10622TIP3    H153281   6.562   3.064  14.157  0.1925  1.8172  1.5292
10622TIP3    H253282   6.645   3.072  14.031 -0.5922 -0.5081  0.8351
10623TIP3   OH253283   0.612   6.124  17.111  0.2137  0.0492 -0.4910
10623TIP3    H153284   0.668   6.201  17.098  2.3258 -1.6499 -1.8796
10623TIP3    H253285   0.529   6.146  17.070 -0.6366  3.1073  2.6598
10624TIP3   OH253286   1.016   3.295   6.299 -0.3333  0.2290 -0.1094
10624TIP3    H153287   1.019   3.327   6.389  2.0129  1.8940 -0.7284
10624TIP3    H253288   0.979   3.207   6.305  0.2160  0.1570  2.5066
10625TIP3   OH253289   6.617   1.543  10.567  0.1053 -0.1194 -0.5400
10625TIP3    H153290   6.631   1.622  10.620  1.2541 -1.1833  0.7740
10625TIP3    H253291   6.704   1.507  10.555 -0.2060 -0.1697 -2.7634
10626TIP3   OH253292   3.876   5.275   0.156 -0.0023  0.0452  0.5918
10626TIP3    H153293   3.916   5.344   0.209  0.7569  1.1354 -1.3472
10626TIP3    H253294   3.782   5.293   0.162  0.1158  0.5408  1.0530
10627TIP3   OH253295   2.928   4.139  12.032  0.3432  0.3402  0.3634
10627TIP3    H153296   2.922   4.089  12.113  0.3783  0.0932  0.2133
10627TIP3    H253297   2.848   4.192  12.030  0.1533  0.0533  0.3625
10628TIP3   OH253298   5.024   0.638  14.070  0.1577 -0.3169 -0.4971
10628TIP3    H153299   5.005   0.551  14.035 -0.0556 -0.7780  0.7342
10628TIP3    H253300   5.052   0.622  14.160 -1.8629  1.0407  0.4123
10629TIP3   OH253301   4.851   0.524  10.629  0.5160 -0.2714  0.4112
10629TIP3    H153302   4.777   0.464  10.629 -0.8334  1.3430  0.2653
10629TIP3    H253303   4.872   0.536  10.536  0.1110  0.2814  0.3894
10630TIP3   OH253304   5.068   3.701  16.227 -0.1723 -0.1711  0.1769
10630TIP3    H153305   5.163   3.693  16.220 -0.3885 -0.8683 -2.9536
10630TIP3    H253306   5.038   3.699  16.136 -3.1271  0.7771  1.0939
10631TIP3   OH253307   6.157   4.990  11.195  0.3624  0.7350 -0.5919
10631TIP3    H153308   6.120   4.904  11.178  1.8183 -0.1193  0.4411
10631TIP3    H253309   6.174   5.027  11.108 -0.7343  0.1921 -1.0369
10632TIP3   OH253310   3.156   4.863   3.696  0.1309 -0.0034 -0.0100
10632TIP3    H153311   3.205   4.916   3.634  0.1961 -0.0296  0.0184
10632TIP3    H253312   3.186   4.773   3.680  1.8585  0.2408  1.6013
10633TIP3   OH253313   1.697   2.828  11.394  0.1766  0.3126 -0.6264
10633TIP3    H153314   1.693   2.780  11.477  0.0533 -0.0956 -0.8671
10633TIP3    H253315   1.617   2.803  11.348  0.4703  0.1787 -1.0647
10634TIP3   OH253316   3.100   1.445  15.572  0.1190  0.3677 -0.1712
10634TIP3    H153317   3.036   1.498  15.618  0.2128 -0.9286  1.4921
10634TIP3    H253318   3.163   1.419  15.639 -0.6608 -2.9725 -0.6439
10635TIP3   OH253319   6.259   4.198   4.551  0.1088 -0.0203  0.5467
10635TIP3    H153320   6.206   4.121   4.573  0.5466 -0.0938  1.3636
10635TIP3    H253321   6.332   4.162   4.501  0.2160 -0.1166  0.7702
10636TIP3   OH253322   1.102   2.957  17.223  0.1071 -0.2973 -0.2600
10636TIP3    H153323   1.089   2.862  17.218  0.4965 -0.2852 -1.7125
10636TIP3    H253324   1.013   2.993  17.219 -0.0002 -0.5836 -0.5362
10637TIP3   OH253325   2.569   5.442   3.990 -0.4739 -0.2214 -0.5191
10637TIP3    H153326   2.615   5.457   4.073 -0.8100  0.0305 -0.3718
10637TIP3    H253327   2.637   5.443   3.923 -0.2047 -0.3788 -0.2470
10638TIP3   OH253328   6.396   4.105   3.649 -0.1613  0.1317  0.2952
10638TIP3    H153329   6.436   4.037   3.702 -4.1813 -1.1742  1.8348
10638TIP3    H253330   6.393   4.182   3.706  0.4650  0.3253  0.0648
10639TIP3   OH253331   1.566   2.390   0.964  0.1981 -0.1412  0.2830
10639TIP3    H153332   1.608   2.469   0.998  1.6261 -0.6661 -0.2157
10639TIP3    H253333   1.590   2.322   1.027 -1.4803 -0.0766  1.0013
10640TIP3   OH253334   4.682   5.214  13.340  0.4106 -0.1138 -0.1886
10640TIP3    H153335   4.642   5.269  13.407 -1.3713 -0.1552 -1.1930
10640TIP3    H253336   4.706   5.133  13.386 -1.7357 -0.5484  0.2055
10641TIP3   OH253337   2.092   2.382  11.316  0.0950  0.5093 -0.3027
10641TIP3    H153338   2.012   2.342  11.281 -0.1375  0.0546  0.7392
10641TIP3    H253339   2.085   2.475  11.292 -0.9768  0.5598  0.2028
10642TIP3   OH253340   0.697   1.497  17.023 -0.1017  0.7078  0.1711
10642TIP3    H153341   0.670   1.571  17.077  0.4740  2.0091 -1.2807
10642TIP3    H253342   0.711   1.535  16.936  3.0327 -0.5265  0.0724
10643TIP3   OH253343   1.971   6.198  13.377  0.0439 -0.3237 -0.4598
10643TIP3    H153344   1.948   6.147  13.454  0.2593  0.4823  0.1466
10643TIP3    H253345   1.887   6.229  13.343  0.0104  0.1856  0.0656
10644TIP3   OH253346   2.955   1.937  12.069 -0.1147 -0.0130 -0.1684
10644TIP3    H153347   2.864   1.957  12.046 -0.0364  0.4874 -0.0344
10644TIP3    H253348   2.966   1.845  12.044 -0.2569  0.3096 -1.4464
10645TIP3   OH253349   5.346   0.639  14.017 -0.1315 -0.0951 -0.2772
10645TIP3    H153350   5.275   0.672  13.962 -1.4433  0.6103  1.7790
10645TIP3    H253351   5.423   0.641  13.960 -1.7966 -1.2701 -2.6944
10646TIP3   OH253352   1.993   2.644  16.763 -0.8439 -0.2839  0.0190
10646TIP3    H153353   1.912   2.681  16.728  0.3803  0.3576 -2.1764
10646TIP3    H253354   2.063   2.688  16.715  0.8838  0.1423  2.8280
10647TIP3   OH253355   0.830   4.544  16.427  0.5394 -0.9094  0.5742
10647TIP3    H153356   0.837   4.464  16.478  0.7891 -0.7398  0.8117
10647TIP3    H253357   0.737   4.567  16.429  0.5955 -0.7431  1.2011
10648TIP3   OH253358   1.696   4.452   1.956  0.2491  0.1251 -0.0374
10648TIP3    H153359   1.754   4.408   1.894 -0.5647  0.2174 -0.8662
10648TIP3    H253360   1.686   4.541   1.921 -1.1970 -0.1851 -0.4483
10649TIP3   OH253361   3.116   3.270   1.133  0.6211  0.4452 -0.7858
10649TIP3    H153362   3.037   3.219   1.116  2.8386 -2.3327 -3.1993
10649TIP3    H253363   3.151   3.235   1.215 -0.6492  1.7985  0.3819
10650TIP3   OH253364   1.639   6.422  16.863  0.0713 -0.0725 -0.3913
10650TIP3    H153365   1.574   6.420  16.792  0.6659  1.5141 -0.9964
10650TIP3    H253366   1.703   6.355  16.838 -1.6719 -2.1349  0.5634
10651TIP3   OH253367   1.160   0.511   3.881  0.3852 -0.2041  0.4032
10651TIP3    H153368   1.184   0.437   3.937 -0.6567 -0.7077  0.2146
10651TIP3    H253369   1.066   0.500   3.867  0.2192  1.1648  0.3733
10652TIP3   OH253370   3.264   0.273  14.926  0.4201  0.9341 -0.1633
10652TIP3    H153371   3.317   0.194  14.941  1.8137  1.4371 -2.1429
10652TIP3    H253372   3.192   0.244  14.870 -0.0151  0.7374  0.4966
10653TIP3   OH253373   4.215   2.296  14.035 -0.0565 -0.1199  0.1475
10653TIP3    H153374   4.240   2.309  14.126  1.6189  1.5633 -0.5269
10653TIP3    H253375   4.124   2.325  14.030 -0.2317 -0.4513  1.3289
10654TIP3   OH253376   4.707   4.414   6.691 -0.3889 -0.4143  0.4639
10654TIP3    H153377   4.771   4.345   6.710  0.3240  0.2520  0.5064
10654TIP3    H253378   4.698   4.462   6.772 -0.2094  0.0912  0.1861
10655TIP3   OH253379   0.749   0.126  12.757  0.7315  0.0405  0.1485
10655TIP3    H153380   0.785   0.184  12.690  1.4484  0.0036  0.4934
10655TIP3    H253381   0.753   0.039  12.718  0.1769  0.1518 -0.1569
10656TIP3   OH253382   6.690   1.097   5.546  0.3470  0.1930 -0.0449
10656TIP3    H153383   6.689   1.189   5.519  2.3308  0.6687  1.3960
10656TIP3    H253384   6.616   1.089   5.607 -0.2843  0.6447 -0.7471
10657TIP3   OH253385   0.227   3.956   2.179 -0.6739  0.3613 -0.0066
10657TIP3    H153386   0.151   4.014   2.170  0.0571  1.3165 -0.1565
10657TIP3    H253387   0.238   3.917   2.093  0.4794  2.1126 -0.6898
10658TIP3   OH253388   5.446   5.393  12.607  0.3624 -0.1139  0.7835
10658TIP3    H153389   5.505   5.420  12.677  0.7720  2.3745 -0.4562
10658TIP3    H253390   5.400   5.473  12.583 -1.2167 -1.3562 -0.4581
10659TIP3   OH253391   5.373   1.092  16.230  0.4589  0.1787  0.6327
10659TIP3    H153392   5.428   1.127  16.159  1.3532 -0.9561  0.7498
10659TIP3    H253393   5.433   1.040  16.283 -1.0179 -2.3230 -0.0835
10660TIP3   OH253394   2.926   5.328  15.801  1.0697  0.3934  0.5227
10660TIP3    H153395   2.946   5.236  15.818  2.9024  0.6124 -0.3980
10660TIP3    H253396   2.998   5.359  15.748 -1.1955  1.5177 -2.0163
10661TIP3   OH253397   1.018   3.852  14.996 -0.3854 -0.2359 -0.5098
10661TIP3    H153398   1.004   3.757  14.999  0.8212 -0.4599 -1.5023
10661TIP3    H253399   1.035   3.871  14.903 -0.9209  1.0039 -0.3698
10662TIP3   OH253400   6.193   2.831   3.139 -0.6507  0.0014 -0.0909
10662TIP3    H153401   6.183   2.877   3.223  2.2716  1.0442 -0.2501
10662TIP3    H253402   6.170   2.896   3.073 -0.9601 -0.1762 -0.1546
10663TIP3   OH253403   4.997   3.400  10.955 -0.3128 -0.0600  0.2167
10663TIP3    H153404   4.978   3.351  10.875 -1.3762 -0.9687  1.0142
10663TIP3    H253405   5.074   3.453  10.933 -0.0821 -0.9320 -1.1356
10664TIP3   OH253406   4.106   4.751  10.623 -0.1724 -0.3904  0.4519
10664TIP3    H153407   4.051   4.763  10.546 -1.6635 -1.0175  1.3888
10664TIP3    H253408   4.187   4.715  10.589 -1.0688 -1.3196 -0.7581
10665TIP3   OH253409   3.412   4.093   6.807 -0.2950  0.4103 -0.5088
10665TIP3    H153410   3.331   4.054   6.837  0.9725  0.2299  2.8310
10665TIP3    H253411   3.385   4.175   6.764 -2.1321  1.2276  2.1063
10666TIP3   OH253412   2.926   3.456  16.757  0.2624 -0.3922 -0.1761
10666TIP3    H153413   2.966   3.415  16.680  0.2029  0.5898 -0.7398
10666TIP3    H253414   2.834   3.428  16.754  0.2377 -0.2775 -0.5189
10667TIP3   OH253415   0.430   6.587   0.763 -0.3676  0.3546  0.3882
10667TIP3    H153416   0.434   6.668   0.712  2.4580 -0.3474 -0.5623
10667TIP3    H253417   0.513   6.543   0.746 -0.7141 -1.4585  3.0551
10668TIP3   OH253418   1.379   5.975  13.096 -0.0675 -0.0866 -0.2980
10668TIP3    H153419   1.438   6.049  13.109  0.9610 -0.9801  0.2631
10668TIP3    H253420   1.294   6.006  13.127  0.0374  1.3121 -1.3856
10669TIP3   OH253421   5.721   5.673  10.442  0.3582 -0.0330 -0.4776
10669TIP3    H153422   5.625   5.670  10.448  0.2690  1.5010 -0.7329
10669TIP3    H253423   5.751   5.601  10.496 -0.9409 -0.2881 -0.0754
10670TIP3   OH253424   5.559   0.369   0.473 -0.7001  0.4397  0.2526
10670TIP3    H153425   5.597   0.340   0.556 -0.8446 -1.7119 -0.3902
10670TIP3    H253426   5.630   0.413   0.427 -0.2526  0.4608  0.9587
10671TIP3   OH253427   3.447   4.532  16.249  0.7743 -0.1144  0.3618
10671TIP3    H153428   3.428   4.509  16.340 -0.5726 -2.2066 -0.4148
10671TIP3    H253429   3.368   4.575  16.218  0.3061 -1.5446 -0.4906
10672TIP3   OH253430   2.905   5.445  11.813 -0.0786 -0.0082  0.2567
10672TIP3    H153431   2.900   5.536  11.785 -0.2088 -0.4085 -1.0817
10672TIP3    H253432   2.843   5.399  11.756  1.2053 -1.1969 -0.2108
10673TIP3   OH253433   3.790   5.857   5.755  0.5668  0.2409  0.4305
10673TIP3    H153434   3.770   5.770   5.721 -1.1022  0.8309 -0.1614
10673TIP3    H253435   3.808   5.843   5.848  0.1761 -0.7181  0.3653
10674TIP3   OH253436   3.737   0.866  14.239  0.2175 -0.0401 -0.2811
10674TIP3    H153437   3.748   0.938  14.177  3.7490 -1.6142 -1.5843
10674TIP3    H253438   3.765   0.902  14.323  0.4656  0.5775 -0.6283
10675TIP3   OH253439   3.420   3.291  17.141 -0.1164  0.3554 -0.5259
10675TIP3    H153440   3.442   3.200  17.163  1.1961  0.7617 -0.1098
10675TIP3    H253441   3.328   3.300  17.167 -0.3469 -0.9331 -0.8359
10676TIP3   OH253442   3.468   1.165  15.059 -0.3549 -0.1948  0.3454
10676TIP3    H153443   3.405   1.228  15.096 -1.4174 -1.0645  0.0611
10676TIP3    H253444   3.459   1.087  15.114 -0.6789 -0.8801 -0.6607
10677TIP3   OH253445   3.699   5.517  15.477  0.2900  0.4182 -0.0609
10677TIP3    H153446   3.685   5.608  15.452  0.0296 -0.1981 -2.2538
10677TIP3    H253447   3.786   5.516  15.518  1.5862  1.1519 -2.7096
10678TIP3   OH253448   5.084   3.672  16.742 -0.7508 -0.1452  0.2550
10678TIP3    H153449   5.082   3.751  16.688  0.4939  0.9157  1.7152
10678TIP3    H253450   4.992   3.651  16.758 -1.0870  0.8415 -0.3612
10679TIP3   OH253451   4.331   5.367  16.541 -0.6556  0.1769 -0.1625
10679TIP3    H153452   4.297   5.448  16.502  2.4296  0.6755 -2.0587
10679TIP3    H253453   4.275   5.298  16.506 -2.2835  1.3216  0.1358
10680TIP3   OH253454   2.220   1.589  14.947 -0.3948 -0.0092  0.4049
10680TIP3    H153455   2.209   1.630  15.033 -1.6300 -0.1419  0.3191
10680TIP3    H253456   2.152   1.521  14.944 -0.8272  0.4701 -0.9676
10681TIP3   OH253457   1.062   2.974   4.009  0.4037 -0.4790 -0.1946
10681TIP3    H153458   1.058   2.883   3.980  0.0578 -0.2232 -0.9579
10681TIP3    H253459   1.138   3.011   3.965 -1.4837  0.5636 -2.7198
10682TIP3   OH253460   1.610   2.396  12.618 -0.4317  0.5080 -0.2328
10682TIP3    H153461   1.563   2.390  12.534 -0.7703 -1.8681  0.0939
10682TIP3    H253462   1.690   2.345  12.604 -1.2039 -1.1901  1.3272
10683TIP3   OH253463   4.560   1.632  16.422  0.4336 -0.4351 -1.2735
10683TIP3    H153464   4.517   1.667  16.344  1.5601 -0.5738 -1.9799
10683TIP3    H253465   4.547   1.699  16.489 -1.9749 -1.0616 -1.0920
10684TIP3   OH253466   6.320   2.972  13.866 -0.0881 -0.5015 -0.4327
10684TIP3    H153467   6.390   2.910  13.847  1.2005  0.5000  0.8875
10684TIP3    H253468   6.326   2.986  13.961 -1.8775 -0.1492 -0.3538
10685TIP3   OH253469   2.126   0.292   0.178  0.6830  0.0960 -0.3157
10685TIP3    H153470   2.083   0.209   0.155 -2.0184  1.4995 -0.4358
10685TIP3    H253471   2.155   0.279   0.269 -1.4813 -0.3054  0.3460
10686TIP3   OH253472   6.629   6.779   6.170 -0.2687  0.5293  0.5344
10686TIP3    H153473   6.585   6.712   6.223  0.4634 -0.5420 -0.1849
10686TIP3    H253474   6.565   6.801   6.102  0.6736 -1.8419 -1.1821
10687TIP3   OH253475   5.884   6.071   2.024  0.3864  0.1170 -0.2537
10687TIP3    H153476   5.974   6.060   1.992 -0.3974 -2.0724 -1.8490
10687TIP3    H253477   5.848   6.141   1.970  1.6524  2.3210  1.6492
10688TIP3   OH253478   3.683   3.548   5.834  0.3195  0.0342  0.4523
10688TIP3    H153479   3.644   3.511   5.755  2.4184  0.6994 -0.9423
10688TIP3    H253480   3.713   3.471   5.884 -2.5280 -0.4719  1.4695
10689TIP3   OH253481   0.283   0.016  12.762 -0.0010  0.2844 -0.2462
10689TIP3    H153482   0.327   0.062  12.833  0.3278  0.0722 -0.3087
10689TIP3    H253483   0.337   0.035  12.685 -0.1461  0.2070 -0.3671
10690TIP3   OH253484   1.350   0.404  12.951  0.4751 -0.0919  0.9054
10690TIP3    H153485   1.300   0.428  13.029  2.0248  3.2842  0.9304
10690TIP3    H253486   1.285   0.408  12.880 -0.1663  0.2175  1.5008
10691TIP3   OH253487   2.174   6.679   3.607 -0.3925 -0.2268  0.1507
10691TIP3    H153488   2.235   6.623   3.656  0.0835 -0.3606 -0.5913
10691TIP3    H253489   2.089   6.639   3.621 -0.1121 -0.8972 -0.0258
10692TIP3   OH253490   1.128   5.849  13.114  0.3236  0.2722 -0.2810
10692TIP3    H153491   1.141   5.754  13.115  1.0716  0.3719  0.4546
10692TIP3    H253492   1.101   5.870  13.204  1.1088  0.8696 -0.1764
10693TIP3   OH253493   3.017   6.127   3.275  0.4676 -0.4163  0.1898
10693TIP3    H153494   2.959   6.054   3.294  1.4188 -1.3632 -0.4993
10693TIP3    H253495   3.052   6.152   3.360  0.9860 -1.4846  0.2983
10694TIP3   OH253496   4.859   1.393   4.446 -0.2465 -0.4400  0.1278
10694TIP3    H153497   4.784   1.343   4.414  0.0577 -0.0896 -1.1333
10694TIP3    H253498   4.822   1.476   4.474 -0.4168 -0.5118  0.1182
10695TIP3   OH253499   5.258   6.328  15.258 -0.1948 -0.3839 -0.1862
10695TIP3    H153500   5.234   6.290  15.173 -1.7423 -1.1521  0.5716
10695TIP3    H253501   5.291   6.254  15.309  2.4141  0.3967 -0.6936
10696TIP3   OH253502   5.827   5.021   2.936 -0.1847 -0.3253 -0.1025
10696TIP3    H153503   5.839   4.926   2.935  0.6139 -0.2178 -1.2980
10696TIP3    H253504   5.743   5.034   2.980 -1.3872 -1.7087 -1.9345
10697TIP3   OH253505   4.432   5.139  13.163  0.5065  0.0413  0.0801
10697TIP3    H153506   4.494   5.211  13.173  0.5708 -0.0487  0.3501
10697TIP3    H253507   4.486   5.060  13.166  0.4666 -0.0102 -0.4790
10698TIP3   OH253508   2.755   4.568   3.608 -0.3128  0.4225 -0.5538
10698TIP3    H153509   2.661   4.569   3.589 -0.1132 -0.8309 -1.7035
10698TIP3    H253510   2.792   4.638   3.554 -0.3462 -0.2726 -1.4843
10699TIP3   OH253511   3.430   3.462  12.883  0.1045 -0.0322  0.1734
10699TIP3    H153512   3.472   3.543  12.856 -0.1056  0.5170  1.4809
10699TIP3    H253513   3.366   3.488  12.949  0.5212 -1.3348  1.1163
10700TIP3   OH253514   5.509   3.648  12.403 -0.2942 -0.4061  0.0821
10700TIP3    H153515   5.439   3.600  12.448 -0.3864  0.2217  0.6134
10700TIP3    H253516   5.559   3.580  12.359  0.4456 -1.1482  2.0040
10701TIP3   OH253517   1.027   6.755  13.701  0.2573  0.0052  0.1284
10701TIP3    H153518   0.991   6.726  13.784  0.4328 -0.0685  0.1779
10701TIP3    H253519   1.100   6.812  13.725  0.2865  0.0113  0.0263
10702TIP3   OH253520   2.504   3.569  15.444 -0.4056  0.6559  0.3917
10702TIP3    H153521   2.570   3.503  15.425  0.6339  1.7357  0.1888
10702TIP3    H253522   2.420   3.524  15.432  0.2902 -0.6200  0.2939
10703TIP3   OH253523   4.875   0.534   4.022  0.4362 -0.1537  0.1539
10703TIP3    H153524   4.875   0.604   3.958  1.2911 -0.4161 -0.1311
10703TIP3    H253525   4.796   0.483   4.002  1.7697 -1.4191 -1.9841
10704TIP3   OH253526   0.923   3.159   5.236  0.1009  0.3379  0.1162
10704TIP3    H153527   0.934   3.125   5.324  0.0523 -2.3343 -0.8630
10704TIP3    H253528   0.984   3.233   5.231 -0.5310  1.0956  2.6242
10705TIP3   OH253529   4.905   3.431   6.085  0.8081  0.1661 -0.0732
10705TIP3    H153530   4.825   3.426   6.137  0.2335 -2.9507 -1.1661
10705TIP3    H253531   4.966   3.479   6.141 -0.9078  0.0453  1.9890
10706TIP3   OH253532   3.458   0.477   0.125 -0.2184 -0.6789 -0.4285
10706TIP3    H153533   3.445   0.438   0.039  1.7678  0.6542 -1.3677
10706TIP3    H253534   3.550   0.504   0.125 -0.1260 -0.8934  2.2090
10707TIP3   OH253535   0.932   1.865  11.564 -0.0261 -0.3638 -0.3611
10707TIP3    H153536   0.849   1.840  11.524 -0.6028  1.3440 -0.2835
10707TIP3    H253537   0.997   1.807  11.524 -0.9938 -0.4987 -1.7667
10708TIP3   OH253538   2.850   2.696  14.685  0.4214 -0.1765 -0.0056
10708TIP3    H153539   2.811   2.695  14.598  0.0903 -1.3569  0.1366
10708TIP3    H253540   2.914   2.767  14.683 -1.6842  1.7293 -0.2694
10709TIP3   OH253541   6.595   2.813  11.813 -0.5030 -0.5127  0.0533
10709TIP3    H153542   6.656   2.741  11.796  0.7001  0.5651 -0.2566
10709TIP3    H253543   6.560   2.834  11.726  2.0610  1.8209 -0.4818
10710TIP3   OH253544   2.963   5.245   2.700  0.1836 -0.1453 -0.4905
10710TIP3    H153545   2.952   5.152   2.683 -0.9058 -0.3945  1.4775
10710TIP3    H253546   3.047   5.267   2.660  1.3799 -2.3896  0.7283
10711TIP3   OH253547   1.223   1.816   5.834  0.1161  0.0297  0.1707
10711TIP3    H153548   1.289   1.758   5.797 -0.6712 -0.6597 -0.1767
10711TIP3    H253549   1.177   1.762   5.899 -0.1519  0.4802  0.3611
10712TIP3   OH253550   2.089   6.349  13.146  0.0689  0.6238  0.0323
10712TIP3    H153551   2.086   6.439  13.179 -1.5183  0.1505  1.2600
10712TIP3    H253552   2.044   6.298  13.213 -0.1916 -0.8901 -1.2759
10713TIP3   OH253553   3.365   2.590   0.057 -0.6654 -0.3919  0.0606
10713TIP3    H153554   3.286   2.644   0.051 -1.3426 -1.2679  1.0395
10713TIP3    H253555   3.333   2.500   0.044  0.0814 -0.8091  1.1263
10714TIP3   OH253556   3.331   2.773  15.789  0.4593  0.0214 -0.1335
10714TIP3    H153557   3.248   2.734  15.815 -0.1162  0.8708 -0.6383
10714TIP3    H253558   3.391   2.700  15.778 -0.4042 -0.6459 -0.3890
10715TIP3   OH253559   3.716   1.398  16.969 -0.9486  0.6496 -0.0944
10715TIP3    H153560   3.751   1.476  17.013  0.8684  0.9909 -2.0815
10715TIP3    H253561   3.729   1.327  17.032  2.4691  0.9637 -0.3454
10716TIP3   OH253562   0.838   2.205   5.180 -0.2118  0.1427  0.2830
10716TIP3    H153563   0.921   2.195   5.226 -0.4335 -0.3081  0.5827
10716TIP3    H253564   0.840   2.295   5.147  0.5392  0.0228 -0.0029
10717TIP3   OH253565   5.981   4.568  13.353  0.7537  0.2211 -0.0863
10717TIP3    H153566   6.060   4.606  13.392  1.3014  1.5701 -2.4220
10717TIP3    H253567   5.930   4.643  13.324 -0.1312 -0.7318 -1.0269
10718TIP3   OH253568   2.542   5.847   4.540 -0.3977 -0.1851  0.1067
10718TIP3    H153569   2.462   5.796   4.526 -0.0983 -1.8376  3.8841
10718TIP3    H253570   2.601   5.787   4.586  2.6614  1.3423 -1.6481
10719TIP3   OH253571   2.393   3.169  16.926  0.3424 -0.0355  0.5885
10719TIP3    H153572   2.361   3.089  16.968  0.6590  0.0558  1.0121
10719TIP3    H253573   2.314   3.219  16.906  0.1610 -0.3176  0.5909
10720TIP3   OH253574   4.951   3.474  16.330 -0.0990  0.1144  0.0549
10720TIP3    H153575   4.997   3.553  16.298 -1.3718  0.4913 -0.8849
10720TIP3    H253576   5.015   3.403  16.318  0.3105  0.6569 -1.0656
10721TIP3   OH253577   1.154   3.114   1.817  0.0440  0.1063 -0.0633
10721TIP3    H153578   1.153   3.139   1.724  0.0083  0.5133  0.0454
10721TIP3    H253579   1.149   3.198   1.864 -2.0613 -0.2109  0.3118
10722TIP3   OH253580   0.869   2.261   3.463  0.3742  0.1814  0.3473
10722TIP3    H153581   0.841   2.214   3.385 -3.5021  0.5793  1.3939
10722TIP3    H253582   0.861   2.353   3.439  2.9626  0.3627  0.0027
10723TIP3   OH253583   5.067   3.956   5.042  0.1534  0.4503  0.0141
10723TIP3    H153584   5.115   4.004   5.109 -0.4334  0.9716  0.0604
10723TIP3    H253585   5.122   3.880   5.023  0.2021  0.1721  1.2642
10724TIP3   OH253586   5.132   4.149  13.096  0.2223  0.1294  0.4070
10724TIP3    H153587   5.116   4.167  13.003  2.1606  1.0889  0.2395
10724TIP3    H253588   5.191   4.074  13.095  0.7994  0.5735  0.8317
10725TIP3   OH253589   2.510   3.865   3.314 -0.4310  0.9046 -0.0605
10725TIP3    H153590   2.538   3.828   3.231 -0.2644 -2.1337  1.2546
10725TIP3    H253591   2.586   3.913   3.346  0.9015 -1.2380  0.1302
10726TIP3   OH253592   3.932   1.245   1.280  0.1921 -0.1177 -0.1576
10726TIP3    H153593   3.842   1.227   1.253  0.4538  1.1689 -2.0141
10726TIP3    H253594   3.977   1.161   1.274 -0.5281 -0.4626 -0.7391
10727TIP3   OH253595   4.939   1.260  13.320 -0.1218  0.3603 -0.4329
10727TIP3    H153596   4.970   1.241  13.231 -0.5462  1.6738 -0.8755
10727TIP3    H253597   4.969   1.350  13.336  0.5047 -0.0894  1.0002
10728TIP3   OH253598   3.475   4.000  13.782  0.2441 -0.1635  0.9503
10728TIP3    H153599   3.449   3.960  13.698  0.3528  1.8958 -0.1001
10728TIP3    H253600   3.426   4.081  13.786  1.0010  0.2421  2.4403
10729TIP3   OH253601   3.584   0.943  16.088  0.7127  0.2284 -0.4882
10729TIP3    H153602   3.643   0.895  16.147  0.9657 -0.6640 -1.4558
10729TIP3    H253603   3.503   0.892  16.090  0.4583  0.6393 -0.2977
10730TIP3   OH253604   0.787   4.716  14.718  0.5623 -0.3111  0.0730
10730TIP3    H153605   0.746   4.639  14.758  1.0106 -0.7622 -0.3374
10730TIP3    H253606   0.881   4.700  14.726  0.6660 -0.7589 -1.8240
10731TIP3   OH253607   2.832   2.019  15.852 -0.0952 -0.3503  0.0469
10731TIP3    H153608   2.845   1.925  15.863  0.3970 -0.4781 -1.5380
10731TIP3    H253609   2.891   2.059  15.915  1.5731 -1.0748 -1.0356
10732TIP3   OH253610   5.842   1.392   0.730  0.1852  0.0690  0.4341
10732TIP3    H153611   5.915   1.332   0.748  1.3363  1.2784 -0.0927
10732TIP3    H253612   5.850   1.412   0.637 -1.9539 -1.2122 -0.0664
10733TIP3   OH253613   2.636   0.919  13.853 -0.0538  0.7433 -0.3928
10733TIP3    H153614   2.688   0.955  13.781  0.6834  2.2118  0.8429
10733TIP3    H253615   2.698   0.911  13.925 -0.4129 -2.1452 -0.3112
10734TIP3   OH253616   5.701   5.656   6.127  0.4062 -0.2651 -0.6335
10734TIP3    H153617   5.726   5.607   6.205  1.2910 -1.4588 -1.6397
10734TIP3    H253618   5.763   5.729   6.124 -1.9580  1.9536  1.7774
10735TIP3   OH253619   4.701   1.409  14.071 -0.1218  0.4894 -0.3778
10735TIP3    H153620   4.688   1.347  14.144  0.5458  1.2947  0.4325
10735TIP3    H253621   4.614   1.419  14.033  0.0563 -2.3972 -1.7260
10736TIP3   OH253622   6.429   1.658   2.333  0.1918 -0.2890 -0.0681
10736TIP3    H153623   6.432   1.697   2.421 -1.0830 -0.8073  0.2028
10736TIP3    H253624   6.336   1.650   2.313  0.4705 -1.4595 -0.9060
10737TIP3   OH253625   4.682   0.775  11.323  0.4259 -0.0734  0.0170
10737TIP3    H153626   4.606   0.777  11.381 -1.4013 -0.5057 -2.2962
10737TIP3    H253627   4.681   0.687  11.286  0.4733  0.7652 -2.0546
10738TIP3   OH253628   2.053   0.699  16.962 -0.2903  0.0114 -0.0662
10738TIP3    H153629   2.086   0.712  17.051  0.6167  0.6049 -0.4828
10738TIP3    H253630   2.062   0.785  16.921 -1.5927 -0.0273 -0.4500
10739TIP3   OH253631   1.485   2.712  14.536 -0.3582 -0.0024  0.6368
10739TIP3    H153632   1.538   2.754  14.469 -0.0329 -0.9317  0.3085
10739TIP3    H253633   1.453   2.631  14.495 -2.2586  0.6764  0.7366
10740TIP3   OH253634   4.973   5.037  13.192  0.2438 -0.3773 -0.1975
10740TIP3    H153635   4.944   4.949  13.215 -2.4242  0.3092 -0.6962
10740TIP3    H253636   5.002   5.075  13.275  0.7599 -1.4698  0.1342
10741TIP3   OH253637   5.979   3.228  16.784 -0.0599 -0.2377 -0.1948
10741TIP3    H153638   6.021   3.165  16.725  0.1730  2.0485 -2.5305
10741TIP3    H253639   5.887   3.227  16.758 -0.0306  0.4733 -0.3431
10742TIP3   OH253640   5.254   4.287   4.433  0.2349 -0.1158 -0.0249
10742TIP3    H153641   5.277   4.379   4.426 -0.6085  0.1084  0.0956
10742TIP3    H253642   5.336   4.243   4.452  0.7110  0.5615 -0.5122
10743TIP3   OH253643   6.237   1.155  11.264  0.0898 -0.5075 -0.0222
10743TIP3    H153644   6.182   1.154  11.343 -2.4259  2.3405 -1.6416
10743TIP3    H253645   6.182   1.116  11.196  0.8565  0.3655 -1.1623
10744TIP3   OH253646   3.991   4.186  13.725 -0.0811  0.4295  0.1131
10744TIP3    H153647   3.939   4.194  13.645  0.2103  0.1631 -0.1078
10744TIP3    H253648   3.956   4.253  13.784 -0.9536 -0.0181  0.1257
10745TIP3   OH253649   4.905   0.153  15.222 -0.0487  0.1796  0.1689
10745TIP3    H153650   4.943   0.070  15.251 -1.0823 -0.2367  0.3417
10745TIP3    H253651   4.826   0.128  15.175 -0.1325  1.0508 -0.1654
10746TIP3   OH253652   3.089   2.977   3.751  0.1423 -0.7483  0.3951
10746TIP3    H153653   3.022   3.009   3.812  0.6670  0.3875  0.3917
10746TIP3    H253654   3.050   2.991   3.664  1.5476  2.7987  0.2411
10747TIP3   OH253655   1.555   1.090   1.884  0.1475  0.1693 -0.3659
10747TIP3    H153656   1.582   1.145   1.958  0.7336 -0.2147 -0.2946
10747TIP3    H253657   1.617   1.112   1.814 -0.2349  0.3286 -0.6570
10748TIP3   OH253658   5.810   3.369  14.644 -0.8562 -0.2473 -0.7712
10748TIP3    H153659   5.875   3.350  14.712  0.2246  0.0450 -1.6995
10748TIP3    H253660   5.764   3.286  14.631 -0.3726 -0.5767 -0.4095
10749TIP3   OH253661   2.215   1.227   3.315 -0.2170 -0.1975  0.5745
10749TIP3    H153662   2.156   1.162   3.278 -0.9630  1.0361 -0.4377
10749TIP3    H253663   2.273   1.251   3.243  0.2386  0.0659  1.0186
10750TIP3   OH253664   0.551   5.734   6.128 -0.0146  0.4598 -0.0897
10750TIP3    H153665   0.493   5.797   6.086 -2.6497 -0.9299  1.3729
10750TIP3    H253666   0.638   5.772   6.119 -1.4893  4.0992  0.4038
10751TIP3   OH253667   6.259   5.508  15.538 -0.8033 -0.3056  0.0998
10751TIP3    H153668   6.302   5.434  15.582 -1.5671 -1.1941 -0.6409
10751TIP3    H253669   6.249   5.574  15.607  0.4761 -0.6348  0.6062
10752TIP3   OH253670   5.624   1.175  11.296  0.1368 -0.3613 -0.0052
10752TIP3    H153671   5.552   1.223  11.255  0.5931  1.1292  0.8778
10752TIP3    H253672   5.586   1.140  11.377  0.3491  0.3022  0.3887
10753TIP3   OH253673   1.414   4.796  15.202  0.2183 -0.6283 -0.4092
10753TIP3    H153674   1.469   4.717  15.205 -0.5870 -1.2563 -1.9914
10753TIP3    H253675   1.336   4.770  15.153  0.9508  1.7874 -2.9604
10754TIP3   OH253676   4.731   0.122   5.089  0.0519  0.5184  0.2444
10754TIP3    H153677   4.780   0.115   5.007  1.2825  1.1520  0.9068
10754TIP3    H253678   4.642   0.145   5.062 -0.0632 -1.2764 -1.0119
10755TIP3   OH253679   1.432   1.270   3.910 -0.0903  0.0421 -0.0469
10755TIP3    H153680   1.440   1.365   3.914 -0.6639  0.0604  0.5062
10755TIP3    H253681   1.394   1.253   3.823  0.1973  0.2997 -0.2260
10756TIP3   OH253682   4.255   6.127   4.402 -0.3853  0.2791  0.5417
10756TIP3    H153683   4.311   6.096   4.473 -0.3732  1.1391  0.9196
10756TIP3    H253684   4.172   6.083   4.415  0.1556 -0.9155  0.0506
10757TIP3   OH253685   4.849   2.908  16.916 -0.4965 -0.0290 -0.2881
10757TIP3    H153686   4.812   2.826  16.948 -0.7363 -0.5337 -1.7839
10757TIP3    H253687   4.844   2.900  16.820 -0.4162  1.6772 -0.4470
10758TIP3   OH253688   4.069   5.982   1.532  0.2154 -1.1258  0.1319
10758TIP3    H153689   4.116   6.061   1.557 -0.7388 -0.1647 -1.0192
10758TIP3    H253690   4.011   5.964   1.606  1.3437 -1.4830  0.9331
10759TIP3   OH253691   1.988   1.505   0.203  0.0358  0.0800  0.3810
10759TIP3    H153692   1.951   1.586   0.167 -0.3904 -0.2332  0.1163
10759TIP3    H253693   2.055   1.480   0.140  1.3695  1.1672  1.3462
10760TIP3   OH253694   0.460   3.160  17.035  1.1688  0.4915 -0.2148
10760TIP3    H153695   0.397   3.144  17.106  0.5311 -1.0964 -1.1081
10760TIP3    H253696   0.415   3.130  16.957  2.3426  1.0970 -1.1277
10761TIP3   OH253697   2.927   3.367   2.404  0.1820 -0.3426  0.2713
10761TIP3    H153698   2.853   3.344   2.460  0.8383 -1.7255  0.5883
10761TIP3    H253699   2.931   3.463   2.407 -0.2750 -0.3698  1.9499
10762TIP3   OH253700   6.504   0.868  16.179 -0.2893  0.3438  0.4005
10762TIP3    H153701   6.429   0.872  16.239 -2.6605  0.9643 -2.4799
10762TIP3    H253702   6.501   0.951  16.132  2.0501  0.2234 -0.0163
10763TIP3   OH253703   0.643   1.127  14.835 -0.4816  0.0328 -0.3105
10763TIP3    H153704   0.728   1.100  14.869 -0.6147  0.9434  0.7700
10763TIP3    H253705   0.642   1.222  14.843 -0.9263  0.1950 -1.9449
10764TIP3   OH253706   4.717   3.158   2.225 -0.6352  0.6240 -0.0830
10764TIP3    H153707   4.737   3.226   2.288  0.4700  1.5452 -1.3862
10764TIP3    H253708   4.631   3.125   2.250 -0.3680  1.2301  1.6447
10765TIP3   OH253709   0.085   6.194   2.853 -0.1874 -0.2281  0.3043
10765TIP3    H153710   0.085   6.112   2.803  1.9281 -0.5915  0.8317
10765TIP3    H253711   0.171   6.232   2.836 -0.2296  0.6698  2.0170
10766TIP3   OH253712   6.180   2.714   3.403  0.3076 -0.0725  0.0675
10766TIP3    H153713   6.123   2.696   3.329 -1.0878  0.8275  0.8809
10766TIP3    H253714   6.266   2.684   3.376  0.0356  1.1845 -2.3238
10767TIP3   OH253715   2.304   1.973   0.836 -0.4866 -0.3113  0.4560
10767TIP3    H153716   2.362   1.909   0.876 -0.0300 -1.2804 -1.6410
10767TIP3    H253717   2.251   1.921   0.774  0.8169  1.4842 -2.2814
10768TIP3   OH253718   0.841   3.196  16.296  0.1456  0.1693 -0.0128
10768TIP3    H153719   0.923   3.243  16.303 -0.7360  1.6770  0.3800
10768TIP3    H253720   0.810   3.189  16.387 -0.9940  1.1373 -0.3146
10769TIP3   OH253721   4.976   6.231   4.011 -0.4122 -0.7824 -0.4131
10769TIP3    H153722   5.054   6.238   4.066  0.3102 -0.7983 -1.4295
10769TIP3    H253723   4.913   6.292   4.050 -0.3579 -1.7167  1.1750
10770TIP3   OH253724   1.017   1.738   3.658 -0.1560  0.7341  0.4487
10770TIP3    H153725   0.937   1.786   3.679 -0.1709 -0.2390  2.7267
10770TIP3    H253726   0.992   1.646   3.664  1.0097  0.4315  0.6664
10771TIP3   OH253727   3.557   2.801   1.059  0.1550 -0.1935  0.0018
10771TIP3    H153728   3.593   2.829   0.975  0.2165  0.6566  0.3066
10771TIP3    H253729   3.501   2.874   1.087 -2.3330 -1.7129 -0.7619
10772TIP3   OH253730   0.548   3.891   0.561  0.1711  0.2523 -0.1019
10772TIP3    H153731   0.564   3.926   0.648  1.7199  4.3702 -1.9182
10772TIP3    H253732   0.635   3.879   0.523 -0.4619 -2.1011 -0.8886
10773TIP3   OH253733   5.576   2.364   3.338  0.2025 -0.0440 -0.0392
10773TIP3    H153734   5.491   2.409   3.335  0.5673  0.5841 -1.1262
10773TIP3    H253735   5.637   2.431   3.369  0.3572 -0.4102  0.4524
10774TIP3   OH253736   1.027   4.088  16.196  0.0186 -0.2226 -0.1183
10774TIP3    H153737   0.990   4.075  16.283  1.0059  0.8791  0.4763
10774TIP3    H253738   1.009   4.006  16.149 -0.9124 -0.6439  0.9682
10775TIP3   OH253739   6.438   3.372  13.476  0.0732  0.2962  0.5175
10775TIP3    H153740   6.350   3.403  13.451 -0.3736 -1.1340  0.2911
10775TIP3    H253741   6.424   3.326  13.559  0.6683  0.3581  0.6481
10776TIP3   OH253742   0.416   3.469   3.141 -0.2358 -0.3575 -0.6905
10776TIP3    H153743   0.462   3.477   3.058  0.9230 -3.2544 -0.3787
10776TIP3    H253744   0.328   3.502   3.123  0.1845 -0.3664 -2.8904
10777TIP3   OH253745   6.288   1.290   6.512 -0.8160  0.3774  0.6672
10777TIP3    H153746   6.271   1.210   6.462  1.6891 -0.9480  1.8786
10777TIP3    H253747   6.377   1.280   6.545  0.0414  4.2252 -0.1989
10778TIP3   OH253748   2.902   1.206  12.615 -0.1884  0.0868 -0.1799
10778TIP3    H153749   2.846   1.136  12.648  1.5148 -1.3768 -0.3442
10778TIP3    H253750   2.868   1.225  12.528 -0.9759 -0.1647  0.0652
10779TIP3   OH253751   4.773   0.354  17.161  0.0693  0.9667 -0.4697
10779TIP3    H153752   4.763   0.276  17.107  0.5052  0.5142  0.0989
10779TIP3    H253753   4.861   0.348  17.197 -0.3232  1.0948  0.5454
10780TIP3   OH253754   1.726   1.676   0.410 -0.2350  0.5763  0.4039
10780TIP3    H153755   1.658   1.707   0.351 -0.3636 -1.5909 -0.5960
10780TIP3    H253756   1.706   1.584   0.425  2.5753 -0.1731 -0.0811
10781TIP3   OH253757   6.436   1.179   0.315  0.5632 -0.4701  0.4293
10781TIP3    H153758   6.417   1.231   0.393 -0.7250 -0.7550  0.3197
10781TIP3    H253759   6.372   1.107   0.318 -0.4313  0.2813 -1.6138
10782TIP3   OH253760   1.182   2.408   2.064 -0.3798 -0.2651  0.0297
10782TIP3    H153761   1.088   2.419   2.050 -0.2702  0.8725  0.1817
10782TIP3    H253762   1.223   2.463   1.997  0.1667  0.9434  1.3563
10783TIP3   OH253763   0.470   4.049   5.429  0.5229 -0.0991 -0.5230
10783TIP3    H153764   0.528   4.103   5.376  2.8690 -0.7779  1.2586
10783TIP3    H253765   0.471   4.090   5.515 -1.3324 -0.3859 -0.3376
10784TIP3   OH253766   3.199   6.035   4.756 -0.1997  0.4784  0.8001
10784TIP3    H153767   3.204   5.952   4.708 -0.5582  1.6812 -1.3370
10784TIP3    H253768   3.253   6.020   4.834 -0.6546 -1.9253  0.6877
10785TIP3   OH253769   3.650   5.633  12.429 -0.7012 -0.1417  0.6153
10785TIP3    H153770   3.583   5.569  12.453  0.6687 -1.4764  0.9675
10785TIP3    H253771   3.681   5.604  12.342 -1.2562  1.0314  0.0171
10786TIP3   OH253772   1.703   5.098   2.648 -0.1316 -0.4393  0.0982
10786TIP3    H153773   1.730   5.018   2.604 -0.1406 -0.1512 -0.4469
10786TIP3    H253774   1.785   5.140   2.674 -0.1630 -1.2201  1.4768
10787TIP3   OH253775   2.407   0.614   5.893 -0.0445 -0.6623  0.1515
10787TIP3    H153776   2.371   0.527   5.913  1.5895 -1.4398 -0.1671
10787TIP3    H253777   2.409   0.617   5.797 -0.2661 -0.1931  0.1614
10788TIP3   OH253778   3.849   4.228   3.775  1.0080  0.5212 -0.2506
10788TIP3    H153779   3.839   4.255   3.684 -1.2834 -0.7680 -0.4317
10788TIP3    H253780   3.760   4.227   3.810  1.6691 -0.6937  1.5004
10789TIP3   OH253781   4.358   2.016  16.071 -0.1292 -0.8158 -0.0986
10789TIP3    H153782   4.341   1.940  16.015  1.2013 -1.2101  0.0115
10789TIP3    H253783   4.274   2.060  16.078 -0.4011 -0.9769 -2.0866
10790TIP3   OH253784   3.612   5.086   3.575 -0.3022  0.2107 -0.2092
10790TIP3    H153785   3.668   5.024   3.527 -2.8428 -0.9184 -1.8049
10790TIP3    H253786   3.576   5.143   3.507 -0.6597  1.3021  0.8811
10791TIP3   OH253787   2.847   6.535  12.721  0.2848 -0.2763 -0.0936
10791TIP3    H153788   2.866   6.596  12.793 -1.3580 -0.5547  0.6073
10791TIP3    H253789   2.932   6.503  12.693  1.1008  1.5539  0.2289
10792TIP3   OH253790   5.767   6.455  16.915 -0.0061  0.2997  0.0314
10792TIP3    H153791   5.761   6.371  16.870  0.8191  0.4535 -0.3763
10792TIP3    H253792   5.745   6.435  17.006 -0.5803 -0.2113 -0.2145
10793TIP3   OH253793   5.758   3.756   5.119  0.1579 -0.6054  0.3713
10793TIP3    H153794   5.720   3.826   5.067 -1.0434 -1.2491  0.3762
10793TIP3    H253795   5.772   3.796   5.206 -0.6871 -0.4226  0.4253
10794TIP3   OH253796   0.101   6.699  11.390 -0.5429 -0.5348  0.0874
10794TIP3    H153797   0.044   6.675  11.463 -0.8738  1.1666  0.4044
10794TIP3    H253798   0.130   6.788  11.410  0.2084 -0.4434 -1.3323
10795TIP3   OH253799   6.325   3.326  13.871 -0.1114  0.0755 -0.0082
10795TIP3    H153800   6.314   3.275  13.790  0.4479 -1.7916  1.0416
10795TIP3    H253801   6.305   3.264  13.941  2.5924  0.6869  1.3985
10796TIP3   OH253802   3.440   2.129   4.315  0.2168 -0.4288  0.8833
10796TIP3    H153803   3.490   2.198   4.360  0.0613  0.2916 -0.0273
10796TIP3    H253804   3.455   2.050   4.367 -0.9363  0.6412  2.9235
10797TIP3   OH253805   1.022   4.231   2.846  0.3303  0.4451 -0.0365
10797TIP3    H153806   0.931   4.205   2.861  0.3060  0.7705  0.4074
10797TIP3    H253807   1.049   4.271   2.929  0.8574  0.4069 -0.1891
10798TIP3   OH253808   1.041   3.635  11.790 -0.0207 -0.1160 -0.3754
10798TIP3    H153809   1.030   3.641  11.695 -1.0800 -0.5662 -0.2968
10798TIP3    H253810   0.951   3.635  11.824  0.3362 -0.4353  0.5891
10799TIP3   OH253811   6.122   3.643  15.276  0.2888  0.4068 -0.4506
10799TIP3    H153812   6.084   3.569  15.323  0.6653 -0.3542 -1.3208
10799TIP3    H253813   6.046   3.693  15.246 -0.0098 -0.2841 -0.8833
10800TIP3   OH253814   2.909   3.395  15.568  0.2337 -0.4932 -0.1375
10800TIP3    H153815   2.840   3.388  15.503 -0.7161  0.7698  0.7252
10800TIP3    H253816   2.926   3.304  15.594  0.4522 -0.9816 -1.9438
10801TIP3   OH253817   1.876   3.124  16.422  0.0893 -0.0238  0.6734
10801TIP3    H153818   1.921   3.201  16.388 -0.0713  0.1797  0.9136
10801TIP3    H253819   1.867   3.066  16.347 -1.0345  0.7914  0.1586
10802TIP3   OH253820   3.537   5.094  14.242 -0.3075  0.8845 -0.0676
10802TIP3    H153821   3.614   5.098  14.187 -1.9099  1.3894 -2.3390
10802TIP3    H253822   3.528   5.182  14.279 -0.7438  1.2989 -1.1477
10803TIP3   OH253823   0.743   2.210   0.650 -0.1514  0.3498 -0.4480
10803TIP3    H153824   0.676   2.248   0.706  0.3810  0.4124  0.1639
10803TIP3    H253825   0.817   2.270   0.658  0.4356 -0.4118 -0.0588
10804TIP3   OH253826   6.039   1.901  13.721  0.2397 -0.3698  0.6574
10804TIP3    H153827   5.961   1.954  13.741  0.7977  0.7501 -0.0723
10804TIP3    H253828   6.097   1.915  13.796 -0.0908 -0.9037  1.0217
10805TIP3   OH253829   6.573   1.999   2.243  0.7753 -0.1419 -0.0673
10805TIP3    H153830   6.570   2.085   2.201  1.6109  0.5385  1.2157
10805TIP3    H253831   6.568   1.937   2.170 -0.3432  0.9752 -0.9762
10806TIP3   OH253832   6.039   0.643  13.490 -0.3183  0.0207  0.2871
10806TIP3    H153833   6.066   0.592  13.413 -2.0927 -2.0307  0.9671
10806TIP3    H253834   6.103   0.714  13.496  1.2154 -1.1549 -1.7062
10807TIP3   OH253835   5.842   2.828   1.140  0.0747 -0.5518  0.2345
10807TIP3    H153836   5.871   2.874   1.219  0.3355 -0.2329 -0.0449
10807TIP3    H253837   5.795   2.751   1.173 -0.6925  0.1058  0.7096
10808TIP3   OH253838   0.457   3.492   0.924  0.2298  0.2116  0.1841
10808TIP3    H153839   0.395   3.435   0.971  1.8191 -1.6314  0.1105
10808TIP3    H253840   0.406   3.569   0.900 -2.0963 -1.3694 -0.0687
10809TIP3   OH253841   4.179   3.280  12.849  0.0513 -0.3237  0.0498
10809TIP3    H153842   4.224   3.197  12.865 -0.1525 -0.8111 -1.6981
10809TIP3    H253843   4.086   3.257  12.849  0.0467 -0.5046 -2.2690
10810TIP3   OH253844   4.658   3.721  16.566 -0.3015 -0.1987 -0.7115
10810TIP3    H153845   4.599   3.797  16.569  0.0455  0.0013  1.4821
10810TIP3    H253846   4.736   3.753  16.522  0.0951  0.9216  0.7703
10811TIP3   OH253847   5.874   5.343  17.209  0.3064 -0.0212  0.4344
10811TIP3    H153848   5.858   5.424  17.162  1.6755 -0.0862 -0.1632
10811TIP3    H253849   5.884   5.369  17.301 -0.0232  0.3801  0.3574
10812TIP3   OH253850   5.478   4.431   4.889 -0.1785 -0.7289  0.3100
10812TIP3    H153851   5.386   4.454   4.899  0.1156  0.6471  0.0414
10812TIP3    H253852   5.501   4.465   4.802  0.8170 -0.2215  0.7648
10813TIP3   OH253853   3.754   6.714  11.867  0.5302  0.5491 -0.4122
10813TIP3    H153854   3.752   6.790  11.808 -2.2601 -0.7431 -2.0548
10813TIP3    H253855   3.792   6.644  11.814  2.0480  0.4758  0.7483
10814TIP3   OH253856   2.386   2.794  10.723  0.1733 -0.4173 -0.1697
10814TIP3    H153857   2.396   2.846  10.643 -1.8734 -0.7182 -0.6400
10814TIP3    H253858   2.476   2.780  10.753  0.8202  2.4002 -0.6494
10815TIP3   OH253859   2.028   3.736   2.283  0.2673  0.4560  0.0566
10815TIP3    H153860   2.045   3.818   2.330  0.9797 -0.7090  1.8958
10815TIP3    H253861   2.015   3.763   2.192 -1.8780  2.8544  1.0068
10816TIP3   OH253862   1.714   1.064  14.616 -0.3146 -0.4707 -0.6904
10816TIP3    H153863   1.705   1.047  14.710  0.5789 -1.4156 -0.7743
10816TIP3    H253864   1.641   1.123  14.596 -0.9977 -0.9118  0.4265
10817TIP3   OH253865   6.160   6.514   4.385 -0.0957  0.4822 -0.2413
10817TIP3    H153866   6.164   6.485   4.476 -1.1867 -0.0222 -0.3523
10817TIP3    H253867   6.249   6.544   4.366  1.1108 -2.8144 -0.1234
10818TIP3   OH253868   2.792   2.664  12.613  0.4274  0.8232  0.0629
10818TIP3    H153869   2.724   2.665  12.681  0.6081  1.3807  0.2380
10818TIP3    H253870   2.750   2.707  12.538 -0.6127 -1.9442 -1.0057
10819TIP3   OH253871   4.843   4.443  14.539 -0.4934  0.3801 -0.4106
10819TIP3    H153872   4.931   4.413  14.561  0.0152  1.8971 -0.3228
10819TIP3    H253873   4.856   4.515  14.477 -1.6826  0.4825 -0.5670
10820TIP3   OH253874   5.415   3.404   2.212  0.0984  0.5080 -0.4577
10820TIP3    H153875   5.425   3.377   2.304 -0.5614  0.8492 -0.2789
10820TIP3    H253876   5.322   3.391   2.194  0.2245  0.4761 -1.0699
10821TIP3   OH253877   2.886   3.750  15.663  0.6780  0.2519  0.2596
10821TIP3    H153878   2.923   3.837  15.680  1.9690 -0.3831  0.7192
10821TIP3    H253879   2.801   3.768  15.623  0.2891  1.7417  1.7223
10822TIP3   OH253880   1.903   1.028  15.599 -0.3587 -0.2356 -0.1318
10822TIP3    H153881   1.862   1.106  15.561 -1.5087 -1.8277 -2.2202
10822TIP3    H253882   1.935   1.058  15.685 -3.6679  1.6742  0.5120
10823TIP3   OH253883   3.625   5.504  16.815  0.1488  0.4702  0.3173
10823TIP3    H153884   3.713   5.513  16.778  0.0872 -1.2547 -0.2638
10823TIP3    H253885   3.570   5.558  16.758  0.2660 -1.1611 -1.4024
10824TIP3   OH253886   2.889   3.218  11.258 -0.2133  0.3633  0.0419
10824TIP3    H153887   2.864   3.163  11.333 -1.2377  1.2578  0.3702
10824TIP3    H253888   2.971   3.179  11.227 -0.5892 -0.9798  0.6490
10825TIP3   OH253889   4.295   1.776   1.277 -0.8734 -0.2222  0.1297
10825TIP3    H153890   4.296   1.767   1.182  3.6215 -0.3556  0.0554
10825TIP3    H253891   4.312   1.687   1.309 -1.8715 -0.0901  1.0446
10826TIP3   OH253892   0.394   5.693  12.147  0.0509 -0.5605  0.6172
10826TIP3    H153893   0.390   5.749  12.069 -1.5169 -0.7029  0.5716
10826TIP3    H253894   0.313   5.713  12.194  0.6267 -1.0388  1.8223
10827TIP3   OH253895   4.937   3.037  15.947 -0.3334 -0.6223  0.1321
10827TIP3    H153896   4.942   3.024  15.852  1.5163  1.0640 -0.0340
10827TIP3    H253897   5.016   2.997  15.981 -0.2911  0.0391  0.8183
10828TIP3   OH253898   3.588   5.359  14.011  1.0079  0.2090  0.0053
10828TIP3    H153899   3.542   5.398  13.936 -0.8579 -0.5946  0.7097
10828TIP3    H253900   3.536   5.385  14.087  1.7597 -0.6780  0.8366
10829TIP3   OH253901   6.287   3.837  14.540  0.1436  0.5007 -0.1618
10829TIP3    H153902   6.352   3.804  14.478  0.8013  1.3001  0.0965
10829TIP3    H253903   6.205   3.838  14.491  0.4480  0.1022 -0.6847
10830TIP3   OH253904   4.569   4.817   6.864 -0.1627  0.2475  0.2408
10830TIP3    H153905   4.521   4.813   6.781 -1.7978 -0.2947  1.2008
10830TIP3    H253906   4.658   4.840   6.838 -0.5151 -0.4704 -1.7202
10831TIP3   OH253907   2.247   5.618   4.923  0.3163  0.5873 -0.6442
10831TIP3    H153908   2.318   5.558   4.901  1.4260  1.8394 -0.5399
10831TIP3    H253909   2.167   5.565   4.914  1.3389 -1.2752  0.7385
10832TIP3   OH253910   6.376   6.657  14.439  0.1995  0.1998  0.0239
10832TIP3    H153911   6.460   6.639  14.397  0.0390 -0.5130  0.0029
10832TIP3    H253912   6.312   6.653  14.368 -0.1632 -1.7302  0.4493
10833TIP3   OH253913   2.863   0.906  14.027  0.2633 -0.1895 -0.5020
10833TIP3    H153914   2.942   0.950  14.058 -0.9488  1.2233  0.6297
10833TIP3    H253915   2.861   0.824  14.075 -1.9616  2.2596  3.8195
10834TIP3   OH253916   0.055   2.497   4.102  0.0822 -0.0545  0.2067
10834TIP3    H153917   0.098   2.412   4.101 -2.0505 -1.1708  0.7259
10834TIP3    H253918  -0.033   2.480   4.068  0.3296  2.3456 -1.8228
10835TIP3   OH253919   5.615   0.774   0.566 -0.2907 -0.3769 -0.3130
10835TIP3    H153920   5.711   0.777   0.571 -0.3172 -1.4267  1.5615
10835TIP3    H253921   5.588   0.866   0.565  0.6125 -0.0069  3.2222
10836TIP3   OH253922   2.973   5.654  15.740 -0.3651 -0.4838 -0.3770
10836TIP3    H153923   3.032   5.676  15.668  0.5527  1.6512  0.9847
10836TIP3    H253924   3.029   5.608  15.803 -1.2971 -2.8762 -1.2463
10837TIP3   OH253925   4.665   2.234  15.577  0.4840  0.2176 -0.3858
10837TIP3    H153926   4.704   2.321  15.565 -0.2117  0.8628  1.9131
10837TIP3    H253927   4.740   2.177  15.591  0.8891  0.5845 -0.9843
10838TIP3   OH253928   4.799   5.561  16.193 -0.9414 -0.0866 -0.3119
10838TIP3    H153929   4.839   5.613  16.123  0.6452 -0.4938  0.2720
10838TIP3    H253930   4.841   5.591  16.273 -2.8714  0.4860  0.4977
10839TIP3   OH253931   3.483   3.554  13.782  0.2875 -0.2584 -0.3180
10839TIP3    H153932   3.473   3.484  13.716 -0.3661 -1.3564  0.9279
10839TIP3    H253933   3.550   3.521  13.841 -1.0436 -0.4758  1.0941
10840TIP3   OH253934   6.664   2.334   1.116  0.2413 -0.0871  0.9077
10840TIP3    H153935   6.722   2.371   1.050  1.1800 -0.6559  1.3942
10840TIP3    H253936   6.601   2.282   1.066  1.5407 -1.3195  0.4964
10841TIP3   OH253937   1.553   2.509  12.363  1.1089 -0.2195 -0.4451
10841TIP3    H153938   1.587   2.528  12.276 -0.5782 -0.7091 -1.2373
10841TIP3    H253939   1.466   2.471  12.347  0.2544  0.8267  1.4976
10842TIP3   OH253940   0.432   2.216  13.174  0.2736 -0.5362  0.3612
10842TIP3    H153941   0.503   2.194  13.234  1.0605  1.5688  0.2484
10842TIP3    H253942   0.434   2.147  13.108  1.1130 -1.4213  1.3015
10843TIP3   OH253943   4.638   3.022  13.584  0.1776  0.3283  0.6451
10843TIP3    H153944   4.564   3.054  13.636 -0.8122 -0.2594 -0.3981
10843TIP3    H253945   4.655   3.093  13.521 -2.2946 -1.2915 -1.9557
10844TIP3   OH253946   2.186   1.549   3.473 -0.1038 -0.4507 -0.4786
10844TIP3    H153947   2.163   1.635   3.438  2.2501  0.9584  1.3053
10844TIP3    H253948   2.112   1.525   3.529  0.0283  1.2813  0.4733
10845TIP3   OH253949   4.735   3.067  10.743 -0.2583  0.0101 -0.1030
10845TIP3    H153950   4.789   3.002  10.699  0.6122  0.4619  0.2936
10845TIP3    H253951   4.655   3.072  10.689 -0.3733 -1.4273 -0.0865
10846TIP3   OH253952   2.706   3.194   4.225  0.2082  0.4683  0.0426
10846TIP3    H153953   2.657   3.135   4.168  2.1126 -0.4945 -0.6408
10846TIP3    H253954   2.739   3.138   4.295 -0.5117  1.2941  1.0573
10847TIP3   OH253955   4.951   1.159   4.174  0.2680 -0.2746  0.2775
10847TIP3    H153956   4.930   1.166   4.080 -0.4840  1.8490  0.5728
10847TIP3    H253957   5.030   1.213   4.185 -0.3528  0.4907  1.0628
10848TIP3   OH253958   2.390   3.646   3.016  0.4568 -0.8160  0.0788
10848TIP3    H153959   2.459   3.644   3.083 -0.7636 -0.0561  1.3992
10848TIP3    H253960   2.325   3.583   3.047  0.4215 -1.3286 -1.0211
10849TIP3   OH253961   1.103   6.764  16.395  0.1891 -0.0437  0.6273
10849TIP3    H153962   1.176   6.825  16.387  0.1652  0.1038  1.4671
10849TIP3    H253963   1.133   6.698  16.458 -1.2831  1.3843  2.9165
10850TIP3   OH253964   3.110   3.397   0.736  0.1616  0.1470  0.6106
10850TIP3    H153965   3.118   3.450   0.656 -2.9437  0.0801  0.2131
10850TIP3    H253966   3.061   3.320   0.709  1.4054 -1.1805  2.0407
10851TIP3   OH253967   3.821   5.620   0.213 -0.3246 -0.0042  0.0120
10851TIP3    H153968   3.811   5.713   0.196 -0.6870 -0.0897 -0.2567
10851TIP3    H253969   3.731   5.589   0.229 -0.3988 -0.6274 -1.5877
10852TIP3   OH253970   2.340   0.351   2.360 -0.1664 -0.3698 -0.9764
10852TIP3    H153971   2.270   0.306   2.407 -0.4796  0.5728 -0.5297
10852TIP3    H253972   2.419   0.330   2.410 -0.0531 -1.8006 -1.7369
10853TIP3   OH253973   6.547   4.123  11.478 -0.3864 -0.5241 -0.9382
10853TIP3    H153974   6.502   4.042  11.505 -0.8459  0.0256 -0.0227
10853TIP3    H253975   6.516   4.139  11.389  1.0849 -2.3257 -1.8183
10854TIP3   OH253976   2.125   4.712  13.425 -0.0347 -0.0209 -0.3525
10854TIP3    H153977   2.049   4.737  13.478 -0.2109 -0.7070 -0.2742
10854TIP3    H253978   2.161   4.795  13.393 -1.2114  0.2685 -0.9423
10855TIP3   OH253979   0.316   6.068  12.628 -0.1369 -0.1362 -0.0003
10855TIP3    H153980   0.309   6.058  12.533  2.6995  1.6493 -0.4585
10855TIP3    H253981   0.401   6.029  12.650 -0.1788  0.6171  1.6137
10856TIP3   OH253982   1.664   0.437   0.927 -0.7887  0.3205  0.0982
10856TIP3    H153983   1.722   0.404   0.995 -2.1664 -1.4226  0.4485
10856TIP3    H253984   1.719   0.441   0.849  0.6296  1.7374  1.1424
10857TIP3   OH253985   4.670   5.405  12.039 -0.4852  0.2809  0.3669
10857TIP3    H153986   4.642   5.327  12.087 -1.3813 -0.1875 -0.8657
10857TIP3    H253987   4.720   5.370  11.965 -0.4816  0.8991  0.0749
10858TIP3   OH253988   3.843   0.099  12.735 -0.2321  0.2658 -0.2582
10858TIP3    H153989   3.826   0.191  12.757  0.3728  0.8628 -2.1681
10858TIP3    H253990   3.935   0.098  12.707 -0.5667 -0.6996 -1.3605
10859TIP3   OH253991   4.255   3.673  12.508 -0.1667  0.2208 -0.2228
10859TIP3    H153992   4.275   3.709  12.595  0.0520 -1.9205  0.6244
10859TIP3    H253993   4.176   3.622  12.521 -0.9146  1.0015 -1.6029
10860TIP3   OH253994   1.183   6.778   5.257  0.0686  0.1038 -0.2540
10860TIP3    H153995   1.212   6.752   5.170 -1.4614  0.8675 -1.0150
10860TIP3    H253996   1.090   6.755   5.260 -0.4833  2.2601  0.2848
10861TIP3   OH253997   3.087   0.683   0.622 -0.5344 -0.4915 -0.6928
10861TIP3    H153998   3.040   0.600   0.629 -0.0933 -0.8867 -2.2359
10861TIP3    H253999   3.146   0.671   0.548 -0.9356  1.4336 -1.3571
10862TIP3   OH254000   1.454   3.532  13.472 -0.1727  0.3783 -0.0483
10862TIP3    H154001   1.516   3.550  13.401 -0.2451  0.6344 -0.0466
10862TIP3    H254002   1.371   3.565  13.440 -0.7828 -1.9014 -0.9419
10863TIP3   OH254003   5.496   2.769  14.739 -0.4182  0.0740  0.6125
10863TIP3    H154004   5.523   2.744  14.827 -1.3745 -0.0727  0.8716
10863TIP3    H254005   5.469   2.686  14.698  0.9443 -0.0017 -0.1503
10864TIP3   OH254006   1.472   2.009   5.253  0.3382 -0.0322 -0.0851
10864TIP3    H154007   1.447   1.928   5.298 -0.1606 -0.5672 -1.3028
10864TIP3    H254008   1.564   1.997   5.230  0.9666  0.7902  1.9485
10865TIP3   OH254009   1.967   2.382   2.142 -0.7327 -1.2150 -0.3169
10865TIP3    H154010   1.999   2.323   2.209  1.0198 -0.3751 -0.3933
10865TIP3    H254011   2.038   2.444   2.128 -2.0705  0.1994 -1.0833
10866TIP3   OH254012   3.873   4.166  13.465  0.2133 -0.6075  0.7127
10866TIP3    H154013   3.895   4.221  13.390  2.4848 -1.3423  0.7853
10866TIP3    H254014   3.778   4.159  13.463  0.1437  0.5482 -1.2605
10867TIP3   OH254015   2.741   0.632   5.659 -0.1852 -0.5276  0.0804
10867TIP3    H154016   2.748   0.610   5.566  0.8834 -1.6936  0.4210
10867TIP3    H254017   2.728   0.547   5.702  1.3244 -0.2180  1.1683
10868TIP3   OH254018   0.738   2.784   4.076 -0.1981  1.5748  0.5884
10868TIP3    H154019   0.728   2.689   4.072 -0.2721  1.6187 -0.5677
10868TIP3    H254020   0.755   2.803   4.168 -1.0147  0.5258  0.9691
10869TIP3   OH254021   0.074   6.226  16.157  0.7884  0.3695 -0.4450
10869TIP3    H154022   0.137   6.154  16.151  1.5719  0.9425  0.6517
10869TIP3    H254023   0.121   6.302  16.121 -0.1568  0.2627 -1.9235
10870TIP3   OH254024   5.860   0.552   1.793  0.3898 -0.3050  0.5581
10870TIP3    H154025   5.770   0.528   1.812  0.1053  0.1349 -0.2358
10870TIP3    H254026   5.872   0.529   1.701  0.5181  1.4079  0.1447
10871TIP3   OH254027   3.245   4.295   3.957  0.3752 -0.3739 -0.2344
10871TIP3    H154028   3.244   4.201   3.942 -1.6171 -0.6374  1.3178
10871TIP3    H254029   3.255   4.333   3.870  0.0561 -1.9966 -1.0045
10872TIP3   OH254030   6.643   0.777  11.463  0.3942 -0.3796 -0.0762
10872TIP3    H154031   6.629   0.769  11.369  0.0511  0.5475 -0.1156
10872TIP3    H254032   6.702   0.706  11.485  0.8211 -0.3423 -1.0714
10873TIP3   OH254033   5.980   4.738  13.046 -0.4954  0.4567 -0.3513
10873TIP3    H154034   6.022   4.817  13.012 -0.3657  0.5989  0.1256
10873TIP3    H254035   6.023   4.666  13.002  0.2724  0.5998  0.1659
10874TIP3   OH254036   6.641   1.419   5.764 -0.6646 -0.1476  0.2631
10874TIP3    H154037   6.641   1.362   5.840  0.5106  1.8944  1.8495
10874TIP3    H254038   6.712   1.481   5.779 -0.2236  0.1394 -2.6415
10875TIP3   OH254039   2.328   1.461  11.119  0.5055  0.5551  0.4116
10875TIP3    H154040   2.274   1.495  11.048  2.1024  2.8092  0.2392
10875TIP3    H254041   2.369   1.382  11.083 -0.0715  0.6960 -0.5674
10876TIP3   OH254042   3.071   3.818  15.859 -0.0850  0.1167  0.8018
10876TIP3    H154043   3.127   3.878  15.810  0.4137  0.4529  1.7690
10876TIP3    H254044   3.031   3.872  15.927 -0.4138 -0.4387  1.0564
10877TIP3   OH254045   4.721   1.879  16.221  0.3142 -0.2310 -0.2818
10877TIP3    H154046   4.772   1.947  16.178  1.2894 -1.6224 -1.3743
10877TIP3    H254047   4.760   1.872  16.309  1.0537 -0.2833 -0.6151
10878TIP3   OH254048   4.561   4.443   3.648 -0.3524  0.6234 -0.5198
10878TIP3    H154049   4.573   4.348   3.646 -0.5941  0.5711  0.5199
10878TIP3    H254050   4.646   4.478   3.620  0.7771  0.1567  2.1751
10879TIP3   OH254051   1.343   0.120  16.449  0.2740  0.0249  0.4307
10879TIP3    H154052   1.406   0.171  16.397  0.2521  0.7564  1.1158
10879TIP3    H254053   1.308   0.183  16.513 -1.3483 -0.3109 -0.1106
10880TIP3   OH254054   5.076   6.043  12.820 -0.3287  0.4528 -0.7385
10880TIP3    H154055   5.002   6.088  12.781 -0.7051  0.7011  0.2437
10880TIP3    H254056   5.077   5.957  12.779  0.2686  1.2696 -2.4718
10881TIP3   OH254057   3.962   0.859   1.530 -0.1500  0.2203 -0.4082
10881TIP3    H154058   3.985   0.779   1.578 -2.1951 -0.1973 -0.1044
10881TIP3    H254059   3.871   0.846   1.504 -1.2549  3.3957  1.6156
10882TIP3   OH254060   1.869   5.330  13.375 -0.1712  0.0209  0.4186
10882TIP3    H154061   1.820   5.343  13.293  0.3432  3.8610  0.6520
10882TIP3    H254062   1.806   5.291  13.435 -2.4180  2.9725  0.0681
10883TIP3   OH254063   2.633   1.139   1.523  0.5404 -0.1960 -0.4597
10883TIP3    H154064   2.586   1.154   1.605 -0.8019  3.2098 -1.7742
10883TIP3    H254065   2.586   1.067   1.481 -0.9933  0.4198  0.1531
10884TIP3   OH254066   5.495   3.281  11.407  0.3024  0.5833 -0.2805
10884TIP3    H154067   5.533   3.358  11.364  1.0210  0.9649  1.0105
10884TIP3    H254068   5.429   3.318  11.466  0.4027  0.1836  0.0823
10885TIP3   OH254069   2.654   4.619   0.138 -0.5003  0.4375 -0.0217
10885TIP3    H154070   2.722   4.640   0.203 -0.8165  0.4493  0.3035
10885TIP3    H254071   2.704   4.587   0.063 -0.0327  2.1195 -0.4453
10886TIP3   OH254072   0.285   2.289  16.402  0.0866 -0.0272  0.2795
10886TIP3    H154073   0.341   2.304  16.326  0.1110  1.6297  0.6011
10886TIP3    H254074   0.228   2.366  16.405 -1.7834 -1.3795  0.3374
10887TIP3   OH254075   1.805   4.619   3.981  0.3016 -0.5027  0.3264
10887TIP3    H154076   1.860   4.545   3.955  0.3038 -0.4052  0.0536
10887TIP3    H254077   1.756   4.587   4.057 -1.8244 -1.7737 -1.4874
10888TIP3   OH254078   5.215   0.354  15.099  0.2275  0.4729 -0.4385
10888TIP3    H154079   5.131   0.338  15.141  0.3039  1.4264  0.0940
10888TIP3    H254080   5.264   0.273  15.111 -0.1236  0.3806  0.4190
10889TIP3   OH254081   6.282   4.696  16.907  0.2978 -0.4724  0.2493
10889TIP3    H154082   6.316   4.767  16.961  1.4091  0.6019 -1.7996
10889TIP3    H254083   6.308   4.616  16.952 -1.3671  0.3925  2.8349
10890TIP3   OH254084   5.575   2.649  12.189 -0.6137  0.6227  0.0756
10890TIP3    H154085   5.589   2.564  12.232  0.0698  0.1166 -1.1110
10890TIP3    H254086   5.524   2.628  12.112  1.0206  1.0409 -1.1492
10891TIP3   OH254087   0.784   3.572   1.108 -0.5205  0.0930  0.0185
10891TIP3    H154088   0.775   3.529   1.194  0.2447  0.1438  0.1329
10891TIP3    H254089   0.858   3.526   1.067 -0.5098  0.4621 -0.3738
10892TIP3   OH254090   2.504   0.621  16.214  0.2684  0.1714  0.4000
10892TIP3    H154091   2.588   0.577  16.206 -0.0427 -0.3166 -0.1885
10892TIP3    H254092   2.455   0.595  16.136  0.2552  1.9184 -0.1973
10893TIP3   OH254093   2.484   1.849   6.558  0.7329 -0.1444  0.4081
10893TIP3    H154094   2.402   1.831   6.604  0.9129 -0.9242  0.4370
10893TIP3    H254095   2.552   1.838   6.624  1.0122 -1.5448 -0.0831
10894TIP3   OH254096   2.278   0.058  11.219  0.3841 -0.3561  0.7864
10894TIP3    H154097   2.258   0.106  11.139  0.8280  1.1524  1.5667
10894TIP3    H254098   2.193   0.031  11.253 -0.0483  1.8184  1.5090
10895TIP3   OH254099   3.542   0.599  16.526 -0.0986  0.3401  0.4605
10895TIP3    H154100   3.581   0.520  16.489  0.9785  0.2194  1.7749
10895TIP3    H254101   3.490   0.637  16.455  0.2921 -0.9384 -0.5241
10896TIP3   OH254102   6.077   0.942   0.007 -0.0141 -0.2517  0.0417
10896TIP3    H154103   6.034   0.931  -0.078 -0.9677 -0.6291  0.5536
10896TIP3    H254104   6.156   0.991  -0.012  1.0681 -2.4749 -1.4314
10897TIP3   OH254105   1.091   4.632  12.480  0.1552 -0.9824 -0.1311
10897TIP3    H154106   1.096   4.691  12.405  1.5702 -1.4321 -0.4121
10897TIP3    H254107   1.047   4.683  12.548  1.2004  0.3419 -0.4317
10898TIP3   OH254108   5.749   5.630   1.254  0.2138  0.0271 -0.2931
10898TIP3    H154109   5.666   5.618   1.209 -0.1195 -0.8826  0.5487
10898TIP3    H254110   5.727   5.684   1.330  0.2599 -0.7725  0.2974
10899TIP3   OH254111   1.691   2.971   0.998  0.5127  0.5890 -0.3345
10899TIP3    H154112   1.638   2.946   0.923 -0.6674  0.1887  0.6023
10899TIP3    H254113   1.772   2.921   0.989  0.5336  0.8232 -1.5195
10900TIP3   OH254114   6.148   2.080   0.528 -0.0098 -0.0085 -0.4847
10900TIP3    H154115   6.210   2.010   0.548 -2.0907 -1.6191  0.5273
10900TIP3    H254116   6.172   2.110   0.441  1.2229 -1.6569 -0.7195
10901TIP3   OH254117   0.694   1.720  17.191 -0.2725  0.5549 -0.1188
10901TIP3    H154118   0.724   1.757  17.109  0.0887  0.1914 -0.1536
10901TIP3    H254119   0.659   1.794  17.240  1.0554  1.0626  0.0876
10902TIP3   OH254120   0.951   5.956   3.974  0.0803  0.1981 -0.4981
10902TIP3    H154121   0.960   5.998   4.059  0.1081  0.2066 -0.5054
10902TIP3    H254122   0.869   5.991   3.938 -1.6301 -2.2438  0.8932
10903TIP3   OH254123   4.168   5.966   2.610 -0.1813  0.5643  0.3368
10903TIP3    H154124   4.089   5.945   2.660 -0.4484  1.9066  0.4948
10903TIP3    H254125   4.140   5.958   2.518 -0.8179  2.1178  0.3814
10904TIP3   OH254126   5.736   0.038  11.727 -0.1746 -0.3882  0.3329
10904TIP3    H154127   5.725   0.132  11.745 -0.0476 -0.2252 -0.4140
10904TIP3    H254128   5.647   0.007  11.708 -0.1851 -0.3726  0.3577
10905TIP3   OH254129   0.106   0.988   0.725 -0.4172  0.0767  0.2457
10905TIP3    H154130   0.166   1.025   0.790  0.0849  2.3533 -1.4620
10905TIP3    H254131   0.092   1.059   0.662 -1.6897 -1.7582 -1.5942
10906TIP3   OH254132   5.517   3.576   1.368 -0.6489 -0.3637  0.2095
10906TIP3    H154133   5.541   3.488   1.338 -0.4214 -0.2868  0.1627
10906TIP3    H254134   5.559   3.635   1.305 -1.9963 -0.2510 -0.6159
10907TIP3   OH254135   5.697   4.537   3.002  0.5778  0.2516  0.2394
10907TIP3    H154136   5.766   4.471   3.015 -0.0154 -0.1828  1.2647
10907TIP3    H254137   5.615   4.488   3.013  0.1355  1.2234  1.3732
10908TIP3   OH254138   1.567   3.234  14.387 -0.6300  0.4561  0.1782
10908TIP3    H154139   1.559   3.153  14.338  1.1137  0.5917 -0.3541
10908TIP3    H254140   1.583   3.301  14.321 -0.0463  0.9102  0.7678
10909TIP3   OH254141   1.848   0.309  17.030  0.1833  0.2032  0.4797
10909TIP3    H154142   1.884   0.243  16.971  0.5405  0.1352  0.7723
10909TIP3    H254143   1.753   0.303  17.018  0.1246 -1.3657  1.5865
10910TIP3   OH254144   1.918   5.404  13.842  0.2202 -0.2082  0.4204
10910TIP3    H154145   1.833   5.408  13.800  0.6826  0.9036 -0.4373
10910TIP3    H254146   1.980   5.392  13.770  0.9048  0.4833  0.8815
10911TIP3   OH254147   6.601   4.345  15.674  0.3438 -0.1578  0.2480
10911TIP3    H154148   6.575   4.253  15.676  0.5891 -0.2807 -1.5003
10911TIP3    H254149   6.613   4.365  15.581  1.9034  1.1900  0.7039
10912TIP3   OH254150   5.825   1.081   4.112 -0.6257 -0.3221 -0.5732
10912TIP3    H154151   5.734   1.101   4.094 -0.5244  1.4964  0.7732
10912TIP3    H254152   5.857   1.157   4.160  2.0957 -0.1389 -2.5863
10913TIP3   OH254153   1.720   5.861   3.429  0.1462  0.1674 -0.6680
10913TIP3    H154154   1.747   5.793   3.491 -1.5804  0.4796  0.4484
10913TIP3    H254155   1.765   5.941   3.460 -3.4960  1.1473  2.4002
10914TIP3   OH254156   4.627   1.626   5.574 -0.1699 -0.1141 -0.5566
10914TIP3    H154157   4.543   1.594   5.608  0.8485 -1.3764  0.8063
10914TIP3    H254158   4.638   1.579   5.491 -0.3874 -0.6139 -0.3055
10915TIP3   OH254159   6.123   0.780  16.793  0.5891 -0.1583 -0.1113
10915TIP3    H154160   6.217   0.765  16.788  0.4785 -1.4238  1.0604
10915TIP3    H254161   6.098   0.805  16.704  1.9836 -0.0853 -0.4979
10916TIP3   OH254162   6.100   5.546  13.561  0.0163  0.0876  0.2219
10916TIP3    H154163   6.149   5.517  13.638  0.0264 -0.0758  0.1540
10916TIP3    H254164   6.146   5.505  13.487 -1.5483 -1.8909  0.3121
10917TIP3   OH254165   5.611   2.790   3.141  0.5535  0.3878  0.2925
10917TIP3    H154166   5.698   2.796   3.180  1.1843  0.7614 -1.1604
10917TIP3    H254167   5.615   2.847   3.064 -0.3894 -1.0625 -0.8514
10918TIP3   OH254168   0.584   2.099  12.609 -0.1683  0.4488  0.0317
10918TIP3    H154169   0.518   2.043  12.569  1.2494 -0.6726 -0.8079
10918TIP3    H254170   0.642   2.123  12.537  0.3669  1.3651  0.7630
10919TIP3   OH254171   4.004   4.517   3.729 -0.0210  0.2068  0.0248
10919TIP3    H154172   4.098   4.537   3.728 -0.3602  1.8045 -0.2363
10919TIP3    H254173   3.987   4.476   3.644  0.4019  0.0048  0.0322
10920TIP3   OH254174   2.410   2.418  14.896  0.6441  0.1630  1.0228
10920TIP3    H154175   2.411   2.448  14.987  1.1283 -0.4914  1.2343
10920TIP3    H254176   2.408   2.498  14.844  0.6236  0.5428  1.6057
10921TIP3   OH254177   5.962   6.771   2.327 -0.4285 -0.0533 -0.3040
10921TIP3    H154178   6.029   6.828   2.290 -0.0683 -0.2049  0.1208
10921TIP3    H254179   6.010   6.705   2.377 -0.8373 -0.8205 -0.9095
10922TIP3   OH254180   1.774   4.493  17.050 -0.4170  0.2043  0.3594
10922TIP3    H154181   1.740   4.450  16.971 -0.6737 -0.0404  0.6050
10922TIP3    H254182   1.862   4.522  17.025 -0.9923  1.3164 -0.4497
10923TIP3   OH254183   6.727   0.035   3.849 -0.6596  0.1542  0.5042
10923TIP3    H154184   6.688  -0.046   3.881 -0.4531  0.4360  1.4888
10923TIP3    H254185   6.807   0.007   3.806 -1.5815 -0.3561 -0.8999
10924TIP3   OH254186   1.846   5.884  16.771  0.4189  0.1284  0.3677
10924TIP3    H154187   1.905   5.834  16.827 -0.0211  1.1231  1.7584
10924TIP3    H254188   1.902   5.946  16.726  0.4888  0.9715  1.5743
10925TIP3   OH254189   4.157   3.079   0.407 -0.0124  0.1344  0.1094
10925TIP3    H154190   4.145   3.098   0.500 -1.5453  1.0220 -0.2412
10925TIP3    H254191   4.126   3.158   0.362 -1.3995 -1.1108 -1.2123
10926TIP3   OH254192   5.607   2.184  14.530 -0.5733 -0.0675  0.3859
10926TIP3    H154193   5.635   2.275  14.531 -0.5763 -0.0736  0.9517
10926TIP3    H254194   5.661   2.141  14.597  0.7773 -0.8752 -1.1845
10927TIP3   OH254195   2.243   6.228   0.562 -0.1107  0.5393 -0.3726
10927TIP3    H154196   2.315   6.194   0.509 -1.2960  0.3283 -1.8755
10927TIP3    H254197   2.233   6.164   0.633 -0.2561 -0.6036 -1.4060
10928TIP3   OH254198   4.743   1.798   5.767  0.2007 -1.0296 -0.7927
10928TIP3    H154199   4.732   1.750   5.849 -2.0355  0.1939 -0.3303
10928TIP3    H254200   4.726   1.734   5.698 -0.6969 -1.4156 -0.2194
10929TIP3   OH254201   5.267   2.030   0.845  0.0583 -0.3214 -0.2088
10929TIP3    H154202   5.359   2.034   0.821 -0.1527 -1.3301 -1.2425
10929TIP3    H254203   5.222   2.078   0.775 -0.1189  1.0422  0.8225
10930TIP3   OH254204   1.000   2.990  14.661  0.5202  0.0587 -0.4108
10930TIP3    H154205   0.953   3.069  14.635  0.0287 -0.4031 -0.9424
10930TIP3    H254206   0.967   2.970  14.748 -1.4478 -1.1529 -1.4079
10931TIP3   OH254207   1.465   3.705   0.855 -0.0017  0.1122 -0.3380
10931TIP3    H154208   1.551   3.722   0.894  0.9913  1.7167 -3.0944
10931TIP3    H254209   1.478   3.627   0.801 -0.0198  0.8774 -1.4661
10932TIP3   OH254210   4.369   6.738  11.499  0.0247  0.2636  0.2577
10932TIP3    H154211   4.321   6.672  11.549  0.8996 -0.0551  0.7032
10932TIP3    H254212   4.452   6.696  11.477 -0.2374  0.4968 -1.2531
10933TIP3   OH254213   0.907   6.717   1.451  0.0828  0.3992  0.3267
10933TIP3    H154214   0.881   6.805   1.423 -0.5155  0.4820  1.1445
10933TIP3    H254215   0.969   6.732   1.523  1.5918  0.1827 -0.8882
10934TIP3   OH254216   3.109   4.887   6.447  0.9940 -0.3767  0.0309
10934TIP3    H154217   3.046   4.842   6.503 -0.6520  0.5958 -0.9970
10934TIP3    H254218   3.192   4.843   6.464  0.3948 -0.5626  2.6998
10935TIP3   OH254219   0.059   0.866  15.347 -0.2263  0.0957 -0.0479
10935TIP3    H154220   0.028   0.899  15.431 -1.2925  1.3764 -0.9199
10935TIP3    H254221   0.058   0.771  15.357  1.1706  0.2507  1.9051
10936TIP3   OH254222   3.632   5.952   2.876  0.4081  0.3763 -0.1984
10936TIP3    H154223   3.567   6.022   2.880  0.8551  0.7055  1.3293
10936TIP3    H254224   3.707   5.986   2.924  1.6068 -0.1351 -1.6664
10937TIP3   OH254225   6.047   3.739   1.785 -0.0079  0.0630  0.0512
10937TIP3    H154226   6.082   3.788   1.859 -0.2393  0.6610 -0.2343
10937TIP3    H254227   6.119   3.736   1.722  1.1768 -2.9176  1.4507
10938TIP3   OH254228   4.784   0.761  14.093  0.1891  0.1427  0.1808
10938TIP3    H154229   4.856   0.698  14.100 -2.3009 -2.7584  0.6918
10938TIP3    H254230   4.748   0.746  14.005 -0.4587  0.8537  0.3178
10939TIP3   OH254231   0.193   0.638   2.640  0.1037 -0.8506  0.0595
10939TIP3    H154232   0.256   0.700   2.603 -1.3806  0.5366 -0.1840
10939TIP3    H254233   0.207   0.558   2.589  1.1223 -0.3243 -0.5161
10940TIP3   OH254234   5.101   3.953  14.271 -0.3838 -0.2117  0.0532
10940TIP3    H154235   5.035   4.001  14.321  1.5696  1.0170  1.5203
10940TIP3    H254236   5.158   3.914  14.338 -0.6600 -2.8058 -1.1573
10941TIP3   OH254237   3.984   5.842  11.010 -0.5417 -0.3427  0.4424
10941TIP3    H154238   4.073   5.877  11.020 -0.3299 -0.8943  0.5015
10941TIP3    H254239   3.935   5.881  11.082 -0.4945  0.4324  0.0581
10942TIP3   OH254240   1.787   3.011  16.179 -0.1196  0.5280  0.2884
10942TIP3    H154241   1.714   3.057  16.138 -0.1755  0.8317  0.7276
10942TIP3    H254242   1.783   2.922  16.143 -0.8360  0.4812  0.4799
10943TIP3   OH254243   3.699   0.193  14.710  0.2492  0.0278 -0.2682
10943TIP3    H154244   3.793   0.188  14.695  0.6368  2.1505  1.2766
10943TIP3    H254245   3.680   0.286  14.712 -1.4081 -0.3139  2.3026
10944TIP3   OH254246   1.871   6.414   0.543 -0.2878 -0.1410 -0.2107
10944TIP3    H154247   1.964   6.428   0.527 -0.6943  3.4134  0.0133
10944TIP3    H254248   1.838   6.376   0.461  0.8798  1.2696 -1.3786
10945TIP3   OH254249   5.049   6.092  16.567 -0.6945  0.3393  0.0857
10945TIP3    H154250   5.018   6.001  16.568 -0.6533  0.3222  1.7714
10945TIP3    H254251   5.066   6.111  16.475 -3.2831 -0.4800 -0.5977
10946TIP3   OH254252   5.682   0.272  11.846 -0.1908  0.1702 -0.2493
10946TIP3    H154253   5.648   0.361  11.837 -1.2884 -0.2258 -0.1161
10946TIP3    H254254   5.617   0.227  11.900  0.6976 -0.5350  0.2550
10947TIP3   OH254255   0.429   0.594  10.362  0.3089  0.0192 -1.1864
10947TIP3    H154256   0.351   0.544  10.386  1.3586 -0.2857  1.7523
10947TIP3    H254257   0.430   0.668  10.422  0.5884  1.7849 -3.2992
10948TIP3   OH254258   5.012   0.319  16.828 -0.1966  1.1697  0.8973
10948TIP3    H154259   5.070   0.321  16.904 -1.4593  0.3452  1.9111
10948TIP3    H254260   4.956   0.396  16.840 -1.2539  0.3282  1.5215
10949TIP3   OH254261   0.068   0.887   5.356  0.3735 -0.1301 -0.1657
10949TIP3    H154262  -0.020   0.918   5.334  0.7968  0.3913 -1.2124
10949TIP3    H254263   0.055   0.799   5.389 -0.6596  0.3799  0.8186
10950TIP3   OH254264   3.390   5.962   5.185  0.6037 -0.1549 -0.7193
10950TIP3    H154265   3.432   5.990   5.103  0.2333  2.1207 -0.1461
10950TIP3    H254266   3.331   5.891   5.158 -1.7731  2.5319 -2.9757
10951TIP3   OH254267   4.643   6.088   6.775 -0.4255  0.1668 -0.7366
10951TIP3    H154268   4.556   6.117   6.800 -0.6249 -0.6894 -0.4053
10951TIP3    H254269   4.632   6.051   6.687 -0.4443 -0.1094 -0.6213
10952TIP3   OH254270   0.776   5.372  15.994 -0.2088 -0.1023  0.1994
10952TIP3    H154271   0.786   5.436  15.923  2.1879 -0.5833  0.0385
10952TIP3    H254272   0.701   5.403  16.044  0.8524  2.8082  0.0877
10953TIP3   OH254273   4.492   4.237   5.627  0.1273  0.3882 -0.2690
10953TIP3    H154274   4.537   4.321   5.633  1.1058 -0.1772  0.5901
10953TIP3    H254275   4.423   4.251   5.562 -0.1143  2.0140  0.3105
10954TIP3   OH254276   2.684   4.075  11.182  0.1819  0.5868 -0.0206
10954TIP3    H154277   2.713   4.145  11.123  2.7320 -1.0726 -0.8169
10954TIP3    H254278   2.657   4.004  11.125 -0.4183  0.1368  0.8098
10955TIP3   OH254279   6.386   5.328   2.233 -0.1896 -0.1711  0.4846
10955TIP3    H154280   6.432   5.411   2.222 -0.3299 -0.2223 -0.5603
10955TIP3    H254281   6.355   5.330   2.324 -0.9192  1.2935  0.2273
10956TIP3   OH254282   2.459   5.727   1.039  0.6341  0.1108 -0.4424
10956TIP3    H154283   2.525   5.679   0.989 -1.0575  0.1667 -2.7734
10956TIP3    H254284   2.488   5.818   1.036  0.7385  0.0586 -0.9866
10957TIP3   OH254285   4.964   0.382   4.732 -0.1095 -0.2965  0.3094
10957TIP3    H154286   4.878   0.416   4.708 -0.3923  0.1999  1.9254
10957TIP3    H254287   5.011   0.375   4.649 -0.7749  2.0267 -0.3092
10958TIP3   OH254288   1.831   5.687   3.612  0.3316 -0.0849  0.3983
10958TIP3    H154289   1.836   5.594   3.588  1.3520  0.3170 -0.9945
10958TIP3    H254290   1.838   5.687   3.707 -0.8638 -1.5185  0.5051
10959TIP3   OH254291   4.493   1.046   2.202 -0.2887  0.1093 -0.2240
10959TIP3    H154292   4.500   1.116   2.267 -0.5381 -1.2494  1.3226
10959TIP3    H254293   4.421   1.073   2.145 -0.6959  0.8770  0.6386
10960TIP3   OH254294   2.822   3.431   4.227 -0.4366  0.2861 -0.0468
10960TIP3    H154295   2.750   3.479   4.185 -0.6518 -1.2306 -1.4595
10960TIP3    H254296   2.800   3.339   4.215  1.8501 -0.2058 -0.7018
10961TIP3   OH254297   6.483   0.026   0.136  0.3252  0.2423 -0.7679
10961TIP3    H154298   6.431   0.101   0.162  0.2535  0.6153 -1.9763
10961TIP3    H254299   6.420  -0.045   0.124  0.1741  0.5054 -1.5330
10962TIP3   OH254300   1.235   5.009  15.041 -0.1896 -0.5166  0.5041
10962TIP3    H154301   1.300   4.980  14.977 -0.5014  0.2537 -0.1646
10962TIP3    H254302   1.162   4.948  15.030  0.0384 -0.8152  0.6213
10963TIP3   OH254303   3.423   2.233  14.597 -0.4972 -0.3094 -0.0096
10963TIP3    H154304   3.465   2.285  14.666 -1.1672 -0.6620  0.6722
10963TIP3    H254305   3.495   2.203  14.542 -0.2029  2.8056 -1.4752
10964TIP3   OH254306   0.876   2.844   4.960  0.1098  0.2140 -0.1042
10964TIP3    H154307   0.913   2.782   5.023  1.6773  1.3942  0.1658
10964TIP3    H254308   0.814   2.792   4.909  0.4712 -1.2743  0.9410
10965TIP3   OH254309   1.604   4.926  12.487  0.0912 -0.4124 -0.2244
10965TIP3    H154310   1.560   4.984  12.425  1.6168  0.2751 -0.6752
10965TIP3    H254311   1.554   4.844  12.483 -0.5428  0.0287 -1.4451
10966TIP3   OH254312   6.118   0.754  16.288  0.4822 -0.4834 -0.2794
10966TIP3    H154313   6.160   0.670  16.269 -1.9345 -1.4892 -1.3604
10966TIP3    H254314   6.108   0.796  16.203  0.2912  0.2440  0.0956
10967TIP3   OH254315   4.116   2.130  14.727  0.2746  0.0962 -1.0315
10967TIP3    H154316   4.171   2.067  14.773 -0.0912 -1.4637 -2.6613
10967TIP3    H254317   4.037   2.137  14.781  0.1785 -1.1122 -1.0004
10968TIP3   OH254318   3.979   6.711  12.041 -0.5930 -0.2097 -0.2114
10968TIP3    H154319   3.912   6.766  12.000 -1.7374 -0.0925  1.7459
10968TIP3    H254320   3.931   6.636  12.075  0.3364 -0.3364  0.8509
10969TIP3   OH254321   3.400   3.869  14.679 -0.6972 -0.3508  0.2464
10969TIP3    H154322   3.401   3.962  14.657 -0.7995 -0.7465 -1.5881
10969TIP3    H254323   3.315   3.855  14.721 -0.6978  0.3706  0.4897
10970TIP3   OH254324   4.700   1.852   1.832 -0.3151 -0.4719  0.2701
10970TIP3    H154325   4.749   1.831   1.752 -2.5432 -1.4570 -0.8676
10970TIP3    H254326   4.711   1.775   1.888 -0.8669 -0.8614 -0.1482
10971TIP3   OH254327   1.329   5.401   1.238 -0.1348 -0.3936  0.0041
10971TIP3    H154328   1.408   5.347   1.240  0.2392  0.1508 -0.0120
10971TIP3    H254329   1.355   5.481   1.192 -0.1261  0.6734  1.8274
10972TIP3   OH254330   4.082   1.815   0.771  0.0916 -0.0628  0.0179
10972TIP3    H154331   3.999   1.861   0.780 -0.2773 -0.6739 -0.2807
10972TIP3    H254332   4.087   1.792   0.678  0.3860 -0.4117  0.1186
10973TIP3   OH254333   3.978   5.740  16.216  0.6452 -0.0389  0.3145
10973TIP3    H154334   4.070   5.728  16.191  0.3475  0.8716 -1.2744
10973TIP3    H254335   3.931   5.671  16.170  0.4512 -0.0777  0.5705
10974TIP3   OH254336   0.237   3.146  17.188  0.1981 -0.2986 -0.2198
10974TIP3    H154337   0.262   3.217  17.248  0.2287  0.2336 -0.8465
10974TIP3    H254338   0.187   3.190  17.119  1.5835 -0.6200 -1.4718
10975TIP3   OH254339   5.809   5.475  15.523 -0.2045 -0.0330  0.3592
10975TIP3    H154340   5.759   5.405  15.481  0.0389 -0.8405  1.3839
10975TIP3    H254341   5.822   5.445  15.613  2.1015  0.1550  0.1296
10976TIP3   OH254342   1.620   3.809  11.894  0.0006  0.4697  0.2700
10976TIP3    H154343   1.592   3.874  11.959 -1.9752 -0.3756  0.2856
10976TIP3    H254344   1.690   3.760  11.938  0.0372  1.2019  1.0401
10977TIP3   OH254345   5.694   0.341  14.727 -0.7237 -0.2623 -0.6194
10977TIP3    H154346   5.600   0.346  14.742 -0.8672 -1.1241 -1.1667
10977TIP3    H254347   5.720   0.257  14.765 -0.4129 -0.6434 -1.6665
10978TIP3   OH254348   4.633   0.749  14.450  0.2692 -0.4163 -0.3825
10978TIP3    H154349   4.562   0.754  14.514  1.0570  0.9650  0.4119
10978TIP3    H254350   4.680   0.832  14.460  1.3702 -0.8712 -1.6272
10979TIP3   OH254351   4.059   5.883   5.762 -0.6418 -0.0087  0.9173
10979TIP3    H154352   3.973   5.853   5.731 -1.0424  1.2999  0.7115
10979TIP3    H254353   4.086   5.817   5.825 -1.4683 -0.8263  0.4326
10980TIP3   OH254354   4.895   1.933   2.743 -0.5466 -0.2372  0.3639
10980TIP3    H154355   4.842   2.008   2.715 -0.0524 -0.3585 -0.9016
10980TIP3    H254356   4.889   1.871   2.671  0.2596 -0.8007  0.7788
10981TIP3   OH254357   3.676   6.618  12.745  0.0061  0.6314  0.7115
10981TIP3    H154358   3.707   6.627  12.835 -1.4557  0.1244  1.2792
10981TIP3    H254359   3.732   6.551  12.707 -0.6564 -0.6146  1.8673
10982TIP3   OH254360   1.589   1.756  12.286  0.0096  0.7823  0.1169
10982TIP3    H154361   1.537   1.678  12.306 -0.4216  1.0814  0.1675
10982TIP3    H254362   1.593   1.804  12.369  2.5142 -0.4883  0.7752
10983TIP3   OH254363   4.640   5.872   2.669 -0.0255 -0.1715 -0.0761
10983TIP3    H154364   4.662   5.780   2.657  0.4630 -0.1228  0.4050
10983TIP3    H254365   4.546   5.873   2.687 -0.1653 -0.5105 -0.7473
10984TIP3   OH254366   3.360   0.215   5.527  0.4688  0.1938 -0.3730
10984TIP3    H154367   3.420   0.157   5.574 -0.9522 -0.3402  0.8282
10984TIP3    H254368   3.316   0.265   5.596 -1.5724 -0.5237 -1.0949
10985TIP3   OH254369   6.628   5.978   4.771 -0.1674 -0.5295  0.4880
10985TIP3    H154370   6.594   6.063   4.744  0.7407 -0.7535 -1.4890
10985TIP3    H254371   6.691   5.998   4.841 -0.0749  0.4093  0.1427
10986TIP3   OH254372   0.115   5.871  14.722  0.3500  0.2393 -0.2090
10986TIP3    H154373   0.071   5.874  14.638 -0.6621  2.3845  0.3636
10986TIP3    H254374   0.072   5.800  14.770  2.2898 -2.3642 -2.1822
10987TIP3   OH254375   3.605   4.073   0.191 -0.8290  0.3890  0.2934
10987TIP3    H154376   3.692   4.059   0.228 -0.7553 -0.2984 -0.1120
10987TIP3    H254377   3.556   3.995   0.217 -1.7994  1.5261  1.8741
10988TIP3   OH254378   2.706   3.991  13.135 -0.0687  0.2313 -0.1116
10988TIP3    H154379   2.691   4.084  13.114  2.8594  0.7513 -0.0613
10988TIP3    H254380   2.778   3.992  13.197  1.3994 -2.1931 -1.6910
10989TIP3   OH254381   6.051   1.324   2.854  0.3670 -0.7545 -0.1721
10989TIP3    H154382   6.087   1.365   2.775  1.0956 -1.3076 -0.1266
10989TIP3    H254383   5.958   1.312   2.833  0.3632 -0.0380 -0.5859
10990TIP3   OH254384   1.748   5.008  11.949 -0.1996  0.3268  0.0126
10990TIP3    H154385   1.756   4.935  12.010 -2.2645 -1.0527 -1.2708
10990TIP3    H254386   1.742   4.966  11.863  0.2585  2.1117 -0.9259
10991TIP3   OH254387   3.917   6.266  14.531  0.1770 -0.0932 -0.6525
10991TIP3    H154388   3.960   6.187  14.564  1.2233 -0.4144 -2.7238
10991TIP3    H254389   3.881   6.308  14.609 -0.4613 -2.6460  0.4681
10992TIP3   OH254390   2.735   0.522  15.042 -0.4388 -0.1798  0.0130
10992TIP3    H154391   2.742   0.597  15.102  0.3093 -0.5531  0.4030
10992TIP3    H254392   2.728   0.446  15.099 -2.3867 -0.3168 -0.3929
10993TIP3   OH254393   2.335   6.637  13.734  0.0929  0.0700  0.4082
10993TIP3    H154394   2.425   6.636  13.766 -0.0495  3.0393  1.0638
10993TIP3    H254395   2.339   6.597  13.647  2.4302  1.9379 -0.3945
10994TIP3   OH254396   0.299   3.644   4.397  0.1064 -0.2508  0.0422
10994TIP3    H154397   0.289   3.686   4.482 -1.8350  2.1373 -1.2882
10994TIP3    H254398   0.385   3.673   4.365  0.4128 -0.3797  0.7376
10995TIP3   OH254399   3.263   4.443  11.392  0.2583 -0.3567  0.0741
10995TIP3    H154400   3.323   4.517  11.399 -0.5689  0.2070  1.2942
10995TIP3    H254401   3.214   4.459  11.311  1.0708 -0.3382 -0.4275
10996TIP3   OH254402   4.244   4.502   1.780 -0.3199  0.1842 -0.4967
10996TIP3    H154403   4.287   4.419   1.757  0.0009 -0.0046  0.7519
10996TIP3    H254404   4.179   4.477   1.845  0.4689  1.0429  0.6490
10997TIP3   OH254405   3.221   1.437   1.214 -0.0293  0.4238 -0.1229
10997TIP3    H154406   3.141   1.466   1.258 -2.6346 -1.5960 -3.2619
10997TIP3    H254407   3.237   1.503   1.146  0.9396  0.8023  0.4727
10998TIP3   OH254408   2.621   0.337  11.671 -0.1413 -0.8865  0.5227
10998TIP3    H154409   2.648   0.417  11.717  0.7422 -0.5538 -0.5546
10998TIP3    H254410   2.650   0.266  11.728  1.6309 -0.4997  0.1344
10999TIP3   OH254411   2.844   3.734   5.845  0.3157  0.2399  0.0891
10999TIP3    H154412   2.832   3.656   5.900 -0.5001  0.9624  0.9392
10999TIP3    H254413   2.871   3.803   5.906  0.0153  0.8915 -0.5074
11000TIP3   OH254414   5.809   6.619  12.984  0.5006  0.1684 -0.2188
11000TIP3    H154415   5.866   6.546  13.009  0.2864  0.2896  0.6411
11000TIP3    H254416   5.856   6.697  13.012  0.5382  0.3385 -0.7576
11001TIP3   OH254417   5.858   1.549  14.941 -0.6404 -0.4174 -0.5824
11001TIP3    H154418   5.868   1.534  14.847  1.8594  1.5024 -0.6661
11001TIP3    H254419   5.814   1.634  14.947 -0.9273 -0.6046 -0.0181
11002TIP3   OH254420   2.934   2.701  13.108  0.2449  0.0041  0.4373
11002TIP3    H154421   2.862   2.637  13.111 -0.2230  0.4280 -0.9797
11002TIP3    H254422   2.909   2.760  13.037  1.0873  1.2676  1.1827
11003TIP3   OH254423   0.955   4.107  13.144  0.1917  0.5226 -0.3392
11003TIP3    H154424   0.973   4.118  13.238  0.0848  0.2062 -0.2811
11003TIP3    H254425   0.886   4.040  13.141 -0.1391  0.8708 -0.6187
11004TIP3   OH254426   6.104   4.713   2.985  0.7291 -0.1406 -0.5512
11004TIP3    H154427   6.178   4.715   3.045  0.2849  0.3182 -0.0208
11004TIP3    H254428   6.144   4.724   2.898  1.3128 -0.2566 -0.2991
11005TIP3   OH254429   1.636   1.072   3.712 -0.0499 -0.5922 -0.6614
11005TIP3    H154430   1.573   1.136   3.679  0.3957  0.5217  0.5857
11005TIP3    H254431   1.720   1.118   3.709  0.3163 -1.2002  0.0101
11006TIP3   OH254432   2.397   3.108  12.885  0.0251 -0.3785 -0.4077
11006TIP3    H154433   2.354   3.061  12.813  1.1139  0.4138 -1.6074
11006TIP3    H254434   2.391   3.200  12.860 -0.7148  0.0073  1.1582
11007TIP3   OH254435   0.422   0.631   4.455 -0.1894 -0.4739  0.0067
11007TIP3    H154436   0.464   0.694   4.396  1.5814  0.2177  1.9553
11007TIP3    H254437   0.332   0.663   4.463 -0.2948 -0.2355 -1.8095
11008TIP3   OH254438   0.403   4.560   5.387  1.0594  0.3149 -0.1190
11008TIP3    H154439   0.470   4.629   5.382  1.4361  0.0882  1.3218
11008TIP3    H254440   0.431   4.506   5.461 -1.2639  0.7937  1.1564
11009TIP3   OH254441   0.027   3.917  15.169 -0.0456  0.2568  0.1035
11009TIP3    H154442   0.063   3.900  15.082  0.4707  0.4146  0.2824
11009TIP3    H254443  -0.043   3.981  15.155  0.8716  1.2360 -0.0482
11010TIP3   OH254444   5.762   2.138   1.049  0.0093 -0.0594 -0.0777
11010TIP3    H154445   5.745   2.232   1.056 -0.1384 -0.1843  1.3667
11010TIP3    H254446   5.677   2.099   1.029  0.1520  0.1588 -1.1105
11011TIP3   OH254447   1.162   1.321  13.407  0.2030  0.0001 -0.5298
11011TIP3    H154448   1.106   1.398  13.419 -0.1537  0.2164 -3.1559
11011TIP3    H254449   1.241   1.340  13.457 -1.8208 -0.0810  2.8286
11012TIP3   OH254450   2.636   5.220  15.458 -0.1593 -0.0128  0.1431
11012TIP3    H154451   2.662   5.239  15.368 -0.3100  0.8747  0.2829
11012TIP3    H254452   2.683   5.140  15.480 -0.1558 -0.2655 -0.7411
11013TIP3   OH254453   1.957   5.875  11.795 -0.3743 -0.1258 -0.0116
11013TIP3    H154454   1.965   5.781  11.781 -0.8882 -0.0524 -0.8326
11013TIP3    H254455   1.896   5.904  11.727 -1.8919  0.4679  1.5558
11014TIP3   OH254456   3.718   6.058   0.641 -0.0798 -0.1568  0.3716
11014TIP3    H154457   3.658   6.109   0.695 -1.3729 -0.3426 -0.8586
11014TIP3    H254458   3.749   5.988   0.698  0.3235  0.9544  1.5374
11015TIP3   OH254459   0.537   0.625  12.428 -0.1444  0.3825  0.5210
11015TIP3    H154460   0.585   0.598  12.506 -0.6192 -0.0020  0.6796
11015TIP3    H254461   0.521   0.719  12.440  3.1142  1.1889 -0.8586
11016TIP3   OH254462   2.126   2.249  15.312 -0.7002  0.6833 -0.1279
11016TIP3    H154463   2.069   2.234  15.388  1.1410 -3.1475  0.6686
11016TIP3    H254464   2.083   2.201  15.241 -0.1528  0.5156 -0.3461
11017TIP3   OH254465   4.654   1.157  13.386  0.3086  0.1736 -0.3840
11017TIP3    H154466   4.640   1.251  13.374 -0.4601 -0.0438 -1.2489
11017TIP3    H254467   4.748   1.145  13.373  0.2015  0.6369 -1.6546
11018TIP3   OH254468   3.126   3.068  16.457  0.1919  0.2220  0.1080
11018TIP3    H154469   3.088   3.026  16.534  0.2065  0.7840  0.4259
11018TIP3    H254470   3.127   3.000  16.390 -2.0302  0.3728 -0.1134
11019TIP3   OH254471   0.621   3.523   6.207 -0.3656 -0.1183  0.3869
11019TIP3    H154472   0.647   3.578   6.281 -1.3003  0.4553  0.2998
11019TIP3    H254473   0.532   3.494   6.229 -0.3655 -0.5465 -0.1674
11020TIP3   OH254474   4.145   0.203   0.563  0.3387 -0.9435  0.2586
11020TIP3    H154475   4.130   0.164   0.476  0.6735 -0.5393  0.0192
11020TIP3    H254476   4.058   0.230   0.592  0.2646 -0.8125 -0.0778
11021TIP3   OH254477   5.272   2.321  11.752  0.1737  0.0373  0.0289
11021TIP3    H154478   5.234   2.309  11.665  0.2555 -3.1038  0.3763
11021TIP3    H254479   5.352   2.268  11.752  0.5003  0.4588  1.8415
11022TIP3   OH254480   0.877   0.055   3.065 -0.1977  0.1063 -0.1970
11022TIP3    H154481   0.869   0.116   3.138  0.0011 -0.0844 -0.0153
11022TIP3    H254482   0.819   0.091   2.997  0.2468  0.7293 -0.2506
11023TIP3   OH254483   4.513   4.238  12.777  0.6819 -0.2226  0.1099
11023TIP3    H154484   4.533   4.166  12.716 -1.4843  0.1405 -1.0700
11023TIP3    H254485   4.540   4.317  12.730 -0.8826  0.0504 -0.3377
11024TIP3   OH254486   1.056   2.862   3.405  0.4068 -0.1089 -0.2904
11024TIP3    H154487   0.965   2.837   3.386  0.2042  0.9315 -0.7401
11024TIP3    H254488   1.048   2.936   3.465  0.9996 -1.1853  1.1316
11025TIP3   OH254489   4.068   0.605  12.380  0.0965  0.1626  0.4590
11025TIP3    H154490   4.135   0.583  12.315 -2.8832 -1.0068 -2.3296
11025TIP3    H254491   4.091   0.694  12.408  3.1782 -0.4515  0.1265
11026TIP3   OH254492   4.250   1.207   4.356  0.2194 -0.3182 -0.0366
11026TIP3    H154493   4.265   1.256   4.437 -0.0410  0.1985 -0.2992
11026TIP3    H254494   4.156   1.212   4.342  0.5976  2.1112 -1.9354
11027TIP3   OH254495   6.694   3.196   1.846 -0.0325 -0.4391 -0.3299
11027TIP3    H154496   6.677   3.230   1.758  0.3223  1.3926  0.2817
11027TIP3    H254497   6.777   3.238   1.872  1.7198 -3.6885 -0.5038
11028TIP3   OH254498   4.805   5.969  16.829 -0.1815 -0.1318  0.8094
11028TIP3    H154499   4.725   6.020  16.823  0.7740  1.3264  0.0772
11028TIP3    H254500   4.835   5.981  16.919 -1.1828 -1.3031  1.2996
11029TIP3   OH254501   0.681   6.379   0.456  0.3729 -0.1208  0.5901
11029TIP3    H154502   0.737   6.450   0.489 -1.0415  1.6316 -0.6618
11029TIP3    H254503   0.711   6.365   0.366 -0.5013  0.0904  0.2673
11030TIP3   OH254504   5.589   0.965   0.166  0.3536 -0.1494 -0.1415
11030TIP3    H154505   5.540   0.902   0.220 -0.1260 -2.0883 -2.7524
11030TIP3    H254506   5.605   0.919   0.084 -0.3798  3.3106 -2.3201
11031TIP3   OH254507   5.653   0.514   3.800  0.1237 -0.1551 -0.4163
11031TIP3    H154508   5.704   0.463   3.863 -0.1335 -0.2188 -0.2583
11031TIP3    H254509   5.663   0.605   3.829 -1.4314 -0.3367  0.7731
11032TIP3   OH254510   1.465   1.900  13.498 -0.7408  0.0667  0.0602
11032TIP3    H154511   1.491   1.808  13.498 -0.7998  0.0497 -0.2241
11032TIP3    H254512   1.544   1.947  13.527 -0.4696 -0.0055 -0.5669
11033TIP3   OH254513   6.613   1.415  11.368 -0.0956 -0.2149  0.1769
11033TIP3    H154514   6.668   1.337  11.380 -0.7566 -0.5453  1.0549
11033TIP3    H254515   6.526   1.381  11.349 -0.7946  0.2645  2.3102
11034TIP3   OH254516   4.872   2.646   3.999 -0.0954  0.1846  0.4867
11034TIP3    H154517   4.882   2.679   4.088 -4.0693  1.3725  0.5792
11034TIP3    H254518   4.848   2.723   3.947  0.4925 -0.7983 -1.2928
11035TIP3   OH254519   1.256   6.580  12.386  0.2773 -0.0860  0.5502
11035TIP3    H154520   1.253   6.506  12.446 -0.5585  1.0637  1.9489
11035TIP3    H254521   1.345   6.613  12.392 -0.1559  0.8361  2.1775
11036TIP3   OH254522   6.621   4.449   3.490  0.1766  0.1155 -0.0740
11036TIP3    H154523   6.556   4.518   3.503  1.7628  1.3138  1.6353
11036TIP3    H254524   6.681   4.484   3.424  0.4818  0.0082  0.1455
11037TIP3   OH254525   3.896   6.141  16.452  0.2249 -0.5566 -0.2151
11037TIP3    H154526   3.901   6.046  16.459 -0.9102 -0.5815  0.5239
11037TIP3    H254527   3.918   6.172  16.540  1.0259 -0.1172 -0.5689
11038TIP3   OH254528   3.953   3.797  12.073  0.0350  0.2156  0.6120
11038TIP3    H154529   3.997   3.712  12.078  2.4633  1.4050  0.4329
11038TIP3    H254530   3.911   3.808  12.158  0.0886 -0.9578  0.8012
11039TIP3   OH254531   0.132   2.757   5.515 -0.4337  0.3205  0.1029
11039TIP3    H154532   0.149   2.738   5.423 -1.0910  0.9380 -0.1502
11039TIP3    H254533   0.147   2.674   5.560  1.0179  0.2947 -0.4015
11040TIP3   OH254534   2.341   1.571  16.536 -0.0430 -0.7014 -0.5574
11040TIP3    H154535   2.388   1.628  16.597 -0.3489 -0.7984 -0.2285
11040TIP3    H254536   2.401   1.498  16.520  0.3931 -0.2230 -1.0678
11041TIP3   OH254537   6.433   2.628  15.713  0.1408  0.1188  0.1823
11041TIP3    H154538   6.466   2.628  15.803  0.2209 -0.0047  0.1520
11041TIP3    H254539   6.401   2.539  15.699 -0.1448  0.2189  0.1887
11042TIP3   OH254540   1.658   2.295  11.802  0.0241 -0.4846  0.6595
11042TIP3    H154541   1.568   2.317  11.778  0.3724  0.9651  0.6395
11042TIP3    H254542   1.684   2.227  11.740 -0.9507 -0.6794  0.4604
11043TIP3   OH254543   0.964   2.336  13.428  0.0820  0.1593  0.5145
11043TIP3    H154544   0.908   2.410  13.406  0.9590  0.0324 -2.3595
11043TIP3    H254545   1.041   2.375  13.469  0.8620  0.9660 -1.6286
11044TIP3   OH254546   1.786   0.597  13.146 -0.4584  0.2401 -0.1405
11044TIP3    H154547   1.800   0.563  13.234 -0.1110 -2.1352 -1.0794
11044TIP3    H254548   1.696   0.628  13.146 -1.0793 -1.5162  0.5076
11045TIP3   OH254549   5.956   2.979  16.542 -0.7461  0.4871 -0.4866
11045TIP3    H154550   6.013   3.056  16.535 -0.0747 -0.0312 -0.8954
11045TIP3    H254551   5.868   3.013  16.528 -0.5106  1.2674 -0.1151
11046TIP3   OH254552   5.405   2.755  15.365  0.5250 -0.2623 -0.5769
11046TIP3    H154553   5.400   2.765  15.270 -0.5605 -2.0912 -0.7313
11046TIP3    H254554   5.338   2.815  15.399  2.6117  2.2994 -0.7811
11047TIP3   OH254555   3.469   0.903  13.814 -0.8283  0.1643 -0.5409
11047TIP3    H154556   3.437   0.993  13.819 -0.1909  0.2980  2.4669
11047TIP3    H254557   3.529   0.903  13.739  0.6508  2.7856  0.5626
11048TIP3   OH254558   4.818   6.320   2.517 -0.3465  0.5540 -0.3155
11048TIP3    H154559   4.786   6.355   2.434  0.7762 -0.6689 -1.2921
11048TIP3    H254560   4.760   6.245   2.535  0.4236 -0.1860 -0.8556
11049TIP3   OH254561   0.208   4.696  13.309 -0.0626 -0.1424  0.0038
11049TIP3    H154562   0.291   4.671  13.347 -0.1399 -0.0425  0.2351
11049TIP3    H254563   0.142   4.647  13.359 -0.0727 -1.0303 -0.8437
11050TIP3   OH254564   1.494   1.985   0.128  0.1893 -0.2438  0.1959
11050TIP3    H154565   1.467   2.077   0.127  1.6035  0.1853 -0.0401
11050TIP3    H254566   1.575   1.983   0.076  0.1347 -1.6360  0.1321
11051TIP3   OH254567   0.454   3.403  13.413 -0.0536  0.3443 -0.8129
11051TIP3    H154568   0.373   3.395  13.362  0.8031 -0.9054 -2.0470
11051TIP3    H254569   0.520   3.429  13.348  0.1826  3.3219  0.5336
11052TIP3   OH254570   5.488   0.343   3.454  0.6141  0.2977  0.1683
11052TIP3    H154571   5.576   0.331   3.489  0.6335 -0.3100 -0.0811
11052TIP3    H254572   5.495   0.316   3.362  0.4141  1.2553 -0.1348
11053TIP3   OH254573   6.013   4.325   2.111  0.2847  0.1812 -0.1932
11053TIP3    H154574   5.949   4.393   2.132 -0.2486 -0.4483  0.2705
11053TIP3    H254575   6.006   4.314   2.016 -1.8217 -1.3315  0.0889
11054TIP3   OH254576   1.861   3.142   5.272 -0.1334 -0.1514  0.1501
11054TIP3    H154577   1.931   3.163   5.335  0.8354 -1.3682 -0.5102
11054TIP3    H254578   1.795   3.210   5.287  1.1512  0.9825  0.8362
11055TIP3   OH254579   4.806   0.044   4.116 -0.0540  0.1115  0.5188
11055TIP3    H154580   4.800  -0.050   4.101  0.0549 -0.0556  1.4811
11055TIP3    H254581   4.766   0.083   4.038  1.5216 -0.6849 -0.7300
11056TIP3   OH254582   6.650   2.105  15.286 -0.4481 -0.9416 -0.5599
11056TIP3    H154583   6.564   2.085  15.250 -0.4796 -1.2876 -0.2945
11056TIP3    H254584   6.636   2.184  15.339 -0.5363 -0.8149 -0.7730
11057TIP3   OH254585   5.591   5.308   0.153  0.5624 -0.1228  0.7846
11057TIP3    H154586   5.536   5.386   0.164  1.8999  0.8507  0.6636
11057TIP3    H254587   5.572   5.279   0.063  0.0319  0.0439  0.8413
11058TIP3   OH254588   3.383   5.996  11.120  0.2766  0.4739 -0.3513
11058TIP3    H154589   3.361   6.087  11.096  0.2719  0.9628  1.4397
11058TIP3    H254590   3.398   5.953  11.036  0.3970  2.1626 -1.2344
11059TIP3   OH254591   0.081   6.439  14.114  0.3078  0.0463  0.1520
11059TIP3    H154592   0.132   6.482  14.182  0.1146  1.7583 -0.7509
11059TIP3    H254593   0.083   6.346  14.137  1.6764  0.4003  1.5260
11060TIP3   OH254594   4.839   3.105   3.979 -0.1444  0.2534  0.4169
11060TIP3    H154595   4.900   3.046   3.934 -1.4219 -0.5218 -0.3257
11060TIP3    H254596   4.818   3.173   3.914  0.6871  1.0853  1.0004
11061TIP3   OH254597   3.995   4.960   0.086  0.4950  0.3611 -0.5705
11061TIP3    H154598   3.923   5.018   0.111 -1.2656 -1.7668 -0.5632
11061TIP3    H254599   3.953   4.888   0.039  2.7777 -0.2818 -1.7070
11062TIP3   OH254600   3.993   5.152   0.740 -0.1528  0.3658  0.0898
11062TIP3    H154601   3.939   5.116   0.670  0.8719 -0.8436 -0.1089
11062TIP3    H254602   3.967   5.102   0.818 -0.0676  0.5017  0.2058
11063TIP3   OH254603   2.511   6.266  12.607  0.0799 -0.3320 -0.4433
11063TIP3    H154604   2.442   6.313  12.561  1.4921  1.3609 -0.9415
11063TIP3    H254605   2.545   6.204  12.543 -0.3096 -0.4603 -0.5263
11064TIP3   OH254606   5.362   4.987   6.134 -0.0701  0.3306  0.3661
11064TIP3    H154607   5.383   5.068   6.087  0.8318  1.6645  2.9579
11064TIP3    H254608   5.269   4.996   6.157  0.9074  2.4314  3.8772
11065TIP3   OH254609   0.358   0.236  16.519 -0.4014 -0.0803 -1.0012
11065TIP3    H154610   0.281   0.237  16.576  0.0664 -3.3314 -0.1748
11065TIP3    H254611   0.333   0.176  16.448  1.2047 -0.8693 -0.9170
11066TIP3   OH254612   4.045   2.801  14.029 -0.6127  0.1449  0.0176
11066TIP3    H154613   3.961   2.808  14.075 -0.6183 -1.8214  0.3438
11066TIP3    H254614   4.089   2.727  14.072  0.5556  0.0683 -1.3024
11067TIP3   OH254615   4.830   1.432   1.029 -0.0327  0.8797 -0.7137
11067TIP3    H154616   4.842   1.380   0.949 -0.4254 -1.8855  0.9302
11067TIP3    H254617   4.737   1.424   1.049  0.3734  0.0402  0.9446
11068TIP3   OH254618   1.984   4.316   6.000 -0.3073  0.0714  0.6162
11068TIP3    H154619   1.985   4.250   5.931 -1.9353  0.9756 -0.3005
11068TIP3    H254620   1.891   4.338   6.011  0.0760  1.1029  1.9666
11069TIP3   OH254621   0.283   1.102  13.155  0.0859  0.2255  0.2267
11069TIP3    H154622   0.189   1.111  13.137  0.2855 -0.1542 -1.0510
11069TIP3    H254623   0.321   1.073  13.072  1.3628  0.5109  0.6980
11070TIP3   OH254624   2.004   2.740   3.180  0.4824  0.0180 -0.2946
11070TIP3    H154625   1.982   2.829   3.209 -0.0808  0.9188 -3.2862
11070TIP3    H254626   2.087   2.721   3.222 -0.2977  1.2197  1.8684
11071TIP3   OH254627   6.229   4.116   5.681  0.3181 -0.0996 -0.5483
11071TIP3    H154628   6.213   4.193   5.736  1.3309 -0.7750  0.7251
11071TIP3    H254629   6.223   4.042   5.741  0.4377 -0.9363 -1.5578
11072TIP3   OH254630   4.470   0.855   1.259 -0.4850  0.2036 -0.0144
11072TIP3    H154631   4.403   0.847   1.327  0.5061 -3.0841  0.6596
11072TIP3    H254632   4.443   0.792   1.192  0.0662  1.4127 -1.3941
11073TIP3   OH254633   3.492   1.778  13.956  1.0676  0.0761 -0.2896
11073TIP3    H154634   3.573   1.774  13.906  1.1080 -0.0282 -0.2163
11073TIP3    H254635   3.432   1.719  13.911  1.2484 -0.3587  0.0442
11074TIP3   OH254636   4.863   2.961   6.336 -0.1644  0.1509 -0.3816
11074TIP3    H154637   4.820   2.987   6.418 -1.3301  1.1386 -1.2958
11074TIP3    H254638   4.825   3.018   6.270  1.6649  0.1822 -1.4242
11075TIP3   OH254639   4.610   5.143  12.150  0.4361 -0.4115 -0.4428
11075TIP3    H154640   4.524   5.114  12.179  0.6974  3.1649  4.7477
11075TIP3    H254641   4.672   5.102  12.211  1.9253  0.6014 -1.2135
11076TIP3   OH254642   4.228   6.749   2.665  0.2382  0.3368  0.4908
11076TIP3    H154643   4.189   6.803   2.735  1.6328  3.1230 -0.8064
11076TIP3    H254644   4.317   6.783   2.655  0.9536 -1.8395 -0.8173
11077TIP3   OH254645   1.336   1.545  12.157  0.8372  0.1055  0.1187
11077TIP3    H154646   1.393   1.477  12.120  3.3799  1.7523  0.8957
11077TIP3    H254647   1.358   1.546  12.250 -1.6360 -0.3031  0.7295
11078TIP3   OH254648   4.601   4.324  14.452 -0.5088 -0.1291  0.8058
11078TIP3    H154649   4.621   4.233  14.475  0.1512 -0.2476 -0.2231
11078TIP3    H254650   4.679   4.373  14.477  0.3225 -0.2957 -1.3316
11079TIP3   OH254651   0.186   2.543   4.729  0.2548  0.0586  1.2825
11079TIP3    H154652   0.093   2.525   4.743  0.5736 -1.4659  1.5138
11079TIP3    H254653   0.231   2.500   4.802  1.4269 -2.5828 -0.9090
11080TIP3   OH254654   3.505   5.260   1.117 -0.1691 -0.3659 -0.5521
11080TIP3    H154655   3.492   5.180   1.168 -0.2809 -0.8094 -1.2675
11080TIP3    H254656   3.446   5.324   1.157 -0.3686 -0.7555 -0.2174
11081TIP3   OH254657   0.699   1.739  14.222  0.0076 -0.1538 -0.2804
11081TIP3    H154658   0.665   1.809  14.276  0.1878 -0.1270 -0.2001
11081TIP3    H254659   0.763   1.781  14.165  0.4189 -0.3232  0.0529
11082TIP3   OH254660   2.834   0.211   6.071  0.1364  0.4234 -0.4407
11082TIP3    H154661   2.904   0.146   6.071 -1.2941 -1.1813  1.7991
11082TIP3    H254662   2.782   0.191   5.993  0.5164 -0.2233 -0.5302
11083TIP3   OH254663   2.384   6.677   4.985 -0.3243  0.0429 -0.1073
11083TIP3    H154664   2.477   6.661   4.969 -0.2239  0.9592 -0.4690
11083TIP3    H254665   2.378   6.696   5.078  0.2665  2.7826 -0.6023
11084TIP3   OH254666   1.216   0.234  16.170 -0.6728 -0.8203 -0.0561
11084TIP3    H154667   1.292   0.287  16.147  0.8125 -2.1649  1.5653
11084TIP3    H254668   1.248   0.174  16.238 -3.3180 -1.0424  1.0813
11085TIP3   OH254669   0.665   3.410   1.911  0.6047 -0.2585 -0.4958
11085TIP3    H154670   0.750   3.445   1.886  1.2832 -0.9583  0.8062
11085TIP3    H254671   0.672   3.392   2.004 -1.6677  1.6531  0.1043
11086TIP3   OH254672   0.388   3.491  13.159 -0.1047 -0.2317 -0.5438
11086TIP3    H154673   0.370   3.584  13.141  0.8998  0.0784 -0.0371
11086TIP3    H254674   0.318   3.444  13.115 -1.7702  0.8584  0.8722
11087TIP3   OH254675   5.586   3.015   2.953 -0.1046 -0.0735  0.2086
11087TIP3    H154676   5.618   3.105   2.956 -0.2158 -0.0362  0.2566
11087TIP3    H254677   5.623   2.979   2.873 -1.1447  0.4224 -0.5061
11088TIP3   OH254678   4.975   1.424   0.082  0.0370  0.1889 -0.0986
11088TIP3    H154679   4.967   1.361   0.154 -1.3749 -0.8192 -1.1110
11088TIP3    H254680   5.069   1.435   0.070  0.3148 -1.6322  0.1934
11089TIP3   OH254681   4.497   2.219   6.248 -0.1657  0.9073 -0.2776
11089TIP3    H154682   4.516   2.148   6.187  2.6719  1.7340 -0.4344
11089TIP3    H254683   4.497   2.298   6.194  3.3600  1.7727  0.8341
11090TIP3   OH254684   3.894   2.645  14.817  0.4605  0.3208 -0.2236
11090TIP3    H154685   3.858   2.605  14.896 -0.6043 -0.3750 -1.0524
11090TIP3    H254686   3.894   2.574  14.752  1.6810  0.7802 -0.7476
11091TIP3   OH254687   0.312   0.688  15.883 -0.1428  0.4058 -0.0790
11091TIP3    H154688   0.288   0.621  15.947  0.4582  2.0040  1.8894
11091TIP3    H254689   0.327   0.640  15.802 -1.4041 -1.6231  0.8527
11092TIP3   OH254690   2.236   2.579  11.708 -0.0400 -0.8415 -0.0956
11092TIP3    H154691   2.146   2.550  11.719  0.2072 -1.2946  0.8409
11092TIP3    H254692   2.230   2.673  11.697 -0.5302 -0.6883  1.3928
11093TIP3   OH254693   6.260   0.159   5.674 -0.3648 -0.2887  0.1809
11093TIP3    H154694   6.236   0.111   5.753  1.0725  1.0019  1.4565
11093TIP3    H254695   6.232   0.249   5.690  0.5560  0.1335 -0.4772
11094TIP3   OH254696   6.190   1.113  12.869 -0.0001 -0.1077  0.5730
11094TIP3    H154697   6.152   1.039  12.821 -2.1153  0.8928  0.6252
11094TIP3    H254698   6.225   1.169  12.800 -0.1001 -0.2535  0.3996
11095TIP3   OH254699   3.189   3.343  12.052  0.6747  0.1153  0.5922
11095TIP3    H154700   3.130   3.418  12.052  1.9887  1.1543  0.6870
11095TIP3    H254701   3.142   3.276  12.103 -2.1480 -0.4864 -2.6170
11096TIP3   OH254702   0.723   1.826  13.578  0.2864  0.2340 -0.0524
11096TIP3    H154703   0.764   1.815  13.663  0.4513 -0.0003 -0.1613
11096TIP3    H254704   0.756   1.909  13.545  0.5352  0.1309 -0.0622
11097TIP3   OH254705   0.810   5.581  16.696  0.2842  0.3014 -0.8861
11097TIP3    H154706   0.831   5.665  16.655 -0.5649  0.1831 -1.5865
11097TIP3    H254707   0.894   5.546  16.724  0.6264  1.4485 -0.4782
11098TIP3   OH254708   2.040   4.049   2.435 -0.1909 -0.2388  0.5530
11098TIP3    H154709   1.995   4.104   2.370 -0.2452 -2.2359 -1.1506
11098TIP3    H254710   2.089   4.112   2.489 -0.0659  1.4848 -1.4772
11099TIP3   OH254711   5.371   1.883  12.648  0.3131 -0.1231  0.1037
11099TIP3    H154712   5.381   1.908  12.556 -2.2381  0.0933 -0.1468
11099TIP3    H254713   5.461   1.871  12.679  1.2260  0.0475 -2.3402
11100TIP3   OH254714   1.835   6.149   1.606  0.2698 -0.0902  0.3297
11100TIP3    H154715   1.922   6.157   1.568 -0.1550  0.4573 -0.5594
11100TIP3    H254716   1.795   6.075   1.560  1.0469 -1.7730  2.3087
11101TIP3   OH254717   1.952   6.117  15.232 -0.1196  0.0439 -0.1785
11101TIP3    H154718   1.878   6.092  15.177 -0.8292  1.3711  0.1440
11101TIP3    H254719   1.943   6.212  15.242  1.2879  0.1395  0.3597
11102TIP3   OH254720   0.602   0.560  14.755  0.0253 -0.4271  0.3869
11102TIP3    H154721   0.583   0.641  14.801 -0.1126 -0.0200 -0.3720
11102TIP3    H254722   0.519   0.534  14.715  0.1084 -0.8480  0.4799
11103TIP3   OH254723   6.554   3.488   0.025  0.3805 -0.1757  0.2855
11103TIP3    H154724   6.567   3.405   0.072  2.8846  0.4220  0.7045
11103TIP3    H254725   6.553   3.554   0.094  1.9919  0.4912 -0.3100
11104TIP3   OH254726   3.055   1.399  14.164 -0.1459  0.1245 -0.0939
11104TIP3    H154727   3.059   1.325  14.103 -2.5940  0.2754 -0.4898
11104TIP3    H254728   3.055   1.358  14.251  0.7719 -0.2154 -0.2478
11105TIP3   OH254729   5.723   3.873  14.595 -0.1414  0.1555  0.0076
11105TIP3    H154730   5.643   3.918  14.568 -1.0223  0.0139  2.2706
11105TIP3    H254731   5.754   3.923  14.670  1.5272 -0.2052 -0.4293
11106TIP3   OH254732   3.249   4.427   0.623  0.2859 -0.2876 -0.2439
11106TIP3    H154733   3.264   4.508   0.575 -2.1378  0.2032 -0.1829
11106TIP3    H254734   3.336   4.385   0.625  1.7772  2.6626  0.4692
11107TIP3   OH254735   6.715   4.045   4.810 -0.2064 -0.1968 -0.0892
11107TIP3    H154736   6.687   4.005   4.892 -1.6814  1.1616  0.0750
11107TIP3    H254737   6.683   3.986   4.742 -3.5486  1.3386  0.0899
11108TIP3   OH254738   2.601   5.888   0.495 -0.0189 -0.1496  0.5281
11108TIP3    H154739   2.555   5.825   0.439  0.5353 -0.3228  0.2678
11108TIP3    H254740   2.679   5.841   0.525  1.2525  0.9556 -0.9661
11109TIP3   OH254741   0.307   3.359   0.080 -0.1095 -0.2406 -0.2669
11109TIP3    H154742   0.359   3.388   0.006  0.5017  0.3739  0.3945
11109TIP3    H254743   0.238   3.425   0.088  1.1942  0.9909  1.1461
11110TIP3   OH254744   5.741   5.282   4.723  0.6635  0.5266 -0.4008
11110TIP3    H154745   5.761   5.192   4.695 -1.3812 -0.2917  0.6673
11110TIP3    H254746   5.794   5.294   4.802  0.5119  0.0640 -0.2261
11111TIP3   OH254747   2.285   5.672   2.655  0.2908  0.2576  0.0656
11111TIP3    H154748   2.230   5.750   2.655  0.2971  0.2611  0.4454
11111TIP3    H254749   2.277   5.637   2.744  0.8901  0.2474  0.1157
11112TIP3   OH254750   6.607   6.592  15.338  0.2411 -0.4235 -0.3306
11112TIP3    H154751   6.638   6.521  15.282  2.3551  0.4118 -0.3010
11112TIP3    H254752   6.593   6.666  15.278 -0.5148 -0.4313 -0.1684
11113TIP3   OH254753   4.634   2.836   2.723  0.2731  0.4777 -0.4278
11113TIP3    H154754   4.578   2.913   2.712  1.5249  1.3423 -0.7186
11113TIP3    H254755   4.716   2.858   2.680  0.3098 -1.4125 -1.3979
11114TIP3   OH254756   0.507   1.188   5.264  0.0381 -0.0878 -0.0190
11114TIP3    H154757   0.544   1.236   5.190  1.1402 -1.5301 -0.4354
11114TIP3    H254758   0.421   1.227   5.278  0.5244  1.3625 -0.9339
11115TIP3   OH254759   3.848   1.921  10.400  0.1361  0.0415  0.5730
11115TIP3    H154760   3.825   1.862  10.473  1.4618 -0.2331  0.7807
11115TIP3    H254761   3.887   1.863  10.334  1.0592  0.6239  0.6070
11116TIP3   OH254762   0.031   3.117  12.777  0.0270  0.8137  0.0589
11116TIP3    H154763  -0.019   3.181  12.726  0.6989  0.7426 -0.7074
11116TIP3    H254764   0.122   3.138  12.759  0.2866  1.1194  1.6718
11117TIP3   OH254765   6.639   0.609  14.648 -0.0419  0.1190  0.0147
11117TIP3    H154766   6.557   0.639  14.686 -1.0955 -1.1667 -1.1597
11117TIP3    H254767   6.656   0.669  14.575 -1.5145 -1.3620 -1.5835
11118TIP3   OH254768   2.370   2.208  12.431 -0.4430 -0.5289  0.3126
11118TIP3    H154769   2.289   2.165  12.456  0.0282 -0.0825  2.7558
11118TIP3    H254770   2.387   2.271  12.502  1.1911  0.5155 -0.9509
11119TIP3   OH254771   0.292   2.629  12.565  0.1964 -0.2463 -0.3387
11119TIP3    H154772   0.318   2.557  12.507 -0.8582 -0.7293 -0.2194
11119TIP3    H254773   0.363   2.634  12.630  1.2467  0.1181 -1.4939
11120TIP3   OH254774   0.477   4.883   2.155  0.2644 -0.6393  0.0055
11120TIP3    H154775   0.455   4.973   2.133  1.6669 -0.4428 -0.6821
11120TIP3    H254776   0.429   4.865   2.236 -0.0836  0.6934  0.1042
11121TIP3   OH254777   0.320   1.226  12.473  0.3943 -0.0661  0.2386
11121TIP3    H154778   0.287   1.293  12.534 -0.8479 -0.4153 -0.0302
11121TIP3    H254779   0.405   1.202  12.508  0.4160  0.9374  0.9102
11122TIP3   OH254780   5.440   5.657   4.077 -0.6220 -0.0425 -0.3659
11122TIP3    H154781   5.488   5.739   4.079 -0.6809 -0.0149  0.0263
11122TIP3    H254782   5.501   5.593   4.113 -1.6491  0.4104  2.3367
11123TIP3   OH254783   0.852   2.233   3.201  0.2979 -0.0151 -0.0458
11123TIP3    H154784   0.916   2.304   3.195  0.6364 -0.0792  2.2079
11123TIP3    H254785   0.772   2.270   3.163  0.4913  1.5860  1.0099
11124TIP3   OH254786   4.133   1.788   0.503  0.1859  0.3723  0.0427
11124TIP3    H154787   4.205   1.727   0.486 -1.9544 -1.8974 -1.2624
11124TIP3    H254788   4.138   1.851   0.432  0.9465  0.3042  0.0257
11125TIP3   OH254789   3.670   1.918   5.250 -0.3598 -0.2159 -0.0508
11125TIP3    H154790   3.622   1.996   5.278 -0.9730 -0.5701 -0.1192
11125TIP3    H254791   3.684   1.868   5.330  1.0709  0.5319  0.1795
11126TIP3   OH254792   6.758   5.989  16.390  0.4082 -0.4141 -0.6662
11126TIP3    H154793   6.793   5.922  16.449  1.0644  2.0789  1.9391
11126TIP3    H254794   6.815   5.985  16.313  2.1090 -1.0847  0.5790
11127TIP3   OH254795   4.927   2.413   2.889  0.1216  0.0415 -0.0363
11127TIP3    H154796   4.902   2.355   2.961  1.3437 -0.3157  0.1103
11127TIP3    H254797   4.965   2.355   2.824 -1.6893  0.2611 -1.3350
11128TIP3   OH254798   1.468   4.581  14.329 -0.2731  0.3395  0.4898
11128TIP3    H154799   1.394   4.521  14.321  1.9903 -2.4655 -0.2746
11128TIP3    H254800   1.484   4.612  14.240  0.5430 -0.4392  0.3560
11129TIP3   OH254801   4.886   0.725   0.919 -0.7589  0.0865  0.2821
11129TIP3    H154802   4.915   0.685   1.001 -1.4824 -0.4812  0.2684
11129TIP3    H254803   4.791   0.731   0.928 -0.8807 -0.2940 -0.6510
11130TIP3   OH254804   3.976   1.495  14.742 -0.3899  0.4005  0.1153
11130TIP3    H154805   3.906   1.466  14.800  0.7075 -1.0257  0.7560
11130TIP3    H254806   4.056   1.476  14.790  0.4670  1.3460 -0.9167
11131TIP3   OH254807   4.146   6.072  12.867  0.3927 -0.0064 -0.2900
11131TIP3    H154808   4.078   6.006  12.856  1.8903 -1.4743 -0.8543
11131TIP3    H254809   4.146   6.120  12.784  0.8452 -0.7818 -0.7470
11132TIP3   OH254810   4.248   3.713   2.924  0.0587  0.8355 -0.0401
11132TIP3    H154811   4.234   3.630   2.970 -1.3312  1.7118  1.1681
11132TIP3    H254812   4.171   3.766   2.947  1.2097  2.6567 -0.3306
11133TIP3   OH254813   3.210   5.364   6.411 -0.0547 -0.3207  0.3113
11133TIP3    H154814   3.237   5.321   6.330 -1.7977 -2.2955  0.7315
11133TIP3    H254815   3.293   5.387   6.454  0.8948 -0.6210 -1.3158
11134TIP3   OH254816   2.225   0.893   2.266 -0.2011  0.1120 -0.1897
11134TIP3    H154817   2.194   0.806   2.291  0.0791 -0.3469 -1.4063
11134TIP3    H254818   2.319   0.881   2.249  0.4334  1.2245  2.2448
11135TIP3   OH254819   0.312   5.328   3.508 -0.4513 -0.5934  0.0877
11135TIP3    H154820   0.287   5.302   3.419  0.1770 -0.9944  0.0251
11135TIP3    H254821   0.405   5.350   3.501 -0.8267  1.0923  0.2686
11136TIP3   OH254822   2.783   1.296  14.500  0.1997  0.3064 -0.5731
11136TIP3    H154823   2.839   1.274  14.574 -0.1176  0.0858 -0.3956
11136TIP3    H254824   2.843   1.305  14.426  0.3105 -1.5701 -0.7445
11137TIP3   OH254825   5.685   4.601  12.629  0.2157 -0.7094  0.2529
11137TIP3    H154826   5.661   4.679  12.680 -1.2855 -0.3517 -0.9542
11137TIP3    H254827   5.649   4.528  12.679 -0.9966 -0.3843 -0.1092
11138TIP3   OH254828   0.933   3.763   0.708  0.4204 -0.3376 -0.0009
11138TIP3    H154829   0.854   3.748   0.760  0.8413 -1.5501  0.3057
11138TIP3    H254830   0.939   3.859   0.701  0.3077 -0.1521  2.1037
11139TIP3   OH254831   3.686   5.481   1.727 -0.0023  0.1310 -0.8822
11139TIP3    H154832   3.666   5.546   1.794  0.2967 -0.6820  0.0006
11139TIP3    H254833   3.610   5.484   1.668 -0.1897  0.9660 -0.6131
11140TIP3   OH254834   0.331   6.577  13.165  0.4048  0.0406 -0.2535
11140TIP3    H154835   0.349   6.514  13.234  1.0082  0.9845  0.4634
11140TIP3    H254836   0.337   6.526  13.084  2.2455 -0.5523  0.2171
11141TIP3   OH254837   6.635   5.959  10.536 -0.5124 -0.0924  0.3117
11141TIP3    H154838   6.660   6.042  10.578 -0.7838  0.8148 -1.2789
11141TIP3    H254839   6.604   5.905  10.608 -0.6740  1.3189  1.3324
11142TIP3   OH254840   5.129   2.419  10.981 -0.3779 -0.4183 -0.5359
11142TIP3    H154841   5.141   2.338  10.932  0.3244 -1.2942  1.0192
11142TIP3    H254842   5.208   2.426  11.035 -0.2360  1.5254 -0.9628
11143TIP3   OH254843   4.125   6.151   6.471  0.1051  0.1029 -0.6414
11143TIP3    H154844   4.145   6.239   6.502 -1.7686  1.4173 -3.0587
11143TIP3    H254845   4.177   6.141   6.391 -1.1440 -0.2453 -1.4253
11144TIP3   OH254846   4.895   5.832   3.674  0.6843 -0.8460  0.1404
11144TIP3    H154847   4.990   5.820   3.671  0.7449 -0.3413  0.1219
11144TIP3    H254848   4.880   5.888   3.750  0.6809  1.8026 -1.7697
11145TIP3   OH254849   5.310   2.974   5.685  0.1839  0.6298 -0.4910
11145TIP3    H154850   5.296   2.929   5.769  0.8833  0.3587 -0.5220
11145TIP3    H254851   5.223   3.006   5.661  0.1144  1.4286  0.7523
11146TIP3   OH254852   0.381   4.754  13.059  0.0632  0.1140  0.1643
11146TIP3    H154853   0.359   4.843  13.032 -0.4461 -0.9634 -3.0956
11146TIP3    H254854   0.305   4.724  13.109 -1.4536  0.1485 -2.0804
11147TIP3   OH254855   1.506   0.311   2.076  0.7766  0.5019  0.0212
11147TIP3    H154856   1.515   0.404   2.098  0.3379  1.0874 -2.1893
11147TIP3    H254857   1.494   0.309   1.982 -3.3581 -1.5073  0.4512
11148TIP3   OH254858   5.288   4.895   3.070  0.4096  0.2439  0.1964
11148TIP3    H154859   5.335   4.978   3.061 -1.1517  0.9306 -2.2713
11148TIP3    H254860   5.355   4.831   3.090  1.9805  1.7144 -0.2581
11149TIP3   OH254861   3.775   0.740   2.604  0.0102 -0.3019 -0.5877
11149TIP3    H154862   3.724   0.688   2.541 -1.9084 -0.4782  1.0647
11149TIP3    H254863   3.715   0.756   2.677  1.5148  1.7327  0.2677
11150TIP3   OH254864   3.014   0.244   5.833  0.9407  0.2907  1.0047
11150TIP3    H154865   3.095   0.281   5.796  0.9736  0.1147  0.8993
11150TIP3    H254866   2.988   0.177   5.770  1.3133 -0.4077  1.5896
11151TIP3   OH254867   5.693   4.611   4.038 -0.1252  0.0407  0.1547
11151TIP3    H154868   5.716   4.690   4.087  0.1286  0.2033 -0.2240
11151TIP3    H254869   5.625   4.638   3.978  1.3098  0.4321 -1.3299
11152TIP3   OH254870   3.516   3.199   4.384  0.2941 -0.6317  0.3573
11152TIP3    H154871   3.490   3.286   4.413 -1.2876 -1.3377  1.1956
11152TIP3    H254872   3.443   3.143   4.412  0.6417 -1.9968 -1.3915
11153TIP3   OH254873   1.608   6.106  12.056 -0.5311 -0.2489 -0.2499
11153TIP3    H154874   1.633   6.117  12.147 -0.9482  0.6979 -0.2439
11153TIP3    H254875   1.686   6.134  12.006 -0.5062 -0.2200 -0.1956
11154TIP3   OH254876   0.448   3.495   4.761 -0.1172 -0.0865  0.0348
11154TIP3    H154877   0.388   3.426   4.734  0.7410 -0.7803 -0.1505
11154TIP3    H254878   0.404   3.539   4.833 -1.5763  0.5121 -1.2116
11155TIP3   OH254879   1.057   2.730  15.826 -0.6904 -0.3578 -0.6277
11155TIP3    H154880   1.014   2.762  15.747  0.1307 -0.4156 -1.1073
11155TIP3    H254881   1.144   2.703  15.796 -0.8379 -1.6008  0.0601
11156TIP3   OH254882   1.509   3.924  17.030 -0.1089  0.8594  0.5722
11156TIP3    H154883   1.564   3.922  17.108  0.8233  1.7722 -0.0622
11156TIP3    H254884   1.550   3.987  16.972 -1.0567  0.5360 -0.4832
11157TIP3   OH254885   5.331   3.939   1.138 -0.1777 -0.1922 -0.1624
11157TIP3    H154886   5.292   4.016   1.096 -1.1160  0.8292  2.5015
11157TIP3    H254887   5.261   3.873   1.136 -0.0081 -0.3565 -0.7561
11158TIP3   OH254888   5.656   2.402  11.221  0.0726  0.3512  0.1773
11158TIP3    H154889   5.725   2.389  11.287  0.7942  0.2087 -0.5910
11158TIP3    H254890   5.635   2.313  11.191 -0.7732  0.3588  0.7305
11159TIP3   OH254891   5.249   0.971  15.462  0.1982 -0.3112 -0.2153
11159TIP3    H154892   5.345   0.975  15.456  0.0944  1.0095 -1.1485
11159TIP3    H254893   5.230   0.993  15.553  0.7474 -0.0665 -0.1570
11160TIP3   OH254894   6.233   5.801   0.719  1.1128 -0.3533  0.4894
11160TIP3    H154895   6.211   5.886   0.682  0.6475 -0.1055  1.3218
11160TIP3    H254896   6.267   5.821   0.806 -0.0265 -1.0781  1.1195
11161TIP3   OH254897   3.030   5.454   3.695 -0.3835  0.5147  0.0053
11161TIP3    H154898   3.042   5.447   3.600  1.9845  0.5838  0.2706
11161TIP3    H254899   3.051   5.545   3.716 -0.3304  0.3541  0.6744
11162TIP3   OH254900   4.862   3.157   2.732  0.2570  0.2193 -0.5182
11162TIP3    H154901   4.767   3.172   2.739  0.2374 -0.2240  0.3421
11162TIP3    H254902   4.875   3.071   2.772  1.1913  0.8820  0.6622
11163TIP3   OH254903   1.468   4.514   1.216 -0.1467  0.0787 -0.1232
11163TIP3    H154904   1.486   4.420   1.215  0.1127  0.0974 -3.3205
11163TIP3    H254905   1.521   4.547   1.288  2.8430 -1.7010 -1.3773
11164TIP3   OH254906   1.342   4.728  13.576 -0.7490 -0.3511  0.2672
11164TIP3    H154907   1.372   4.819  13.580 -2.5812  0.2337  0.8959
11164TIP3    H254908   1.318   4.715  13.485  2.4055 -1.1857 -0.5260
11165TIP3   OH254909   0.507   0.354  14.455 -0.5956  0.2167  0.3690
11165TIP3    H154910   0.602   0.356  14.463 -0.6479 -1.1431  1.4327
11165TIP3    H254911   0.487   0.428  14.398  1.1857 -0.2286 -0.8853
11166TIP3   OH254912   1.944   4.902   5.450  0.2113 -0.9221 -0.2564
11166TIP3    H154913   1.906   4.820   5.482  0.8846 -0.6280  1.3245
11166TIP3    H254914   1.992   4.937   5.524 -0.3401  1.0988 -0.8165
11167TIP3   OH254915   2.043   0.487   5.078 -0.1462  0.2083 -0.6552
11167TIP3    H154916   1.963   0.540   5.082  0.3771  0.9444  0.2756
11167TIP3    H254917   2.030   0.431   5.002 -1.9832 -0.3844  0.0642
11168TIP3   OH254918   0.839   0.994  16.255 -0.1776 -0.3558 -0.4186
11168TIP3    H154919   0.850   1.033  16.342 -0.1176 -1.0546 -0.1077
11168TIP3    H254920   0.787   1.058  16.206  0.7172  0.5451 -0.2185
11169TIP3   OH254921   4.799   2.925  14.792  0.6786  0.1076 -0.5054
11169TIP3    H154922   4.872   2.942  14.732  0.3629  0.8493 -0.6943
11169TIP3    H254923   4.752   3.009  14.796 -0.8630 -0.6885 -1.3164
11170TIP3   OH254924   6.754   1.629  14.142 -0.3681  0.3104 -0.0785
11170TIP3    H154925   6.750   1.536  14.120 -0.6403  0.6250 -1.3940
11170TIP3    H254926   6.848   1.649  14.143 -0.2728 -0.1793  1.0895
11171TIP3   OH254927   2.009   5.320   2.189 -0.5770 -0.1035 -0.0517
11171TIP3    H154928   2.100   5.335   2.163 -0.9253  0.0332 -1.1927
11171TIP3    H254929   2.015   5.296   2.282  0.6464 -0.3699 -0.1868
11172TIP3   OH254930   5.851   2.416   5.321  0.3586  1.1023 -0.3741
11172TIP3    H154931   5.913   2.486   5.338 -1.0088  2.3034 -0.2389
11172TIP3    H254932   5.814   2.436   5.235 -2.4841  2.4840  1.0691
11173TIP3   OH254933   1.957   0.089   2.023  0.1461  0.1436 -0.1433
11173TIP3    H154934   1.983   0.017   1.965 -0.0008  0.6901 -0.8990
11173TIP3    H254935   2.039   0.123   2.057  0.2211 -0.3283  0.1558
11174TIP3   OH254936   1.681   3.092  13.378  0.7390  0.4577  0.8318
11174TIP3    H154937   1.671   3.069  13.286  2.2243  1.4545  0.4007
11174TIP3    H254938   1.598   3.134  13.402 -1.2454 -3.3881  1.0925
11175TIP3   OH254939   3.089   5.085  17.126  0.0594 -0.1657 -0.5137
11175TIP3    H154940   3.138   5.106  17.046  0.0761 -0.6118 -0.6260
11175TIP3    H254941   3.144   5.020  17.171  1.8167  2.7705  1.7054
11176TIP3   OH254942   2.464   4.756   2.242 -0.1601  0.2648  0.4509
11176TIP3    H154943   2.534   4.819   2.259 -2.6414  2.8167  1.5895
11176TIP3    H254944   2.424   4.741   2.328 -0.8204 -1.4217 -0.1260
11177TIP3   OH254945   0.465   0.792  10.546  0.1649 -0.1460  0.3418
11177TIP3    H154946   0.448   0.729  10.616  1.3428  0.2524  0.9990
11177TIP3    H254947   0.459   0.877  10.588  3.9902  0.0262  0.7171
11178TIP3   OH254948   2.298   5.260  13.044 -0.4556  0.4243 -0.4581
11178TIP3    H154949   2.272   5.187  12.988 -2.7804  1.4542 -0.7624
11178TIP3    H254950   2.218   5.284  13.091  0.0326  3.3249 -0.9933
11179TIP3   OH254951   3.371   6.033  14.511  0.1908  0.1745 -0.2846
11179TIP3    H154952   3.293   6.089  14.516  1.2765  1.9141 -2.0070
11179TIP3    H254953   3.337   5.945  14.499 -1.5323  0.7229  0.4833
11180TIP3   OH254954   6.769   6.109   1.446  0.2807  0.2167  0.3778
11180TIP3    H154955   6.831   6.055   1.398 -0.2366  0.4419 -0.5417
11180TIP3    H254956   6.797   6.100   1.538 -0.3248 -2.2740  0.3517
11181TIP3   OH254957   5.149   6.655   1.659 -0.8118  0.2761 -0.1044
11181TIP3    H154958   5.065   6.699   1.665  0.2414  2.3396 -0.1740
11181TIP3    H254959   5.200   6.691   1.732  1.1548  1.5970 -2.0741
11182TIP3   OH254960   3.717   6.733  16.911  0.2187  0.4426 -0.0846
11182TIP3    H154961   3.744   6.741  17.002  0.4165  1.1139 -0.1966
11182TIP3    H254962   3.647   6.798  16.900 -0.2556 -0.0809 -0.2493
11183TIP3   OH254963   2.175   0.400   4.802  0.2245 -0.2547  0.0802
11183TIP3    H154964   2.222   0.475   4.766 -0.6040  0.7953  1.1742
11183TIP3    H254965   2.237   0.359   4.862 -0.2407  1.1205  1.5112
11184TIP3   OH254966   2.353   1.535  14.035  0.2645 -0.2298  0.3845
11184TIP3    H154967   2.447   1.527  14.047  0.1423 -0.3535  1.3138
11184TIP3    H254968   2.343   1.566  13.945  1.1705 -0.5744  0.1553
11185TIP3   OH254969   4.994   2.661  13.083 -0.6201 -1.5371 -0.6615
11185TIP3    H154970   5.000   2.666  12.987 -1.4478 -2.8948 -0.7973
11185TIP3    H254971   4.992   2.567  13.102 -0.8212 -1.2734  0.6671
11186TIP3   OH254972   1.527   1.487   4.582  0.4300  0.3910  0.0432
11186TIP3    H154973   1.481   1.552   4.635  1.8009  1.6023 -0.2230
11186TIP3    H254974   1.602   1.460   4.636  0.5135 -0.1123 -0.3183
11187TIP3   OH254975   3.578   6.328   6.627  0.6551  0.0128 -0.1392
11187TIP3    H154976   3.669   6.313   6.653  1.0489 -1.2194 -2.1550
11187TIP3    H254977   3.559   6.257   6.566 -2.0793 -0.5021  1.2387
11188TIP3   OH254978   1.785   3.329  14.479 -0.1905  0.0737 -0.2169
11188TIP3    H154979   1.708   3.282  14.448  0.7204 -1.0584 -0.7882
11188TIP3    H254980   1.777   3.416  14.440 -1.3917  0.1028  0.0676
11189TIP3   OH254981   2.926   3.202   5.172 -0.0046  0.4226  0.2197
11189TIP3    H154982   2.941   3.256   5.095  2.1213 -0.8128 -0.2753
11189TIP3    H254983   2.942   3.260   5.246 -0.1510  1.1083 -0.2846
11190TIP3   OH254984   1.110   5.756  16.820 -0.2459 -0.4739  0.9606
11190TIP3    H154985   1.034   5.738  16.876  0.3287  0.5348  2.0853
11190TIP3    H254986   1.185   5.749  16.879  0.2871  1.8729  0.6202
11191TIP3   OH254987   6.719   3.541  12.309  0.4233  0.7022  0.2222
11191TIP3    H154988   6.690   3.461  12.264  0.5617  0.5370  0.4232
11191TIP3    H254989   6.727   3.606  12.239  0.9187  0.3664 -0.0346
11192TIP3   OH254990   3.710   2.255   1.640  0.7129  0.2310  0.2266
11192TIP3    H154991   3.638   2.309   1.607  0.4539 -0.7428 -0.8041
11192TIP3    H254992   3.787   2.286   1.592  0.4580 -0.7157 -0.8063
11193TIP3   OH254993   6.410   4.613  12.194  0.0501 -0.0281  0.3176
11193TIP3    H154994   6.393   4.519  12.208  1.8403 -0.3750  0.2099
11193TIP3    H254995   6.371   4.656  12.271 -3.5998 -0.5266 -1.1306
11194TIP3   OH254996   0.189   1.047  16.267  0.0512 -0.1810  0.4867
11194TIP3    H154997   0.281   1.072  16.257  0.4927 -1.6831  0.7914
11194TIP3    H254998   0.178   1.032  16.361 -0.3725 -0.5476  0.3791
11195TIP3   OH254999   6.387   6.137   4.349 -0.6700  0.8804  0.1719
11195TIP3    H155000   6.339   6.054   4.353  1.4152 -0.3393  0.2855
11195TIP3    H255001   6.340   6.188   4.283 -0.2947 -1.4793 -1.9937
11196TIP3   OH255002   4.091   3.830  15.324  0.0619 -0.0218 -0.5736
11196TIP3    H155003   4.107   3.883  15.246 -2.7937  0.3371 -0.9630
11196TIP3    H255004   4.146   3.753  15.313  3.2588  2.1393 -0.6684
11197TIP3   OH255005   0.940   6.382   2.637 -0.1671  0.0116 -0.5083
11197TIP3    H155006   1.001   6.455   2.647  0.4322 -0.5698  0.1328
11197TIP3    H255007   0.859   6.423   2.606 -0.6110  1.3121  2.1542
11198TIP3   OH255008   5.134   6.459   5.762  0.1263  0.2683 -0.0742
11198TIP3    H155009   5.181   6.477   5.843 -0.6584  1.2283  0.1694
11198TIP3    H255010   5.101   6.369   5.773 -0.8636  0.7598  1.1092
11199TIP3   OH255011   2.494   2.128  15.202  0.2387 -0.2114  0.1532
11199TIP3    H155012   2.519   2.221  15.201 -0.5274  0.0099 -2.6060
11199TIP3    H255013   2.426   2.122  15.268  0.3820  1.1722  0.4513
11200TIP3   OH255014   3.379   0.767  12.649  0.2111  0.4084  0.2349
11200TIP3    H155015   3.465   0.744  12.613 -0.1680 -1.4754  0.5079
11200TIP3    H255016   3.317   0.746  12.580 -0.4543 -2.5965  1.6529
11201TIP3   OH255017   0.015   4.203  14.783  0.3636  0.1267  0.5531
11201TIP3    H155018  -0.024   4.145  14.849  0.1060 -0.2749  0.0593
11201TIP3    H255019  -0.056   4.218  14.720  0.4070  1.0540  0.7170
11202TIP3   OH255020   1.673   1.111   1.351  0.1632 -0.0196 -0.1277
11202TIP3    H155021   1.624   1.182   1.309  0.9116 -0.0460 -1.0846
11202TIP3    H255022   1.711   1.063   1.277 -0.9554 -1.8695  0.4863
11203TIP3   OH255023   0.834   1.575   0.524 -0.1567 -0.2144 -0.4223
11203TIP3    H155024   0.881   1.491   0.527 -0.5003 -0.3595  1.5444
11203TIP3    H255025   0.902   1.641   0.526  0.0144 -0.4328  0.8688
11204TIP3   OH255026   2.262   3.062   2.372 -0.3264 -0.3152 -0.6717
11204TIP3    H155027   2.199   3.009   2.322 -1.7885  0.7228  0.0457
11204TIP3    H255028   2.318   2.998   2.416 -1.0724 -1.2533 -1.0736
11205TIP3   OH255029   5.674   4.873   0.028  0.6792 -0.0154  0.1598
11205TIP3    H155030   5.656   4.826   0.110 -0.6995  0.5619  0.1978
11205TIP3    H255031   5.731   4.945   0.053  1.5502 -0.7739  0.3565
11206TIP3   OH255032   1.235   5.293  11.502  0.0512  0.0265  0.5015
11206TIP3    H155033   1.319   5.248  11.501 -1.3713 -2.7270  1.4652
11206TIP3    H255034   1.170   5.224  11.517 -2.3411  2.1632  0.3524
11207TIP3   OH255035   3.644   4.500  16.014 -0.6704 -0.3496  0.1739
11207TIP3    H155036   3.567   4.486  16.070  0.0900 -0.4046  1.2152
11207TIP3    H255037   3.628   4.446  15.937 -1.9602  0.1024  0.1155
11208TIP3   OH255038   3.428   4.253  13.071 -0.6396 -0.1703  0.3357
11208TIP3    H155039   3.368   4.275  12.999 -0.4060  0.4246  0.3189
11208TIP3    H255040   3.373   4.209  13.136 -1.2293  0.9449  0.5983
11209TIP3   OH255041   4.505   4.349   1.424 -0.3734  0.1858 -0.3156
11209TIP3    H155042   4.460   4.277   1.468 -0.8068  1.1196  0.8234
11209TIP3    H255043   4.436   4.414   1.409  0.6696  1.9982  2.1918
11210TIP3   OH255044   3.771   0.068  15.684 -0.8122  0.0157  0.1247
11210TIP3    H155045   3.809   0.143  15.729 -1.7305  0.3720  0.3127
11210TIP3    H255046   3.775  -0.003  15.749 -2.5896  0.6554  0.9638
11211TIP3   OH255047   0.278   1.969  13.932  0.0562  0.5010 -0.0555
11211TIP3    H155048   0.215   1.990  13.863 -0.5975 -2.2768 -0.3476
11211TIP3    H255049   0.235   1.995  14.013 -0.4183  0.9722 -0.4577
11212TIP3   OH255050   0.654   0.477  15.685 -0.4629  0.1528  0.2082
11212TIP3    H155051   0.678   0.548  15.744  1.1603  0.6303 -0.9994
11212TIP3    H255052   0.731   0.420  15.682 -1.0862 -0.6899 -0.2454
11213TIP3   OH255053   4.056   3.823   5.033  0.2001 -0.2691  0.1583
11213TIP3    H155054   3.987   3.805   5.097 -1.5396 -0.4447 -1.6877
11213TIP3    H255055   4.058   3.918   5.026 -1.7276 -0.3188 -1.6728
11214TIP3   OH255056   6.341   3.012  14.909 -0.0685 -0.0483 -0.3819
11214TIP3    H155057   6.355   3.074  14.981  0.3025 -0.7992  0.1918
11214TIP3    H255058   6.382   2.931  14.938  0.1992 -0.3172 -1.5012
11215TIP3   OH255059   2.771   3.437  11.529 -0.0190  0.1692 -0.0634
11215TIP3    H155060   2.836   3.483  11.581  1.4524 -0.7345 -1.0605
11215TIP3    H255061   2.779   3.474  11.441 -2.6548  1.8594  0.3473
11216TIP3   OH255062   0.617   3.111  12.361  0.0657  0.3276  0.6280
11216TIP3    H155063   0.550   3.044  12.371  0.6074 -0.3107 -0.0243
11216TIP3    H255064   0.573   3.184  12.318  0.0568 -0.5028 -0.7813
11217TIP3   OH255065   2.523   4.902  13.250 -0.0618 -0.1849  0.2507
11217TIP3    H155066   2.436   4.879  13.218 -0.1397  0.1637  0.2085
11217TIP3    H255067   2.545   4.982  13.203  0.4681 -0.5156 -0.0589
11218TIP3   OH255068   0.486   6.044  15.281  0.1622 -0.1337 -0.2058
11218TIP3    H155069   0.400   6.022  15.244  0.8251  0.0912 -1.9232
11218TIP3    H255070   0.507   5.969  15.337 -0.0677 -1.3701 -1.7125
11219TIP3   OH255071   5.032   4.610   6.021  0.3918 -0.1467 -0.6464
11219TIP3    H155072   5.020   4.698   6.057  3.0671 -0.4805  1.2714
11219TIP3    H255073   4.989   4.613   5.936  0.3079  2.9805 -0.5736
11220TIP3   OH255074   6.575   4.075   0.259  0.2601 -0.8189 -0.4370
11220TIP3    H155075   6.643   4.142   0.249 -1.8137  1.2108 -1.4638
11220TIP3    H255076   6.543   4.060   0.171 -1.5740 -0.7206  0.2029
11221TIP3   OH255077   2.495   3.584   2.231 -0.8740  0.8263  0.3111
11221TIP3    H155078   2.430   3.646   2.199 -1.3915  0.7788  1.2374
11221TIP3    H255079   2.444   3.521   2.284 -0.2552  0.0623  0.0112
11222TIP3   OH255080   5.434   4.804   4.662 -0.1461  0.0557 -0.6747
11222TIP3    H155081   5.347   4.772   4.638  0.6321 -0.7106 -2.5193
11222TIP3    H255082   5.447   4.883   4.610 -0.0849  0.6549  0.2416
11223TIP3   OH255083   5.971   1.328   6.650  0.1771 -0.2422 -0.1089
11223TIP3    H155084   5.923   1.401   6.611 -1.5569 -0.4362  1.6200
11223TIP3    H255085   6.062   1.344   6.623 -0.4885  1.3241 -1.5969
11224TIP3   OH255086   3.149   0.415  11.482  0.6238 -0.3233 -0.0583
11224TIP3    H155087   3.118   0.425  11.392  1.2488 -0.3096 -0.2716
11224TIP3    H255088   3.101   0.482  11.531  0.4735 -0.1597 -0.4250
11225TIP3   OH255089   3.892   4.009  15.546 -0.1385 -0.6586 -0.2582
11225TIP3    H155090   3.984   3.985  15.549  0.3177  1.0352 -0.2069
11225TIP3    H255091   3.870   4.012  15.453  0.4881  1.1737 -0.3703
11226TIP3   OH255092   1.880   2.913   5.830  0.4273  0.4153 -0.0137
11226TIP3    H155093   1.896   2.851   5.902 -2.5142  1.3762  1.5379
11226TIP3    H255094   1.829   2.863   5.766 -0.1740  0.6368  0.2915
11227TIP3   OH255095   5.543   4.008  15.759 -0.1071  0.1596  0.9495
11227TIP3    H155096   5.476   4.039  15.698 -0.2299 -2.3042 -0.1952
11227TIP3    H255097   5.614   4.072  15.751 -0.8536  0.8331 -0.4459
11228TIP3   OH255098   3.760   5.524  15.925 -0.5645 -0.1169 -0.2709
11228TIP3    H155099   3.784   5.561  15.839  0.1452 -2.2817 -1.0319
11228TIP3    H255100   3.842   5.489  15.960 -1.0715 -0.2684  0.7794
11229TIP3   OH255101   1.831   3.193  15.080  0.0311  0.0231  0.2479
11229TIP3    H155102   1.869   3.105  15.084 -1.1593 -0.5136 -0.1529
11229TIP3    H255103   1.881   3.237  15.011  0.4133 -0.4370  0.2253
11230TIP3   OH255104   3.472   2.535   0.312 -0.0680 -0.2892 -0.8535
11230TIP3    H155105   3.416   2.535   0.234 -0.9550  0.1483 -0.2235
11230TIP3    H255106   3.524   2.455   0.304 -1.8631 -1.4930 -0.6807
11231TIP3   OH255107   1.079   5.297  11.958 -0.4054 -0.0523 -0.3857
11231TIP3    H155108   1.016   5.238  11.918  0.4769 -0.0428 -1.8165
11231TIP3    H255109   1.155   5.294  11.901  0.9898 -0.2145  1.4157
11232TIP3   OH255110   3.613   4.253  15.429 -0.1818  0.5166 -0.2438
11232TIP3    H155111   3.519   4.269  15.437  0.2207  1.2762  4.5850
11232TIP3    H255112   3.641   4.233  15.518  4.1114 -0.6122 -1.7417
11233TIP3   OH255113   3.220   4.822  12.462  0.1040 -0.2300 -0.1649
11233TIP3    H155114   3.276   4.746  12.447 -0.3968 -0.4024 -1.2070
11233TIP3    H255115   3.132   4.793  12.436 -0.2377  0.4505  0.2100
11234TIP3   OH255116   3.342   4.191  11.556  0.6265  0.2445  0.2112
11234TIP3    H155117   3.280   4.258  11.582  1.5269  1.3201 -0.3626
11234TIP3    H255118   3.321   4.172  11.464  0.1922 -0.4672  0.4520
11235TIP3   OH255119   6.157   3.194   2.479 -0.0748  0.0493  0.1590
11235TIP3    H155120   6.156   3.174   2.386 -1.0082  0.6149  0.0386
11235TIP3    H255121   6.106   3.124   2.520  1.3635 -0.8684  0.3905
11236TIP3   OH255122   0.668   6.247  13.370  1.3273 -0.6260  0.0923
11236TIP3    H155123   0.720   6.295  13.306  0.6220  1.1593  0.7967
11236TIP3    H255124   0.674   6.300  13.450  0.7735 -1.8919  1.0003
11237TIP3   OH255125   6.701   0.405  14.802 -0.4176  0.7512 -0.4237
11237TIP3    H155126   6.698   0.477  14.739  0.8110  1.9958  0.8982
11237TIP3    H255127   6.788   0.367  14.791  0.5098  2.1555  1.7550
11238TIP3   OH255128   6.519   5.410   5.710 -0.2323  0.3550  0.2690
11238TIP3    H155129   6.529   5.316   5.697  0.4847  0.2346  1.5494
11238TIP3    H255130   6.529   5.448   5.623 -2.4400 -0.8892 -0.5607
11239TIP3   OH255131   0.711   6.640  11.755 -0.3529  0.4170 -0.0694
11239TIP3    H155132   0.806   6.639  11.770 -0.4576  0.9750  0.6256
11239TIP3    H255133   0.698   6.577  11.683  0.3300 -1.0831  1.0787
11240TIP3   OH255134   1.688   3.667   5.834  0.1190 -0.0047  0.0346
11240TIP3    H155135   1.736   3.708   5.762  1.3845  0.0329  0.8788
11240TIP3    H255136   1.699   3.727   5.907 -1.3509  0.0670  0.2198
11241TIP3   OH255137   4.757   1.795  10.870  0.4850  0.9430 -0.1202
11241TIP3    H155138   4.820   1.796  10.798 -1.1069 -0.4280 -1.5511
11241TIP3    H255139   4.786   1.724  10.927  0.8172  0.9762 -0.2487
11242TIP3   OH255140   0.401   3.475   1.914 -0.2609  0.3747  0.1663
11242TIP3    H155141   0.489   3.442   1.896 -0.3752  1.0589 -1.7720
11242TIP3    H255142   0.385   3.450   2.005  2.3731  1.2466  0.9281
11243TIP3   OH255143   6.318   5.120  16.838  0.4442 -0.3117 -0.1686
11243TIP3    H155144   6.232   5.118  16.796  0.0884  1.4235  0.4232
11243TIP3    H255145   6.362   5.195  16.797  0.2431  1.1646  2.2155
11244TIP3   OH255146   1.002   0.170  12.375  0.1010  0.2786  0.3103
11244TIP3    H155147   1.024   0.098  12.317  2.2138  0.5258  0.7561
11244TIP3    H255148   1.022   0.249  12.325 -0.2417  0.5346  0.5683
11245TIP3   OH255149   1.078   5.946   2.061  0.3335 -0.1988  0.1169
11245TIP3    H155150   1.103   6.020   2.005 -1.3731  0.7081  0.5084
11245TIP3    H255151   1.160   5.914   2.096  1.2993  0.2057 -1.6880
11246TIP3   OH255152   6.533   2.449  14.895 -0.3997 -0.1559  0.0065
11246TIP3    H155153   6.545   2.523  14.954  1.2631  0.6283 -1.2637
11246TIP3    H255154   6.470   2.480  14.830 -0.1893 -0.0872 -0.1633
11247TIP3   OH255155   6.547   3.579  11.467 -0.2816 -1.0089  0.3614
11247TIP3    H155156   6.590   3.532  11.538  0.7974 -1.4873 -0.5862
11247TIP3    H255157   6.579   3.537  11.387 -1.6922 -0.6662 -0.4092
11248TIP3   OH255158   0.339   1.276  15.404  0.2799  0.3612 -0.0359
11248TIP3    H155159   0.434   1.271  15.408  0.2469 -0.0905  0.2034
11248TIP3    H255160   0.315   1.220  15.330 -0.0206 -2.2587  1.9962
11249TIP3   OH255161   5.248   5.077  11.449 -0.0674  0.0648  0.8137
11249TIP3    H155162   5.249   5.115  11.361 -1.0219 -0.7324  0.4506
11249TIP3    H255163   5.337   5.091  11.482  0.3974  0.0706 -0.4047
11250TIP3   OH255164   3.434   4.099   5.646 -0.3949 -0.0036  0.3495
11250TIP3    H155165   3.344   4.079   5.623 -0.5183  0.3861  0.4813
11250TIP3    H255166   3.440   4.083   5.741 -0.8218  1.7310  0.6836
11251TIP3   OH255167   3.435   0.710  15.106  0.3636 -0.6189  0.3145
11251TIP3    H155168   3.470   0.624  15.086  0.4139 -0.1983 -1.4949
11251TIP3    H255169   3.355   0.716  15.053 -0.0989  0.1242  1.0772
11252TIP3   OH255170   0.101   2.376   3.302 -0.6229 -0.0181 -0.1511
11252TIP3    H155171   0.158   2.429   3.357 -0.6546  0.6788 -0.7804
11252TIP3    H255172   0.120   2.286   3.327  0.9781  0.1878 -0.5716
11253TIP3   OH255173   6.754   2.420  16.185 -0.6086 -0.0778 -0.0132
11253TIP3    H155174   6.795   2.498  16.148 -0.2621 -1.0286 -1.6802
11253TIP3    H255175   6.664   2.447  16.204 -0.1552  1.0675  0.5665
11254TIP3   OH255176   3.972   4.864   6.091  0.4349 -0.4268  0.2563
11254TIP3    H155177   3.919   4.836   6.166  1.9292  0.0051  1.4977
11254TIP3    H255178   3.916   4.926   6.045 -0.0770  0.2019  1.6727
11255TIP3   OH255179   1.709   0.019  12.241  0.6000  0.2625 -0.2037
11255TIP3    H155180   1.639   0.072  12.203 -0.4112 -0.5252  0.5217
11255TIP3    H255181   1.784   0.036  12.185 -0.5105  0.1281 -1.7828
11256TIP3   OH255182   3.672   3.683   2.643  0.7084 -0.3639  0.0228
11256TIP3    H155183   3.622   3.698   2.562 -1.1075  0.1966  1.2128
11256TIP3    H255184   3.687   3.771   2.678  0.9413 -0.6413  0.6259
11257TIP3   OH255185   4.717   5.535  15.681 -0.3582 -0.7235 -0.3937
11257TIP3    H155186   4.713   5.441  15.669  0.7369 -0.5922 -1.9872
11257TIP3    H255187   4.714   5.548  15.776 -1.9312 -2.2587 -0.2181
11258TIP3   OH255188   6.010   1.348  12.752 -0.1955  0.0343 -0.5580
11258TIP3    H155189   5.917   1.335  12.771  0.2415 -0.5457  1.3514
11258TIP3    H255190   6.046   1.382  12.833  1.0014  1.6947 -1.7609
11259TIP3   OH255191   1.536   5.678  13.666 -0.8783 -0.0860 -0.0667
11259TIP3    H155192   1.499   5.762  13.640  0.9632  0.7513 -0.0716
11259TIP3    H255193   1.553   5.687  13.760 -1.6993 -0.8491  0.1576
11260TIP3   OH255194   4.263   2.756  10.604  0.2679 -0.3060 -0.3338
11260TIP3    H155195   4.353   2.777  10.582  0.1844 -0.2557 -0.6271
11260TIP3    H255196   4.251   2.666  10.573  0.2920 -0.4017 -0.0701
11261TIP3   OH255197   2.306   4.924  15.043 -0.5547  0.1213  0.0738
11261TIP3    H155198   2.244   4.960  14.979 -0.2049 -0.7120 -0.7448
11261TIP3    H255199   2.327   4.837  15.009 -0.1247 -0.2036  1.1659
11262TIP3   OH255200   3.274   4.754  13.642 -0.2460 -0.2677  0.5496
11262TIP3    H155201   3.367   4.749  13.661  0.5994 -0.3757 -3.2487
11262TIP3    H255202   3.262   4.837  13.596 -1.5580 -1.3425 -1.1396
11263TIP3   OH255203   2.290   6.655  14.414 -0.3642 -0.4067 -0.0960
11263TIP3    H155204   2.379   6.621  14.402  0.7384  1.8841  1.3798
11263TIP3    H255205   2.267   6.690  14.328  1.7723  2.6091  0.4777
11264TIP3   OH255206   0.212   6.386   3.169 -0.0767 -0.5119 -0.4773
11264TIP3    H155207   0.277   6.359   3.103 -1.0975 -2.4446 -0.7055
11264TIP3    H255208   0.165   6.458   3.127  0.2382 -0.7716 -1.3016
11265TIP3   OH255209   5.265   0.327  12.667  0.4238  0.0575  0.5797
11265TIP3    H155210   5.270   0.239  12.705 -2.5995  0.4156  1.9564
11265TIP3    H255211   5.180   0.329  12.623  1.0664  1.8554 -0.6228
11266TIP3   OH255212   4.805   6.178   6.573  0.4852 -0.3035 -0.1470
11266TIP3    H155213   4.898   6.192   6.555  0.5459 -1.7224 -1.0254
11266TIP3    H255214   4.804   6.128   6.654  0.5158 -0.6473 -0.3557
11267TIP3   OH255215   3.865   2.104   5.112  0.0140 -0.0447 -0.2864
11267TIP3    H155216   3.796   2.077   5.172 -1.8680 -1.0400 -2.8223
11267TIP3    H255217   3.925   2.030   5.110  0.4941  0.2930  0.9016
11268TIP3   OH255218   5.731   6.761   0.916 -0.4054  0.6477 -0.4780
11268TIP3    H155219   5.757   6.771   1.008 -1.4712  0.3470 -0.1413
11268TIP3    H255220   5.814   6.758   0.868  0.2090 -0.6937  0.6326
11269TIP3   OH255221   0.618   2.184   3.848 -0.6533 -0.2093  0.4126
11269TIP3    H155222   0.703   2.179   3.805 -0.7566  0.4968  0.1155
11269TIP3    H255223   0.599   2.094   3.874  0.1822 -0.3760  0.4820
11270TIP3   OH255224   3.723   4.306   3.085 -0.4055  0.4783  0.5376
11270TIP3    H155225   3.789   4.322   3.153  0.1240  0.4099  0.0390
11270TIP3    H255226   3.643   4.286   3.134 -0.1774  1.0358  1.1472
11271TIP3   OH255227   3.571   4.189  12.631  0.5049 -0.8985 -0.4172
11271TIP3    H155228   3.596   4.266  12.681 -1.1380 -1.5589  1.4855
11271TIP3    H255229   3.605   4.205  12.543 -0.0531  2.1246 -0.1377
11272TIP3   OH255230   0.112   6.637   2.760  0.3652 -0.4576 -0.1687
11272TIP3    H155231   0.153   6.636   2.847 -1.3050  0.2506  0.6574
11272TIP3    H255232   0.125   6.549   2.726  1.1153 -0.7151  0.7666
11273TIP3   OH255233   5.071   2.233  15.699  0.0006 -0.0997 -0.5635
11273TIP3    H155234   5.014   2.309  15.696  2.2515  1.6097 -1.6943
11273TIP3    H255235   5.112   2.237  15.785 -1.3069 -1.1627  0.1325
11274TIP3   OH255236   3.350   5.358  11.551  0.0796  0.3586  0.0362
11274TIP3    H155237   3.409   5.300  11.599  0.0297 -0.7436 -1.2110
11274TIP3    H255238   3.400   5.439  11.538  0.5304  0.2141  0.8596
11275TIP3   OH255239   1.064   4.637  16.573  0.2051 -0.1115  0.2642
11275TIP3    H155240   1.019   4.607  16.494 -0.0855  0.0712  0.3568
11275TIP3    H255241   1.039   4.729  16.581 -0.9323 -0.5046  1.3506
11276TIP3   OH255242   4.086   3.747   0.004 -0.7842  0.1044 -0.9457
11276TIP3    H155243   4.135   3.671  -0.028 -1.7846 -0.1182 -2.0088
11276TIP3    H255244   4.006   3.710   0.041 -1.0378  0.6079 -0.9902
11277TIP3   OH255245   3.312   0.495  12.434 -0.1175 -0.1125 -0.7145
11277TIP3    H155246   3.302   0.436  12.508  1.6117  0.3769 -0.0603
11277TIP3    H255247   3.401   0.479  12.402 -0.5850  0.2056 -2.2120
11278TIP3   OH255248   3.374   3.405   3.839  0.4431  0.5247 -0.2295
11278TIP3    H155249   3.406   3.357   3.916  1.4974  1.8393  0.1686
11278TIP3    H255250   3.450   3.410   3.781 -0.8581 -2.1271 -2.2238
11279TIP3   OH255251   2.542   3.919   1.536  0.2265 -0.1573  0.3037
11279TIP3    H155252   2.452   3.905   1.508  0.0976  2.3656 -0.6782
11279TIP3    H255253   2.535   3.986   1.605  1.2843 -0.4241  0.6768
11280TIP3   OH255254   3.718   0.661  13.812 -0.4632 -0.4521  0.2929
11280TIP3    H155255   3.647   0.648  13.874  0.1634  0.7279  1.2734
11280TIP3    H255256   3.791   0.611  13.849 -0.4336 -0.7008 -0.0993
11281TIP3   OH255257   3.767   2.878   0.768  0.2174  0.0336 -0.3091
11281TIP3    H155258   3.684   2.922   0.785  0.5806  1.6384 -2.5297
11281TIP3    H255259   3.831   2.925   0.821 -0.3065 -1.4794  1.7481
11282TIP3   OH255260   2.379   2.083   3.752  0.1178 -0.0880 -0.2353
11282TIP3    H155261   2.392   2.009   3.691  1.3370  0.8476 -1.1488
11282TIP3    H255262   2.460   2.085   3.804 -0.9800 -0.9703  1.5373
11283TIP3   OH255263   5.338   5.330   1.428 -0.5726 -0.0279  0.2623
11283TIP3    H155264   5.272   5.284   1.376 -0.6828  0.4139  0.0115
11283TIP3    H255265   5.389   5.261   1.469  0.8541 -0.3946 -2.0705
11284TIP3   OH255266   6.769   4.313   4.767 -0.0001 -0.9881  0.0389
11284TIP3    H155267   6.779   4.337   4.675 -0.3342 -1.0837 -0.0210
11284TIP3    H255268   6.766   4.218   4.767  1.0203 -1.0262  0.2475
11285TIP3   OH255269   3.529   5.960  12.086  0.2376  0.0735  0.2114
11285TIP3    H155270   3.543   6.040  12.036 -0.5120 -0.5521 -1.0324
11285TIP3    H255271   3.434   5.946  12.082  0.2676 -0.3928  1.1654
11286TIP3   OH255272   3.764   0.588  12.988  0.0619  0.4014  0.0580
11286TIP3    H155273   3.777   0.526  12.916  1.6556  0.0081  0.6746
11286TIP3    H255274   3.742   0.671  12.944  0.1662 -0.0431 -0.8495
11287TIP3   OH255275   5.406   6.783   1.132 -0.5054  0.4485 -0.4952
11287TIP3    H155276   5.478   6.839   1.103 -0.7580  0.2011 -1.6157
11287TIP3    H255277   5.447   6.698   1.148 -0.6325  0.1500 -1.6885
11288TIP3   OH255278   0.241   2.139  10.407  0.1640  0.4751 -0.0686
11288TIP3    H155279   0.199   2.083  10.340  0.2647 -0.6211  0.7658
11288TIP3    H255280   0.313   2.086  10.441 -2.0567 -0.4500  3.4323
11289TIP3   OH255281   1.015   3.803   4.860  0.5166  0.0855 -0.2016
11289TIP3    H155282   1.057   3.717   4.865  0.7078  0.1162 -1.1241
11289TIP3    H255283   0.922   3.785   4.868  0.5803 -0.1741 -0.0408
11290TIP3   OH255284   0.260   1.079   5.022 -0.1720 -0.4653  0.2143
11290TIP3    H155285   0.179   1.032   5.041  0.2143 -1.6284 -0.9146
11290TIP3    H255286   0.281   1.054   4.932 -0.1036  2.1016 -0.5178
11291TIP3   OH255287   6.685   3.080  16.120  0.0662 -0.5686  0.0486
11291TIP3    H155288   6.700   2.986  16.135  1.8610 -0.1018  1.3698
11291TIP3    H255289   6.705   3.092  16.027 -2.2255 -1.8519 -0.6501
11292TIP3   OH255290   4.669   4.542  15.412 -0.7395  0.8818 -0.0974
11292TIP3    H155291   4.587   4.591  15.402 -1.6164 -0.6719 -0.7751
11292TIP3    H255292   4.695   4.520  15.323 -1.1239 -1.0480  0.2332
11293TIP3   OH255293   3.904   2.451   0.212  0.1204 -0.2195  0.7015
11293TIP3    H155294   3.827   2.507   0.207  0.0562 -0.4438 -1.6628
11293TIP3    H255295   3.876   2.376   0.265 -1.1414 -0.0868  0.2410
11294TIP3   OH255296   6.440   5.424   2.784 -0.0558  0.2077 -0.0721
11294TIP3    H155297   6.373   5.365   2.818  0.3127 -0.4815 -0.5229
11294TIP3    H255298   6.508   5.424   2.850 -0.6769  1.2331  0.5802
11295TIP3   OH255299   5.624   2.285  11.539 -0.2102 -0.0885  0.4593
11295TIP3    H155300   5.694   2.330  11.586 -0.3459  0.7959 -0.1696
11295TIP3    H255301   5.669   2.220  11.485  0.1988  0.9781 -0.5057
11296TIP3   OH255302   0.136   3.794  16.212  0.1715  0.1091 -0.0099
11296TIP3    H155303   0.176   3.799  16.299 -1.5385 -1.0787  0.8802
11296TIP3    H255304   0.117   3.701  16.201  0.3443  0.2640 -1.6623
11297TIP3   OH255305   5.520   5.566  15.944 -0.1642  0.0958 -0.1483
11297TIP3    H155306   5.474   5.541  15.864 -1.8506 -2.1227  1.4509
11297TIP3    H255307   5.611   5.581  15.917 -0.3085 -2.4333 -2.1567
11298TIP3   OH255308   2.272   3.213   5.494  0.0960 -0.7109 -0.0695
11298TIP3    H155309   2.240   3.255   5.574 -0.4192 -0.5317 -0.3617
11298TIP3    H255310   2.286   3.286   5.433  1.0616 -0.7948  0.0568
11299TIP3   OH255311   0.892   6.046  14.295 -0.2745  0.4689 -0.0042
11299TIP3    H155312   0.899   6.019  14.203 -3.2486 -0.2783 -0.0834
11299TIP3    H255313   0.937   5.977  14.344  0.9900  0.6658 -0.8638
11300TIP3   OH255314   1.564   2.884   4.183  0.9914  0.2379  0.0533
11300TIP3    H155315   1.579   2.902   4.090 -0.4270 -1.6190 -0.5815
11300TIP3    H255316   1.478   2.922   4.201 -0.5682 -2.8703 -0.4806
11301TIP3   OH255317   1.974   0.124   0.711 -0.4026 -0.2127  0.0040
11301TIP3    H155318   2.069   0.133   0.708 -0.2690 -1.6485 -0.3605
11301TIP3    H255319   1.959   0.033   0.736 -1.6799  0.0676  0.2764
11302TIP3   OH255320   1.785   4.761   4.634 -0.0755 -0.2060 -0.0500
11302TIP3    H155321   1.705   4.814   4.632  0.0439 -0.0626 -1.5051
11302TIP3    H255322   1.818   4.764   4.544  0.6410 -1.6730  0.1531
11303TIP3   OH255323   0.749   4.709  13.745 -0.2639 -0.3181 -0.0050
11303TIP3    H155324   0.763   4.804  13.753  1.3120 -0.5517  0.2562
11303TIP3    H255325   0.772   4.690  13.654  0.5617 -0.6253  0.2662
11304TIP3   OH255326   1.792   3.174  15.831 -0.1420  0.5805 -0.0069
11304TIP3    H155327   1.733   3.174  15.906  0.2142 -0.1874  0.2753
11304TIP3    H255328   1.738   3.143  15.758  0.0811 -0.8056  0.3972
11305TIP3   OH255329   5.776   5.205   4.037  0.3680  0.1154  0.3202
11305TIP3    H155330   5.802   5.174   3.951 -0.6709  4.9786 -1.9241
11305TIP3    H255331   5.687   5.172   4.049  1.1824 -2.1097  0.3792
11306TIP3   OH255332   0.005   2.014   5.550  0.8446 -0.2534 -0.1917
11306TIP3    H155333   0.089   2.052   5.524  0.0568  1.5438 -0.2050
11306TIP3    H255334   0.028   1.939   5.605  2.4513  0.9131  0.7637
11307TIP3   OH255335   1.993   0.017   2.414  0.0846 -0.2791 -0.2293
11307TIP3    H155336   1.930   0.044   2.347 -0.0885 -3.4627 -1.4283
11307TIP3    H255337   1.943  -0.039   2.473  1.6613 -2.5513 -0.9851
11308TIP3   OH255338   4.345   4.957  15.960  0.2631 -0.4567  0.0363
11308TIP3    H155339   4.341   4.864  15.984 -0.8426 -1.2073 -2.8629
11308TIP3    H255340   4.439   4.974  15.949  0.4325 -1.4636 -0.1684
11309TIP3   OH255341   5.738   1.589  12.588  0.7540 -0.5057  0.1582
11309TIP3    H155342   5.676   1.566  12.519 -0.1562  0.7987  0.5165
11309TIP3    H255343   5.708   1.539  12.665 -0.4465  0.8290  0.5861
11310TIP3   OH255344   5.002   4.010   4.731  0.3979 -0.1794  0.0185
11310TIP3    H155345   4.922   4.058   4.712  0.3936  0.1339  0.8373
11310TIP3    H255346   4.974   3.920   4.748  0.1021  0.1609  1.3759
11311TIP3   OH255347   3.957   6.691   5.949 -0.1454  0.2580  0.0928
11311TIP3    H155348   3.997   6.609   5.979 -0.5220  0.7566  2.0459
11311TIP3    H255349   3.899   6.665   5.878 -0.8752 -1.2968  1.2335
11312TIP3   OH255350   1.548   0.633  10.432  0.4641 -0.3437  0.0906
11312TIP3    H155351   1.507   0.609  10.515 -1.4451  0.7489 -0.5025
11312TIP3    H255352   1.571   0.725  10.442  0.0175 -0.1439 -0.6709
11313TIP3   OH255353   1.275   6.167   5.714  0.4717  0.4646  0.3405
11313TIP3    H155354   1.228   6.247   5.737  1.2993  0.5388  1.8469
11313TIP3    H255355   1.208   6.099   5.709 -0.3534  1.4119 -1.8136
11314TIP3   OH255356   0.484   0.984  16.572 -0.0250  0.0007 -0.3524
11314TIP3    H155357   0.398   1.027  16.579  0.6281  1.4215 -0.9730
11314TIP3    H255358   0.466   0.892  16.591 -1.8811  0.0891 -1.6228
11315TIP3   OH255359   0.819   0.490   2.603  0.2542  0.3799 -0.6690
11315TIP3    H155360   0.799   0.577   2.638  0.3558 -0.3365  1.2209
11315TIP3    H255361   0.751   0.475   2.538 -0.6561  1.2669  0.0553
11316TIP3   OH255362   2.361   4.583  12.047  0.2301  0.7228  0.3185
11316TIP3    H155363   2.373   4.489  12.060 -0.8150  0.5029 -0.3308
11316TIP3    H255364   2.442   4.622  12.082 -0.0822 -0.2788  2.2493
11317TIP3   OH255365   0.852   4.267   5.936  0.2020 -0.5335 -0.3988
11317TIP3    H155366   0.867   4.261   6.031 -1.6419 -3.2758 -0.2064
11317TIP3    H255367   0.939   4.283   5.899  1.6675 -3.5063  1.5157
11318TIP3   OH255368   0.663   4.641   5.862  0.2002 -0.0594 -0.0788
11318TIP3    H155369   0.742   4.690   5.883  1.8949 -1.8488 -1.9616
11318TIP3    H255370   0.646   4.588   5.939  0.2597  1.0695  0.7141
11319TIP3   OH255371   3.739   6.676   3.216  0.5817  0.0715 -0.1568
11319TIP3    H155372   3.792   6.754   3.201 -1.0851  0.9599 -1.5339
11319TIP3    H255373   3.684   6.697   3.291  0.1684  0.1971 -0.4955
11320TIP3   OH255374   0.967   4.085   0.316  0.2651 -0.2616 -0.7024
11320TIP3    H155375   0.960   4.112   0.224 -1.9958  0.0350 -0.4744
11320TIP3    H255376   0.954   4.165   0.366  0.7407 -0.5595 -0.0950
11321TIP3   OH255377   4.979   3.770  14.047  0.0147  0.4017 -0.3406
11321TIP3    H155378   5.049   3.711  14.019 -1.0176  0.1581 -2.5860
11321TIP3    H255379   5.022   3.855  14.058  1.2127 -0.3992  1.3650
11322TIP3   OH255380   4.360   6.755   0.970 -0.1777  0.3310  0.0986
11322TIP3    H155381   4.293   6.693   1.000  1.2474 -0.8387  0.8968
11322TIP3    H255382   4.327   6.786   0.885 -1.2483 -0.9866  0.0106
11323TIP3   OH255383   6.031   3.815   2.812 -0.3302 -0.1795 -0.4304
11323TIP3    H155384   6.051   3.722   2.818  0.1369  0.0586  2.3075
11323TIP3    H255385   6.115   3.857   2.795  0.2766  0.1187  3.0497
11324TIP3   OH255386   3.845   3.575   0.215  0.5155  0.0425 -0.0131
11324TIP3    H155387   3.920   3.614   0.259 -0.6847  1.5000  0.8244
11324TIP3    H255388   3.794   3.535   0.286 -0.1642  0.2300 -0.3816
11325TIP3   OH255389   5.584   2.523  16.155 -0.1481  0.3271  0.5151
11325TIP3    H155390   5.543   2.456  16.102 -1.2175  1.3818 -0.0205
11325TIP3    H255391   5.676   2.522  16.129 -0.3062 -0.4210 -0.0203
11326TIP3   OH255392   4.296   5.521   6.354 -0.2085  0.1647  0.3096
11326TIP3    H155393   4.317   5.592   6.293 -1.0852  0.8496  0.7926
11326TIP3    H255394   4.343   5.544   6.434  0.3642 -0.3664  0.1366
11327TIP3   OH255395   0.338   4.607   3.814  0.0197 -0.5907 -0.2636
11327TIP3    H155396   0.425   4.572   3.837  0.4760  0.1313 -0.8751
11327TIP3    H255397   0.317   4.564   3.731 -0.1659 -0.6854 -0.1677
11328TIP3   OH255398   0.864   0.850   3.177 -0.3226  0.0912  0.0897
11328TIP3    H155399   0.793   0.904   3.144 -0.9033 -0.2948  0.6975
11328TIP3    H255400   0.874   0.781   3.111  0.0352  0.6087 -0.3997
11329TIP3   OH255401   1.709   4.338   1.560 -0.2953  0.1424 -0.6463
11329TIP3    H155402   1.794   4.303   1.531  0.5743  1.9072 -0.3236
11329TIP3    H255403   1.694   4.297   1.645  1.2426  1.3559  0.2438
11330TIP3   OH255404   2.597   3.331   1.179 -0.2917  0.5177 -0.7078
11330TIP3    H155405   2.657   3.364   1.112 -1.9461  2.9025 -1.0656
11330TIP3    H255406   2.543   3.266   1.133  0.1745  0.3812 -1.0697
11331TIP3   OH255407   0.509   5.238  16.992 -0.3157 -0.1992 -0.1125
11331TIP3    H155408   0.514   5.156  17.041 -0.1100 -1.1303 -1.6672
11331TIP3    H255409   0.597   5.274  16.995 -0.0787 -0.7329 -0.6018
11332TIP3   OH255410   5.035   1.149   6.243 -0.4591  0.0823  0.1300
11332TIP3    H155411   4.950   1.192   6.234 -0.5432 -0.3078 -0.9035
11332TIP3    H255412   5.018   1.057   6.224 -0.6558 -0.8168  4.0785
11333TIP3   OH255413   0.343   4.706  11.893  0.7891  0.2200 -0.0845
11333TIP3    H155414   0.312   4.616  11.889 -1.0289  0.8008  0.6211
11333TIP3    H255415   0.381   4.722  11.806 -1.5522 -0.2949 -1.2457
11334TIP3   OH255416   6.389   3.647  15.419 -0.1610 -0.4668  0.2961
11334TIP3    H155417   6.392   3.700  15.499 -0.2227 -0.7948  0.5155
11334TIP3    H255418   6.308   3.674  15.375 -1.2573 -1.8515  1.4233
11335TIP3   OH255419   6.211   6.730   4.107 -0.4415 -0.0332  0.4583
11335TIP3    H155420   6.132   6.684   4.136  0.2363 -0.4567  1.6461
11335TIP3    H255421   6.190   6.823   4.118 -0.3726 -0.1736  1.8592
11336TIP3   OH255422   1.897   1.257   3.672 -0.2508 -0.2466 -0.7367
11336TIP3    H155423   1.911   1.313   3.596  3.6192  0.3842  0.3507
11336TIP3    H255424   1.951   1.180   3.656  0.4952 -0.1764  1.2789
11337TIP3   OH255425   2.520   4.008  13.937  0.1687  0.3713 -0.1630
11337TIP3    H155426   2.613   4.000  13.959  0.1593 -0.6966 -0.4695
11337TIP3    H255427   2.493   3.918  13.916 -0.7988  0.7579 -0.5886
11338TIP3   OH255428   1.856   2.232  11.271 -0.5945 -0.0335 -0.5295
11338TIP3    H155429   1.839   2.231  11.177 -0.5023  0.8234 -0.5595
11338TIP3    H255430   1.783   2.183  11.309 -1.0158  0.2377 -0.9868
11339TIP3   OH255431   4.338   3.053   2.179 -0.4130 -0.3396  1.0727
11339TIP3    H155432   4.249   3.080   2.155 -0.1517  0.9594  1.5419
11339TIP3    H255433   4.369   3.122   2.238  1.2133 -0.3482  0.2533
11340TIP3   OH255434   5.873   1.886  11.279 -0.4073  0.4051 -0.7544
11340TIP3    H155435   5.787   1.911  11.244 -0.9080 -1.7729 -1.1675
11340TIP3    H255436   5.885   1.796  11.250  1.5941  0.3609  0.1492
11341TIP3   OH255437   6.481   0.204  14.331  0.3998  0.1555 -0.2602
11341TIP3    H155438   6.539   0.163  14.395  0.2429  0.4724  0.0818
11341TIP3    H255439   6.393   0.181  14.359  0.2315  2.0814  0.8655
11342TIP3   OH255440   6.392   3.725   5.635 -0.0364 -0.5905  0.9424
11342TIP3    H155441   6.456   3.716   5.706  1.6770 -1.5837 -0.7086
11342TIP3    H255442   6.346   3.641   5.633  1.0494 -1.1809 -0.1702
11343TIP3   OH255443   2.720   3.328   3.000 -0.5228  0.5597 -0.0062
11343TIP3    H155444   2.731   3.267   3.072  1.4900 -0.7678 -1.3854
11343TIP3    H255445   2.626   3.325   2.979 -0.7981 -0.4052  1.3328
11344TIP3   OH255446   0.507   2.459  16.561  0.4444 -0.8869  0.1110
11344TIP3    H155447   0.422   2.494  16.586  0.6999 -1.2844  1.5893
11344TIP3    H255448   0.505   2.455  16.465 -0.6059  0.5725  0.0684
11345TIP3   OH255449   6.018   4.179  13.821  0.3726 -0.4246 -0.2495
11345TIP3    H155450   6.046   4.092  13.794  1.2031 -0.1278 -0.3404
11345TIP3    H255451   6.066   4.239  13.764  0.4453  0.1246  0.3865
11346TIP3   OH255452   3.543   5.788  13.100  0.4564 -0.0466 -0.3148
11346TIP3    H155453   3.461   5.751  13.134 -0.9748  2.4162 -0.9626
11346TIP3    H255454   3.586   5.826  13.177  1.5645 -2.2990  0.2176
11347TIP3   OH255455   0.704   4.675  14.244 -0.2727 -0.3323  0.5451
11347TIP3    H155456   0.750   4.696  14.163 -0.0459 -2.0459  0.1972
11347TIP3    H255457   0.774   4.652  14.306 -0.5840 -1.9795  0.3091
11348TIP3   OH255458   2.968   5.379   5.505  0.4119 -0.5630  0.7083
11348TIP3    H155459   3.030   5.411   5.440 -0.8170 -0.4152 -0.4110
11348TIP3    H255460   2.991   5.426   5.585  0.5893  0.8505 -0.1446
11349TIP3   OH255461   0.185   5.922  14.256  0.2015 -0.3862 -0.3027
11349TIP3    H155462   0.233   5.974  14.192 -1.6211 -1.0676 -2.2678
11349TIP3    H255463   0.178   5.835  14.216 -0.2299 -1.0537  1.1878
11350TIP3   OH255464   5.508   3.768   3.891 -0.7329 -0.1938  0.2887
11350TIP3    H155465   5.430   3.738   3.938 -0.7003 -0.3423  0.2507
11350TIP3    H255466   5.520   3.703   3.822 -1.4054  0.6103 -0.5902
11351TIP3   OH255467   6.575   6.710   1.602  0.0018  0.2780 -0.1400
11351TIP3    H155468   6.577   6.715   1.698  1.0031 -1.2837 -0.0635
11351TIP3    H255469   6.501   6.766   1.577 -0.3828  0.5667  1.5420
11352TIP3   OH255470   5.712   1.492  16.786 -0.5078  0.1148  0.1584
11352TIP3    H155471   5.737   1.405  16.757 -0.2594  0.1066  0.3968
11352TIP3    H255472   5.630   1.479  16.834  0.2599 -0.1971  1.4254
11353TIP3   OH255473   6.564   5.481   3.252 -0.1553 -0.0609 -0.5256
11353TIP3    H155474   6.558   5.405   3.310 -0.6517  0.7498  0.5178
11353TIP3    H255475   6.641   5.528   3.282 -2.0301  1.9016  1.4303
11354TIP3   OH255476   3.284   3.278   2.932 -0.1091 -0.3745  0.1641
11354TIP3    H155477   3.379   3.288   2.926  0.0062 -2.0636 -1.3065
11354TIP3    H255478   3.250   3.326   2.857 -0.6092  2.2625  2.0222
11355TIP3   OH255479   5.832   0.703  15.098 -0.2972  0.2424 -0.3021
11355TIP3    H155480   5.774   0.636  15.063 -0.2407  0.3613 -0.6180
11355TIP3    H255481   5.868   0.747  15.022 -1.4892  1.6240 -0.0740
11356TIP3   OH255482   4.796   1.492   2.541 -0.0821 -0.4483 -0.3428
11356TIP3    H155483   4.748   1.538   2.610 -0.9504 -1.7549 -0.0592
11356TIP3    H255484   4.761   1.403   2.542  0.7546 -0.8140 -1.6587
11357TIP3   OH255485   0.195   3.575   2.994 -0.6313 -0.3244  0.4824
11357TIP3    H155486   0.100   3.570   2.980 -0.9550  1.4466  1.8122
11357TIP3    H255487   0.228   3.614   2.913 -1.1138 -0.3448  0.2687
11358TIP3   OH255488   0.851   5.266  15.665  0.2350 -0.3463  0.7860
11358TIP3    H155489   0.946   5.255  15.661  0.1438 -1.5339  1.7730
11358TIP3    H255490   0.839   5.361  15.677  1.1286  0.4247 -3.5357
11359TIP3   OH255491   5.054   1.109  13.822  0.1421  0.4556  0.5155
11359TIP3    H155492   5.086   1.184  13.771 -0.5909  0.5056  0.1229
11359TIP3    H255493   5.023   1.148  13.904 -1.5309  0.7814 -0.2433
11360TIP3   OH255494   5.029   2.340   5.153 -0.2227 -0.0307  0.5049
11360TIP3    H155495   5.017   2.294   5.236 -0.6132 -0.5820  0.1447
11360TIP3    H255496   4.943   2.376   5.132 -0.5975 -1.5231 -0.6171
11361TIP3   OH255497   6.238   5.929  10.321  0.4827  0.1504 -0.3027
11361TIP3    H155498   6.318   5.887  10.353 -0.4609 -0.5626  1.1832
11361TIP3    H255499   6.179   5.927  10.396 -1.5039 -0.7787 -1.8654
11362TIP3   OH255500   1.940   5.747  17.186  0.0437 -0.2020 -0.1727
11362TIP3    H155501   1.956   5.757  17.092  1.2347 -0.6185 -0.0305
11362TIP3    H255502   1.891   5.826  17.211  0.5611  0.3787 -0.9607
11363TIP3   OH255503   0.882   3.704   3.134  0.1231 -0.4788  0.2975
11363TIP3    H155504   0.809   3.655   3.096 -0.9921  0.4938  1.1190
11363TIP3    H255505   0.879   3.790   3.091  1.1811 -0.6568 -0.1288
11364TIP3   OH255506   1.868   5.573   1.939  0.0451 -0.3503  0.1842
11364TIP3    H155507   1.939   5.637   1.945 -1.3477  1.2311  0.4225
11364TIP3    H255508   1.887   5.524   1.859  1.0227  0.5249 -0.1368
11365TIP3   OH255509   4.533   3.655  12.127  0.2157 -0.1274 -0.3523
11365TIP3    H155510   4.596   3.624  12.062  2.2206 -3.0060  2.7643
11365TIP3    H255511   4.570   3.737  12.160  1.8909 -1.2917  0.7418
11366TIP3   OH255512   0.735   6.526  13.282 -0.3025 -0.0351 -0.1892
11366TIP3    H155513   0.678   6.538  13.358  0.5031  1.7675  0.1628
11366TIP3    H255514   0.815   6.573  13.304  0.4809 -0.6686 -1.5884
11367TIP3   OH255515   1.906   1.790  13.752  0.5413  0.0996 -0.1166
11367TIP3    H155516   1.850   1.737  13.809 -0.4397  0.0362 -1.1131
11367TIP3    H255517   1.846   1.853  13.713  1.7319  2.1052  1.2131
11368TIP3   OH255518   5.622   2.971   5.016 -0.1363  0.5150  0.5389
11368TIP3    H155519   5.620   2.876   5.013 -1.9348  0.5084  1.4050
11368TIP3    H255520   5.630   2.992   5.109 -2.3281  1.2214  0.5831
11369TIP3   OH255521   2.742   4.115  15.640  0.4521 -0.0148  0.0842
11369TIP3    H155522   2.771   4.106  15.550  2.3355  1.2043  0.5412
11369TIP3    H255523   2.696   4.199  15.642 -0.4073 -0.4760  0.0668
11370TIP3   OH255524   2.282   2.360   5.197  0.5480 -0.0107 -0.3202
11370TIP3    H155525   2.213   2.366   5.132  0.5874  0.5852 -0.3134
11370TIP3    H255526   2.254   2.420   5.267  2.2814  2.1903 -1.4493
11371TIP3   OH255527   3.994   1.744  13.942 -0.2201  0.6415  0.3657
11371TIP3    H155528   3.986   1.827  13.894 -0.7666  0.3780 -0.0065
11371TIP3    H255529   3.928   1.750  14.010 -0.6675  0.2659 -0.0293
11372TIP3   OH255530   3.305   1.430   1.903  0.0191  0.0816 -0.3967
11372TIP3    H155531   3.300   1.453   1.996 -0.8005  2.5477 -1.0202
11372TIP3    H255532   3.360   1.497   1.864 -1.2222  0.2018 -2.0100
11373TIP3   OH255533   0.606   2.865  14.151 -0.3737 -0.3176  1.4124
11373TIP3    H155534   0.591   2.887  14.059 -0.3409 -0.2482  1.4232
11373TIP3    H255535   0.556   2.930  14.199  1.6025  1.2016  1.4896
11374TIP3   OH255536   5.980   3.117   5.394 -0.0683 -0.3541  0.7755
11374TIP3    H155537   5.917   3.087   5.460  0.4925 -0.8064  1.1014
11374TIP3    H255538   6.026   3.038   5.366 -1.0041 -0.3297 -0.9042
11375TIP3   OH255539   5.604   1.788  13.306  0.8893  0.2000 -0.1900
11375TIP3    H155540   5.626   1.782  13.213  0.4638  2.1781 -0.4301
11375TIP3    H255541   5.514   1.754  13.311  0.4892  1.1499 -0.6974
11376TIP3   OH255542   6.175   0.022   0.389 -0.2377 -0.2829 -0.2057
11376TIP3    H155543   6.263   0.060   0.387  0.1545 -1.1618 -0.4228
11376TIP3    H255544   6.118   0.091   0.356  0.2659  0.5619  0.6727
11377TIP3   OH255545   0.124   3.154  13.930 -0.2143 -0.3947  0.0915
11377TIP3    H155546   0.058   3.085  13.939 -0.9941  0.1863 -1.0764
11377TIP3    H255547   0.110   3.189  13.842  0.8330  0.5801  0.3092
11378TIP3   OH255548   0.004   4.079  12.488 -0.1650  0.3361  0.7112
11378TIP3    H155549  -0.013   4.125  12.570 -1.4982  1.6702 -0.2704
11378TIP3    H255550  -0.077   4.029  12.472  0.6992 -1.1815  1.0073
11379TIP3   OH255551   5.751   1.294  10.664  0.1098  0.3224 -0.5774
11379TIP3    H155552   5.667   1.252  10.682 -0.1963  1.1265 -0.1054
11379TIP3    H255553   5.816   1.234  10.700 -0.3809  0.8534  1.2173
11380TIP3   OH255554   3.367   4.925  13.929  0.1513 -0.1199 -0.1383
11380TIP3    H155555   3.349   5.016  13.953  0.1907 -0.1808  0.1272
11380TIP3    H255556   3.456   4.926  13.895  1.0438 -0.4655  2.1192
11381TIP3   OH255557   4.378   1.398   0.161 -0.3123  0.1705 -0.2984
11381TIP3    H155558   4.299   1.373   0.113  0.2252 -1.0718 -0.5520
11381TIP3    H255559   4.438   1.429   0.092 -0.3729  0.6036 -0.1618
11382TIP3   OH255560   0.716   2.927  13.618 -0.4162 -0.2038 -0.7958
11382TIP3    H155561   0.802   2.966  13.634 -0.1430 -0.6581 -1.1647
11382TIP3    H255562   0.657   3.002  13.606 -0.0373  0.1013 -0.7378
11383TIP3   OH255563   4.082   4.266   4.114 -0.2824  0.3892 -0.3693
11383TIP3    H155564   4.012   4.201   4.112 -1.8268  1.9613  0.7674
11383TIP3    H255565   4.137   4.239   4.188 -0.7634  0.2099 -0.0702
11384TIP3   OH255566   1.920   5.202   5.964 -0.4762 -0.2801  0.0849
11384TIP3    H155567   1.974   5.213   5.885 -0.6911 -1.5067 -0.2363
11384TIP3    H255568   1.949   5.120   6.002 -0.0293  0.5407  1.5782
11385TIP3   OH255569   4.215   0.323  13.975  0.7876  0.0475 -0.9229
11385TIP3    H155570   4.256   0.238  13.991  1.5395  0.2763 -1.5950
11385TIP3    H255571   4.152   0.306  13.905  0.8068 -0.0032 -0.9301
11386TIP3   OH255572   5.189   1.174  14.710 -0.4396 -0.1874 -0.4544
11386TIP3    H155573   5.173   1.217  14.794  1.6777  1.3259 -0.7833
11386TIP3    H255574   5.284   1.161  14.708 -0.6585 -1.7445 -1.8862
11387TIP3   OH255575   0.690   3.046   1.983  0.0252  0.2197 -0.3139
11387TIP3    H155576   0.680   2.973   2.044 -0.0870 -1.0560 -1.8555
11387TIP3    H255577   0.767   3.024   1.932 -0.5603  0.7350 -1.4251
11388TIP3   OH255578   0.732   3.435  13.563 -0.1992 -0.0704  0.5205
11388TIP3    H155579   0.702   3.436  13.472  0.0739 -2.2736  0.3847
11388TIP3    H255580   0.659   3.472  13.612 -0.6037  0.5473 -0.5176
11389TIP3   OH255581   2.193   0.878  12.300  0.3057  0.6623 -0.4254
11389TIP3    H155582   2.274   0.926  12.313  0.8622 -0.4188  0.1536
11389TIP3    H255583   2.220   0.789  12.276 -0.6967  0.3929 -0.5979
11390TIP3   OH255584   2.791   5.384  16.518  0.0433  0.1584  0.4160
11390TIP3    H155585   2.725   5.373  16.449 -0.4780 -0.3947  0.9970
11390TIP3    H255586   2.749   5.351  16.597  1.7428 -2.2464  0.3899
11391TIP3   OH255587   6.774   5.160  11.654 -0.6636  0.0116  0.2697
11391TIP3    H155588   6.767   5.131  11.563  0.0651  0.3944  0.0869
11391TIP3    H255589   6.847   5.221  11.654 -0.0728 -0.6835  1.2976
11392TIP3   OH255590   4.608   0.458   3.923 -0.0989  0.2995 -0.3491
11392TIP3    H155591   4.609   0.512   3.843  0.8298 -0.3949 -0.8193
11392TIP3    H255592   4.519   0.423   3.927  0.1526 -0.5304 -1.6827
11393TIP3   OH255593   4.795   6.000  11.615  0.1777 -1.0819 -0.1527
11393TIP3    H155594   4.786   6.046  11.532  1.7930 -1.9085 -0.8047
11393TIP3    H255595   4.889   5.987  11.626  0.1004  0.1331  2.4366
11394TIP3   OH255596   5.279   5.135   0.509  0.3497 -0.1687  0.1993
11394TIP3    H155597   5.311   5.203   0.449 -1.2433 -1.4488 -2.1895
11394TIP3    H255598   5.201   5.174   0.549  0.9269  0.3671  0.8207
11395TIP3   OH255599   5.504   4.835  11.436 -0.4970  0.0876 -0.5665
11395TIP3    H155600   5.576   4.806  11.491 -1.2418  0.5516  0.6818
11395TIP3    H255601   5.544   4.896  11.374  0.3318 -0.3395 -0.4540
11396TIP3   OH255602   3.392   4.994   2.555  0.0237 -0.4150 -0.5822
11396TIP3    H155603   3.372   4.938   2.480 -1.2930  0.9862 -1.3303
11396TIP3    H255604   3.400   5.082   2.518 -0.7089  0.3122  0.9105
11397TIP3   OH255605   1.766   5.204  12.410 -0.2798 -0.3972 -0.0932
11397TIP3    H155606   1.681   5.161  12.400 -0.9691  0.9628 -0.1984
11397TIP3    H255607   1.751   5.294  12.380  1.0587  0.0123  0.4282
11398TIP3   OH255608   4.364   0.752   2.318  0.0008 -0.4416 -0.4087
11398TIP3    H155609   4.368   0.846   2.300 -0.0010  0.0965  2.2519
11398TIP3    H255610   4.272   0.729   2.304  0.2621 -0.3931 -2.4760
11399TIP3   OH255611   5.362   6.583   0.455 -0.2384 -0.6515  0.0078
11399TIP3    H155612   5.410   6.657   0.418 -0.6183 -0.5328 -0.2509
11399TIP3    H255613   5.367   6.515   0.388  0.4495 -1.0016  0.4096
11400TIP3   OH255614   6.602   5.731   2.951  0.1047 -0.0569 -0.0155
11400TIP3    H155615   6.641   5.756   2.868 -1.3692 -0.4597 -0.8554
11400TIP3    H255616   6.660   5.768   3.018  1.3557  0.1703 -1.2135
11401TIP3   OH255617   6.730   0.392  13.756 -0.5799  0.6100  0.2564
11401TIP3    H155618   6.808   0.350  13.720 -0.1120 -0.6741  2.6911
11401TIP3    H255619   6.761   0.439  13.833 -1.9275  1.4582  0.2941
11402TIP3   OH255620   2.841   0.991  12.435  0.2911  0.1083 -0.4071
11402TIP3    H155621   2.894   0.966  12.511  0.5304  2.6278  0.2963
11402TIP3    H255622   2.844   0.914  12.378  0.9535 -1.4521  1.6592
11403TIP3   OH255623   3.229   4.245   4.349  0.1206 -0.6343  0.2773
11403TIP3    H155624   3.195   4.222   4.436 -0.4479 -0.3717  0.1306
11403TIP3    H255625   3.289   4.175   4.327  1.0551 -0.1888  1.3327
11404TIP3   OH255626   2.645   6.209   4.122  0.0390  0.2455 -0.5301
11404TIP3    H155627   2.551   6.229   4.113 -0.1191 -0.2813 -0.0491
11404TIP3    H255628   2.648   6.134   4.182  0.7504  0.0761 -0.7769
11405TIP3   OH255629   0.675   4.284  13.415 -0.2385 -0.1851  0.3180
11405TIP3    H155630   0.701   4.201  13.376  2.0620  0.7814 -0.2948
11405TIP3    H255631   0.617   4.324  13.350  0.3796 -0.3695 -0.3606
11406TIP3   OH255632   4.000   0.574   5.834  0.1633 -0.1290  0.1471
11406TIP3    H155633   3.997   0.534   5.747  3.1797  0.4869 -0.2658
11406TIP3    H255634   3.943   0.518   5.887  0.0439 -1.8193 -1.6858
11407TIP3   OH255635   4.665   5.052   3.991  0.4821 -0.2783  0.3758
11407TIP3    H155636   4.739   5.099   4.028 -0.6929  1.3072  0.7321
11407TIP3    H255637   4.667   4.966   4.034  0.6694  0.6201  2.1697
11408TIP3   OH255638   1.949   2.034  10.818 -0.0898  0.5715 -0.0149
11408TIP3    H155639   1.892   2.021  10.743  0.7858  0.3862 -0.6622
11408TIP3    H255640   1.989   1.948  10.833  0.2362  0.7676  0.2555
11409TIP3   OH255641   5.456   5.141  12.701  0.1998 -0.7428 -0.0176
11409TIP3    H155642   5.431   5.231  12.723 -0.1532 -1.7106  3.9260
11409TIP3    H255643   5.551   5.142  12.699  0.1826 -0.1494 -0.6834
11410TIP3   OH255644   6.537   0.586  12.345  0.1899 -0.2238 -1.0664
11410TIP3    H155645   6.464   0.570  12.286 -0.7688  1.1991 -0.2937
11410TIP3    H255646   6.571   0.672  12.320 -0.0761  0.2896  0.2723
11411TIP3   OH255647   0.176   4.523  14.328  0.0512 -0.0607  0.4297
11411TIP3    H155648   0.203   4.516  14.420  2.4519 -1.7497 -0.3604
11411TIP3    H255649   0.250   4.565  14.284  0.3383 -2.2892 -1.3072
11412TIP3   OH255650   3.100   1.124  16.926  0.5129  0.8575 -0.1085
11412TIP3    H155651   3.181   1.073  16.922 -0.1839 -0.1884 -1.4381
11412TIP3    H255652   3.102   1.178  16.847 -2.0640 -2.3161 -2.4876
11413TIP3   OH255653   5.844   1.155   2.265  0.3326 -0.3148  0.4490
11413TIP3    H155654   5.842   1.091   2.337 -1.2463  0.1821  0.8465
11413TIP3    H255655   5.853   1.240   2.308  0.3168 -0.0886  0.0098
11414TIP3   OH255656   3.351   3.353  14.939 -0.8660  0.3519  0.5146
11414TIP3    H155657   3.262   3.323  14.956 -0.7480  0.7367  1.8763
11414TIP3    H255658   3.347   3.448  14.953 -0.2894  0.4050  0.3314
11415TIP3   OH255659   2.523   5.969  14.952 -0.6247 -0.5162 -0.5255
11415TIP3    H155660   2.563   6.043  14.906 -0.0353 -1.1474 -1.0240
11415TIP3    H255661   2.512   6.000  15.042  2.2497 -0.8010 -0.0289
11416TIP3   OH255662   5.775   0.647   1.453  0.1132 -0.3454 -0.2156
11416TIP3    H155663   5.760   0.726   1.505  0.0860  1.5299 -2.9515
11416TIP3    H255664   5.854   0.668   1.402 -0.5992 -1.6093 -1.8581
11417TIP3   OH255665   2.426   2.943   2.911  0.0926  0.0937  0.2180
11417TIP3    H155666   2.488   2.922   2.981  0.7685 -0.0110 -0.4121
11417TIP3    H255667   2.476   2.935   2.831 -0.6696  0.2784 -0.2839
11418TIP3   OH255668   1.254   3.887  11.614 -0.3389 -0.0475 -0.0978
11418TIP3    H155669   1.338   3.923  11.585 -0.6268  1.6640  1.1245
11418TIP3    H255670   1.267   3.865  11.706 -1.3617  0.7252  0.2467
11419TIP3   OH255671   3.962   5.995   0.063 -0.0952 -0.2960  0.0702
11419TIP3    H155672   3.920   6.081   0.053  1.0935  0.1818 -1.0385
11419TIP3    H255673   3.986   5.970  -0.027  2.7470 -0.1366  0.7372
11420TIP3   OH255674   2.673   1.210   3.382 -0.4770  0.3714  0.2293
11420TIP3    H155675   2.609   1.139   3.378 -1.7554  1.4864  0.6962
11420TIP3    H255676   2.691   1.220   3.476 -1.0985  1.3567  0.2519
11421TIP3   OH255677   0.782   5.039  15.525 -0.3761 -0.0346 -0.8434
11421TIP3    H155678   0.800   5.117  15.578 -3.1591 -0.5260  0.9059
11421TIP3    H255679   0.791   4.966  15.586 -0.6116 -0.8579 -1.7825
11422TIP3   OH255680   3.458   0.936   4.247 -0.6111  0.0480  0.2630
11422TIP3    H155681   3.437   0.864   4.187 -2.1853 -0.4881  1.4372
11422TIP3    H255682   3.381   0.992   4.245  0.4129  1.4697 -0.2626
11423TIP3   OH255683   2.149   4.529   2.454 -0.4028  0.6128 -0.0686
11423TIP3    H155684   2.182   4.527   2.364  0.6362  1.6217  0.2748
11423TIP3    H255685   2.130   4.621   2.471 -2.4248  0.1747  0.1035
11424TIP3   OH255686   1.611   0.667  15.544 -0.7416 -0.5092 -0.1414
11424TIP3    H155687   1.659   0.596  15.588  2.4495  0.0669 -2.4796
11424TIP3    H255688   1.665   0.745  15.560 -1.0974  0.2564 -2.4773
11425TIP3   OH255689   2.029   4.925  12.123  0.0331  0.0947  0.1911
11425TIP3    H155690   2.052   5.000  12.177  1.8923  0.2417 -0.7526
11425TIP3    H255691   1.939   4.905  12.146  0.0014  1.6975  1.5218
11426TIP3   OH255692   4.781   2.641  16.911 -0.0402  0.0328 -0.4103
11426TIP3    H155693   4.869   2.613  16.886 -0.6437 -2.6797  0.3845
11426TIP3    H255694   4.726   2.564  16.898 -1.6236  0.5920  2.5383
11427TIP3   OH255695   5.761   2.569   3.422 -0.3078  0.4502  0.7780
11427TIP3    H155696   5.816   2.563   3.344 -0.8019  2.1677  0.2823
11427TIP3    H255697   5.819   2.544   3.494  0.5330  0.2311  0.0332
11428TIP3   OH255698   0.281   4.612   3.344 -0.0492 -0.4373  0.6041
11428TIP3    H155699   0.330   4.545   3.392 -0.9509 -0.5184  1.4225
11428TIP3    H255700   0.239   4.664   3.413 -0.1051  0.3935 -0.0578
11429TIP3   OH255701   4.817   1.116   3.471  0.7088  0.2543 -0.2846
11429TIP3    H155702   4.909   1.130   3.450  0.9286 -2.2550 -1.1537
11429TIP3    H255703   4.772   1.123   3.387  0.2485  0.2630 -0.0395
11430TIP3   OH255704   2.094   0.334  12.952 -0.9434  0.0766 -0.3812
11430TIP3    H155705   2.113   0.358  13.043  0.5654 -0.7427 -0.4637
11430TIP3    H255706   2.066   0.243  12.957  1.5970 -0.7513 -1.0077
11431TIP3   OH255707   5.494   3.935  11.989  0.1606 -0.6252  0.0659
11431TIP3    H155708   5.493   4.030  11.982 -1.2011 -0.6106  0.3292
11431TIP3    H255709   5.534   3.904  11.908  0.1378  0.1483 -0.2348
11432TIP3   OH255710   3.249   5.274  12.436 -0.1551  0.4369 -0.3774
11432TIP3    H155711   3.203   5.225  12.504  1.4860 -1.3236 -0.5067
11432TIP3    H255712   3.254   5.214  12.362  0.7352  1.2480 -0.9846
11433TIP3   OH255713   6.334   4.985   5.593 -0.6092  0.0054 -0.1853
11433TIP3    H155714   6.394   5.059   5.603 -0.1635 -0.5186  1.0454
11433TIP3    H255715   6.247   5.025   5.593 -0.4863  0.3816  2.4502
11434TIP3   OH255716   4.153   2.287   0.910 -0.6973  0.0036 -0.0317
11434TIP3    H155717   4.095   2.356   0.941 -1.9969 -1.0668 -0.0618
11434TIP3    H255718   4.098   2.230   0.857 -0.4139 -2.7877  2.5219
11435TIP3   OH255719   3.945   3.813  11.786  0.4489  0.2293  0.8244
11435TIP3    H155720   3.995   3.892  11.766 -1.3362  1.1470 -0.1711
11435TIP3    H255721   3.947   3.807  11.882  2.8324 -0.0320  0.7706
11436TIP3   OH255722   3.189   0.751  14.997  0.3730  0.2625 -0.2998
11436TIP3    H155723   3.129   0.711  15.061 -0.5889  0.5050 -1.0256
11436TIP3    H255724   3.144   0.831  14.969  1.2772  0.7053 -0.4867
11437TIP3   OH255725   6.382   3.006  13.436  0.2228 -0.1967 -0.1166
11437TIP3    H155726   6.462   2.996  13.384  0.1264 -1.1983 -0.0908
11437TIP3    H255727   6.341   2.920  13.433 -0.3113  0.0189  0.7674
11438TIP3   OH255728   4.980   3.003   0.629  0.3405  0.4595 -0.3751
11438TIP3    H155729   5.058   2.948   0.619  0.3537  0.5350 -0.7207
11438TIP3    H255730   4.936   2.998   0.544  0.3212  0.9452 -0.3981
11439TIP3   OH255731   1.913   0.253   5.248 -0.3541  0.2502 -0.2417
11439TIP3    H155732   1.902   0.213   5.162 -2.7105  1.4457 -0.5499
11439TIP3    H255733   1.903   0.181   5.310 -0.4989 -0.3182 -0.9254
11440TIP3   OH255734   3.553   4.384   1.461  0.1812 -0.3736 -0.4385
11440TIP3    H155735   3.607   4.462   1.449  0.6062 -0.8162 -1.5143
11440TIP3    H255736   3.616   4.312   1.465 -0.2072 -0.6720  0.5545
11441TIP3   OH255737   6.553   5.142   5.654 -0.3682 -0.5848 -0.3479
11441TIP3    H155738   6.528   5.130   5.746 -0.3989 -1.5929 -0.4802
11441TIP3    H255739   6.649   5.144   5.656 -0.3575 -0.9463 -0.3219
11442TIP3   OH255740   1.129   5.307   1.750  0.2045  0.0301  0.2095
11442TIP3    H155741   1.063   5.265   1.805  0.4290 -0.0222  0.4449
11442TIP3    H255742   1.204   5.317   1.808  0.1281  0.8163  0.1793
11443TIP3   OH255743   6.046   6.547  12.569 -0.3276  0.0600 -0.0011
11443TIP3    H155744   5.989   6.529  12.644 -0.8767  0.7062 -0.2515
11443TIP3    H255745   6.021   6.635  12.542  0.2732  0.0506 -0.5862
11444TIP3   OH255746   4.665   1.313   3.096  0.1635  0.5760 -0.4050
11444TIP3    H155747   4.724   1.257   3.147  0.0233  0.0106 -0.8604
11444TIP3    H255748   4.661   1.272   3.010 -0.4084  0.9580 -0.5632
11445TIP3   OH255749   1.730   4.060  11.754  0.6892 -0.1775 -0.0845
11445TIP3    H155750   1.691   4.137  11.712 -1.3596 -0.9607  0.3267
11445TIP3    H255751   1.793   4.027  11.690  2.5634  2.5923  0.2678
11446TIP3   OH255752   4.647   3.860   3.856 -0.4042  0.6785  0.5610
11446TIP3    H155753   4.719   3.845   3.795 -0.2533  2.0569  0.3787
11446TIP3    H255754   4.605   3.941   3.825 -3.3259 -1.1899 -0.5629
11447TIP3   OH255755   3.840   4.956   5.838 -0.0943  0.2743 -0.1918
11447TIP3    H155756   3.754   4.959   5.796  0.4621  1.3251 -1.2629
11447TIP3    H255757   3.901   4.982   5.769  0.9793  0.5708  0.8650
11448TIP3   OH255758   3.717   5.167   4.631  0.1765  0.5791  0.2251
11448TIP3    H155759   3.766   5.087   4.649 -1.3295 -0.1245  1.3777
11448TIP3    H255760   3.749   5.197   4.547 -0.3280 -2.1160 -0.9877
11449TIP3   OH255761   2.636   3.779  17.159 -0.3427  0.0313 -0.0832
11449TIP3    H155762   2.612   3.796  17.251 -1.7514  1.8876 -0.7772
11449TIP3    H255763   2.586   3.700  17.137 -2.8221  1.5882 -0.2865
11450TIP3   OH255764   0.366   1.639   1.432 -0.0407  0.3052 -0.3883
11450TIP3    H155765   0.420   1.707   1.475 -1.3264 -2.0541  5.4611
11450TIP3    H255766   0.426   1.566   1.420 -0.3523 -0.0287  0.0739
11451TIP3   OH255767   4.273   2.206   1.800 -0.5245 -0.6128  0.2427
11451TIP3    H155768   4.229   2.139   1.853  0.4997 -1.9054 -0.5254
11451TIP3    H255769   4.309   2.267   1.864 -0.1922 -1.5962  1.0041
11452TIP3   OH255770   4.256   1.721   4.997  0.2119  1.1481 -0.3290
11452TIP3    H155771   4.281   1.793   5.054  2.3745  1.4915 -1.6212
11452TIP3    H255772   4.340   1.686   4.966 -0.8686 -0.4712 -1.4715
11453TIP3   OH255773   2.165   1.733   4.592 -0.0148  0.1493 -0.1185
11453TIP3    H155774   2.076   1.769   4.601  0.7357  1.8614  0.6937
11453TIP3    H255775   2.210   1.794   4.534  0.7132 -0.5404 -0.2804
11454TIP3   OH255776   0.337   3.431   3.492 -0.0847 -0.1538  0.3545
11454TIP3    H155777   0.379   3.501   3.442 -0.0458 -0.0920  0.4733
11454TIP3    H255778   0.349   3.353   3.438  0.3948 -0.1843  0.4961
11455TIP3   OH255779   2.522   0.656  12.331  0.1381  0.3187  0.5399
11455TIP3    H155780   2.509   0.648  12.426  1.4406 -0.6275  0.6508
11455TIP3    H255781   2.497   0.570  12.297  0.4474  0.4009  0.1129
11456TIP3   OH255782   2.475   5.153   3.536  0.4588  0.3428 -0.3082
11456TIP3    H155783   2.470   5.063   3.568  0.0629  0.1486 -0.9056
11456TIP3    H255784   2.389   5.190   3.555  0.0120  0.0406 -1.6790
11457TIP3   OH255785   3.017   2.737  11.094 -0.6464  0.1427 -0.1135
11457TIP3    H155786   3.025   2.742  11.189  1.0396 -1.3386 -0.1599
11457TIP3    H255787   2.923   2.727  11.078 -0.7409 -1.8008  1.5192
11458TIP3   OH255788   1.037   2.340   1.297 -0.4580 -0.5057 -0.4973
11458TIP3    H155789   0.964   2.289   1.333 -0.2462  0.8992  1.9759
11458TIP3    H255790   1.036   2.422   1.345  1.1075  0.6354 -2.3306
11459TIP3   OH255791   3.556   4.349   5.001 -0.3208 -0.4035  0.8747
11459TIP3    H155792   3.560   4.444   4.986  0.2625 -0.6753 -0.8807
11459TIP3    H255793   3.645   4.318   4.981 -1.1924 -1.6519 -1.2772
11460TIP3   OH255794   6.416   4.325  11.683 -0.2959 -0.0666 -0.1839
11460TIP3    H155795   6.406   4.320  11.588 -1.0296 -1.1046 -0.0596
11460TIP3    H255796   6.400   4.236  11.714 -0.0300  0.2585  0.9098
11461TIP3   OH255797   2.788   1.719  16.828 -0.2874 -0.4974  0.2159
11461TIP3    H155798   2.863   1.660  16.821  0.8391  0.8664  0.4904
11461TIP3    H255799   2.806   1.789  16.765 -2.6778 -1.5598 -1.6886
11462TIP3   OH255800   1.481   3.711  13.075 -0.4866  0.0032 -0.2295
11462TIP3    H155801   1.465   3.628  13.121  2.7760  0.0758  1.2049
11462TIP3    H255802   1.529   3.764  13.139 -0.5786  2.1753 -1.9125
11463TIP3   OH255803   0.548   4.597   4.605 -1.1422 -0.1883  0.3377
11463TIP3    H155804   0.568   4.540   4.679 -0.8366  0.4436  0.7514
11463TIP3    H255805   0.600   4.562   4.533  1.2458  1.1859  1.2963
11464TIP3   OH255806   0.311   4.633  12.736  0.2014  0.3008  0.2606
11464TIP3    H155807   0.303   4.727  12.754  0.6474  0.5551 -0.8045
11464TIP3    H255808   0.403   4.621  12.711  0.2080 -0.4628  0.6386
11465TIP3   OH255809   0.740   3.384  14.573 -0.0023 -0.5316 -0.5054
11465TIP3    H155810   0.735   3.335  14.491  1.0488  1.3211 -1.7197
11465TIP3    H255811   0.662   3.438  14.573 -0.3464 -1.0246  0.0560
11466TIP3   OH255812   5.879   5.374  10.950  0.4108  0.1207  0.6548
11466TIP3    H155813   5.952   5.355  10.890  1.1323 -0.0560  1.5806
11466TIP3    H255814   5.810   5.315  10.922  1.3295 -1.1713  1.0580
11467TIP3   OH255815   1.844   2.984   5.038 -0.1941 -0.2387 -0.2448
11467TIP3    H155816   1.874   2.961   5.126  2.8285  0.2281 -1.0744
11467TIP3    H255817   1.901   3.057   5.012 -2.7151  1.2835 -1.6234
11468TIP3   OH255818   4.828   6.485  12.420 -0.3258  0.7202  0.3212
11468TIP3    H155819   4.734   6.476  12.403 -0.1367 -1.0667  0.0900
11468TIP3    H255820   4.833   6.518  12.509 -1.1711  0.2982  0.5307
11469TIP3   OH255821   2.837   3.152   5.494  0.0774  0.2601  0.4937
11469TIP3    H155822   2.774   3.188   5.557 -1.5018 -0.2988 -0.7216
11469TIP3    H255823   2.863   3.228   5.441 -0.0924  0.3686  0.5646
11470TIP3   OH255824   3.504   2.276  13.429 -0.4028 -0.1313 -0.4635
11470TIP3    H155825   3.418   2.315  13.444 -0.5623 -0.5642 -0.2663
11470TIP3    H255826   3.498   2.237  13.342 -0.5830 -0.6488 -0.2174
11471TIP3   OH255827   1.695   6.756   1.769 -0.7131  0.1616  0.0452
11471TIP3    H155828   1.728   6.693   1.834 -0.5238 -1.5129 -1.6363
11471TIP3    H255829   1.774   6.792   1.729 -0.8165  1.7254  1.2260
11472TIP3   OH255830   5.056   4.500   4.667 -0.0362  0.3352  0.3116
11472TIP3    H155831   4.986   4.565   4.655 -0.2232 -0.2825 -2.1902
11472TIP3    H255832   5.010   4.417   4.675  0.2941  0.2793  1.8085
11473TIP3   OH255833   1.084   5.485  13.388  0.3998 -0.4058 -0.3979
11473TIP3    H155834   1.165   5.531  13.410 -0.4056  0.6826  0.2696
11473TIP3    H255835   1.071   5.423  13.460 -0.4295  0.8136  0.5138
11474TIP3   OH255836   3.625   6.218  15.170 -0.4390 -0.4583  0.3132
11474TIP3    H155837   3.607   6.212  15.077  3.0003 -0.3685 -0.4266
11474TIP3    H255838   3.649   6.309  15.185  1.5053 -1.0109  0.7543
11475TIP3   OH255839   0.714   6.486   3.746 -0.4460 -0.1239  0.5126
11475TIP3    H155840   0.711   6.572   3.789 -4.8908 -0.8552  1.8973
11475TIP3    H255841   0.715   6.423   3.819  1.7766 -1.3424 -0.5035
11476TIP3   OH255842   3.265   5.279   4.552 -0.6856 -0.7586  0.2707
11476TIP3    H155843   3.216   5.234   4.483 -0.7461  0.8357 -0.7562
11476TIP3    H255844   3.333   5.217   4.577  0.5752 -0.6613 -2.6395
11477TIP3   OH255845   4.487   0.374   5.153 -0.6256  0.1225  0.3611
11477TIP3    H155846   4.466   0.302   5.093 -2.0959  1.6054 -0.9680
11477TIP3    H255847   4.580   0.392   5.137 -0.4847 -0.8552  0.0346
11478TIP3   OH255848   1.840   1.825   1.821 -0.0376 -0.0559  0.9221
11478TIP3    H155849   1.879   1.738   1.812  0.4481  0.1656  0.8905
11478TIP3    H255850   1.861   1.851   1.911  0.9998  0.6077  0.4848
11479TIP3   OH255851   3.774   4.377   5.895  0.7490  0.2603  0.3811
11479TIP3    H155852   3.810   4.385   5.984 -2.4165 -2.7180  2.0747
11479TIP3    H255853   3.684   4.410   5.903  0.3117 -0.4082 -1.6160
11480TIP3   OH255854   3.399   4.428  16.521  0.0465 -0.5624 -0.3232
11480TIP3    H155855   3.425   4.483  16.595 -0.2683 -0.7396 -0.0826
11480TIP3    H255856   3.305   4.415  16.532 -0.6608  2.1213 -2.5591
11481TIP3   OH255857   5.655   2.275  13.731 -0.2167 -0.5236  0.1468
11481TIP3    H155858   5.612   2.347  13.686  0.1495 -0.1969  0.3130
11481TIP3    H255859   5.584   2.232  13.780 -0.5217 -0.5782 -0.3455
11482TIP3   OH255860   2.023   5.641   2.201 -0.8043 -0.3845 -0.3985
11482TIP3    H155861   1.990   5.689   2.276  0.4407  0.4978 -0.4018
11482TIP3    H255862   2.039   5.552   2.234 -0.7424 -0.1350  0.2506
11483TIP3   OH255863   2.741   5.101  14.803 -0.5558  0.4174 -0.6725
11483TIP3    H155864   2.836   5.113  14.804 -0.4084 -0.5454 -1.3512
11483TIP3    H255865   2.724   5.059  14.718 -1.7773  2.0454 -1.2544
11484TIP3   OH255866   6.619   5.863   1.807 -0.0204 -0.5426 -0.1824
11484TIP3    H155867   6.566   5.924   1.755 -1.0442  0.7516  2.2679
11484TIP3    H255868   6.628   5.786   1.752 -2.7933 -0.0239 -1.4704
11485TIP3   OH255869   2.219   5.628  13.199 -0.8043 -0.3402 -0.6732
11485TIP3    H155870   2.212   5.570  13.275 -0.8397 -0.3350 -0.6714
11485TIP3    H255871   2.313   5.641  13.186 -0.8187  1.1660  0.5251
11486TIP3   OH255872   2.111   5.650  11.500 -0.1130  0.3068 -0.2834
11486TIP3    H155873   2.141   5.563  11.475  0.1509 -0.0118  1.1074
11486TIP3    H255874   2.191   5.699  11.519 -0.3054  0.4979  0.0477
11487TIP3   OH255875   5.519   2.172   5.571  0.5901 -0.1100 -0.3165
11487TIP3    H155876   5.554   2.238   5.631 -1.1614  2.6673 -2.1879
11487TIP3    H255877   5.448   2.130   5.619  2.0854 -1.0257  1.0993
11488TIP3   OH255878   4.519   6.256  13.673  0.0054 -0.2517  0.1715
11488TIP3    H155879   4.586   6.315  13.707 -0.3410 -0.4875  1.2882
11488TIP3    H255880   4.545   6.170  13.706 -1.0849 -0.2749  0.9833
11489TIP3   OH255881   2.816   4.175   6.109 -0.3588 -0.1623 -0.1276
11489TIP3    H155882   2.726   4.144   6.116  0.5269 -2.8668 -0.4654
11489TIP3    H255883   2.870   4.097   6.115  1.9604  1.3201 -0.8120
11490TIP3   OH255884   0.147   4.076  13.692 -0.0535  0.1979  0.0507
11490TIP3    H155885   0.157   3.989  13.731 -0.9688 -0.7162 -1.6736
11490TIP3    H255886   0.059   4.103  13.716 -0.2689  0.0417 -0.5399
11491TIP3   OH255887   3.233   5.608   1.457  0.7645 -0.2076 -0.0651
11491TIP3    H155888   3.273   5.671   1.517  1.6851 -2.2345  1.5294
11491TIP3    H255889   3.160   5.656   1.417  2.1006  2.1758  0.2806
11492TIP3   OH255890   2.550   5.147   4.669 -0.3133 -0.0365  0.2859
11492TIP3    H155891   2.526   5.075   4.727  1.4817 -0.1434  0.9145
11492TIP3    H255892   2.552   5.224   4.725  0.8476 -0.0369  0.2559
11493TIP3   OH255893   3.731   5.433   4.907  0.6516  0.5377  0.0756
11493TIP3    H155894   3.775   5.348   4.914  0.3521  0.4303  0.7825
11493TIP3    H255895   3.745   5.473   4.993 -0.4237  0.6048  0.2212
11494TIP3   OH255896   1.007   1.742   4.837 -0.2342 -0.2105  0.0168
11494TIP3    H155897   1.029   1.745   4.930  1.8511  1.2130 -0.4760
11494TIP3    H255898   1.027   1.829   4.804 -1.7402 -0.4371 -1.6157
11495TIP3   OH255899   5.462   2.945   0.426  0.2176  0.3154 -0.2055
11495TIP3    H155900   5.450   3.021   0.368  0.4272  2.1304  2.0502
11495TIP3    H255901   5.498   2.877   0.369  1.8268  2.5000 -1.9184
11496TIP3   OH255902   0.662   0.909   1.602  0.8700  0.1703 -0.1276
11496TIP3    H155903   0.707   0.954   1.531 -1.4512 -0.5677 -2.1458
11496TIP3    H255904   0.578   0.955   1.611  0.2474 -1.0722  0.6610
11497TIP3   OH255905   1.835   2.200  13.900 -0.1871 -0.2724 -0.2437
11497TIP3    H155906   1.799   2.128  13.848  0.0001  0.6664 -1.6717
11497TIP3    H255907   1.873   2.260  13.836 -0.0343  0.9398  0.9648
11498TIP3   OH255908   2.371   3.925   4.649  0.0338 -0.1651  0.4283
11498TIP3    H155909   2.340   3.981   4.578 -0.7797 -3.8577 -2.2789
11498TIP3    H255910   2.464   3.913   4.632  0.2822  0.6308  1.2061
11499TIP3   OH255911   4.941   3.466   5.034 -0.0300 -0.0602 -0.0633
11499TIP3    H155912   5.037   3.474   5.032 -0.1702  2.3538  0.8761
11499TIP3    H255913   4.917   3.437   4.946  1.4421  1.1004 -0.8726
11500TIP3   OH255914   2.847   3.011   3.919  0.0048  0.7260  0.1552
11500TIP3    H155915   2.876   3.037   4.007  1.1299 -0.4262  0.1331
11500TIP3    H255916   2.846   2.915   3.922 -0.0414  0.6842 -1.0730
11501TIP3   OH255917   3.573   2.056  11.709 -0.1279  0.2534 -0.7465
11501TIP3    H155918   3.591   2.048  11.803 -2.8349 -0.7449 -0.2642
11501TIP3    H255919   3.642   2.114  11.676 -0.0304  1.8431  2.1311
11502TIP3   OH255920   4.875   1.352  14.732  0.0670 -0.4266 -0.7578
11502TIP3    H155921   4.870   1.312  14.819  1.5154  0.9603 -0.0108
11502TIP3    H255922   4.879   1.446  14.749  1.0977 -0.1696 -2.2991
11503TIP3   OH255923   1.081   6.291   6.228 -0.1453  0.3992 -0.1680
11503TIP3    H155924   1.171   6.295   6.260 -0.5531  1.2041  0.8956
11503TIP3    H255925   1.040   6.371   6.260 -1.6336 -0.6182  0.5190
11504TIP3   OH255926   5.660   0.788   3.860  0.4467 -0.0466 -0.7580
11504TIP3    H155927   5.600   0.836   3.804 -1.5779  0.3064  1.5941
11504TIP3    H255928   5.747   0.811   3.829 -0.5854  1.6153 -2.4827
11505TIP3   OH255929   0.132   2.330   3.642 -0.0703 -0.0658 -0.7602
11505TIP3    H155930   0.169   2.408   3.603  0.2627  0.1672  0.0167
11505TIP3    H255931   0.189   2.310   3.717  0.4254 -1.6016 -1.5142
11506TIP3   OH255932   3.279   6.144   6.501 -0.0514  0.1058  0.1194
11506TIP3    H155933   3.252   6.064   6.457  1.1137 -0.4797  0.4561
11506TIP3    H255934   3.201   6.200   6.500 -0.8751 -1.0418 -0.0674
11507TIP3   OH255935   3.485   2.345   5.067  0.2789 -0.2858 -0.3293
11507TIP3    H155936   3.478   2.432   5.107  0.8829 -0.6131  0.5166
11507TIP3    H255937   3.578   2.338   5.043  0.3252 -0.8552 -0.0061
11508TIP3   OH255938   1.454   0.652  13.423  0.2426 -0.3380  0.0961
11508TIP3    H155939   1.480   0.650  13.515  0.4207  0.4066  0.0672
11508TIP3    H255940   1.466   0.562  13.393  0.2320 -0.5767  0.7858
11509TIP3   OH255941   0.034   0.651   3.826 -0.3453 -0.0249 -0.1424
11509TIP3    H155942   0.038   0.577   3.887  1.1348 -1.3188 -1.7301
11509TIP3    H255943   0.030   0.609   3.740 -1.5795  1.7625 -0.9679
11510TIP3   OH255944   5.864   4.938   0.351 -0.1489  0.1162  0.4379
11510TIP3    H155945   5.789   4.879   0.348  0.7070 -0.9913  0.4988
11510TIP3    H255946   5.859   4.987   0.269 -0.7836 -0.1382  0.3223
11511TIP3   OH255947   3.385   2.660   6.056 -0.2539 -1.0764  0.1155
11511TIP3    H155948   3.455   2.723   6.043 -1.1493  0.3125  1.9269
11511TIP3    H255949   3.424   2.591   6.110  0.0314 -0.8820  0.1590
11512TIP3   OH255950   5.496   0.144  16.045 -0.1537  0.1991 -0.2710
11512TIP3    H155951   5.474   0.107  16.130 -0.1109 -0.2674 -0.4583
11512TIP3    H255952   5.574   0.096  16.017 -1.0779 -0.7521 -1.2762
11513TIP3   OH255953   5.438   5.682   4.523 -0.1823 -0.5307 -0.4015
11513TIP3    H155954   5.376   5.704   4.593 -1.9993 -2.2054 -1.4467
11513TIP3    H255955   5.504   5.627   4.567 -1.0541 -1.1902  0.0857
11514TIP3   OH255956   0.785   1.688   2.913  0.0657 -0.1837  1.0852
11514TIP3    H155957   0.739   1.734   2.983 -1.0001  1.1561 -0.4414
11514TIP3    H255958   0.716   1.661   2.852  1.0914 -0.0442 -0.1593
11515TIP3   OH255959   3.471   5.276  12.182  0.2263 -0.4697 -0.2396
11515TIP3    H155960   3.493   5.188  12.214 -1.9881 -0.5076  1.3185
11515TIP3    H255961   3.425   5.260  12.100  1.8373 -0.6228 -1.1322
11516TIP3   OH255962   4.335   6.777  13.069 -0.3388  0.4091 -0.5409
11516TIP3    H155963   4.362   6.868  13.076  0.9739  0.0559 -0.9005
11516TIP3    H255964   4.372   6.747  12.986  2.3251 -1.4515  1.2587
11517TIP3   OH255965   6.030   2.444  12.582  0.2098 -0.0119 -0.9498
11517TIP3    H155966   5.962   2.431  12.648 -0.1729  1.6383 -1.0128
11517TIP3    H255967   6.042   2.357  12.544  0.5099 -1.0127  1.3330
11518TIP3   OH255968   6.408   4.830  15.849 -0.2340  0.0645 -0.1552
11518TIP3    H155969   6.378   4.902  15.794  1.0870  1.5364  1.0303
11518TIP3    H255970   6.500   4.849  15.867 -0.1965 -1.2543  1.2155
11519TIP3   OH255971   5.205   0.066   3.935 -0.0601 -0.3843  0.0717
11519TIP3    H155972   5.147   0.136   3.966  0.6866  0.3808 -0.2391
11519TIP3    H255973   5.161   0.032   3.857  0.0003  0.3375 -0.2865
11520TIP3   OH255974   3.520   3.422   2.918  0.8124 -0.2851  0.2228
11520TIP3    H155975   3.556   3.397   3.002 -0.1365 -1.9470  0.1542
11520TIP3    H255976   3.577   3.380   2.853  0.6627 -0.2492  0.0662
11521TIP3   OH255977   6.008   4.361  16.831  0.2644 -0.4922 -0.0113
11521TIP3    H155978   5.948   4.320  16.769  1.4073 -2.2118 -0.0257
11521TIP3    H255979   6.015   4.452  16.801 -0.6401 -0.8286 -1.2864
11522TIP3   OH255980   6.217   3.191  16.252  0.0008  0.0197  0.6220
11522TIP3    H155981   6.304   3.151  16.244 -0.2247 -0.5361  0.9072
11522TIP3    H255982   6.195   3.219  16.163  0.9910  1.2746  0.7618
11523TIP3   OH255983   1.068   5.676   4.701 -0.1977 -0.2420  0.2152
11523TIP3    H155984   1.055   5.633   4.616  0.7402 -0.4631  0.1794
11523TIP3    H255985   1.009   5.752   4.699  0.7124  0.4556 -1.1420
11524TIP3   OH255986   3.216   4.669  15.526  0.1002  0.2398 -0.1233
11524TIP3    H155987   3.260   4.750  15.502 -0.2449  0.9128  1.4340
11524TIP3    H255988   3.193   4.680  15.618 -1.7495 -0.8041 -0.4278
11525TIP3   OH255989   2.606   2.181  10.830 -0.3769  0.2748 -0.5775
11525TIP3    H155990   2.635   2.096  10.797 -0.9836  0.1394 -0.7600
11525TIP3    H255991   2.598   2.169  10.925  2.0823  0.8668 -0.2434
11526TIP3   OH255992   2.202   3.277  14.056  0.2020 -0.1628  0.3074
11526TIP3    H155993   2.288   3.316  14.037  0.5513 -1.8633 -1.8360
11526TIP3    H255994   2.149   3.351  14.085  1.8948  1.2322 -0.0116
11527TIP3   OH255995   6.179   1.927   1.696  0.0957  0.9073 -0.3881
11527TIP3    H155996   6.275   1.931   1.685  0.0582  2.4007 -0.1499
11527TIP3    H255997   6.156   2.007   1.742 -1.3147  0.6634 -0.6472
11528TIP3   OH255998   6.387   1.554  16.587 -0.3935 -0.1242 -0.7020
11528TIP3    H155999   6.444   1.606  16.644  0.2716 -0.3133 -1.1927
11528TIP3    H256000   6.443   1.528  16.514 -0.7946 -1.2990 -0.6032
11529TIP3   OH256001   6.381   0.054  11.838  0.0373  0.4596 -0.2868
11529TIP3    H156002   6.313   0.121  11.845 -1.1542 -0.5774 -1.8572
11529TIP3    H256003   6.335  -0.029  11.845  1.4008 -0.2429  0.6696
11530TIP3   OH256004   2.227   0.207   2.051 -0.7971 -0.0043  0.5731
11530TIP3    H156005   2.260   0.296   2.039 -0.4425 -0.2850 -0.6039
11530TIP3    H256006   2.286   0.168   2.116 -1.8129  1.0584  2.1814
11531TIP3   OH256007   6.619   4.999  16.762 -0.1175 -0.0794  0.3871
11531TIP3    H156008   6.576   4.992  16.847  0.0655 -1.2288  0.3874
11531TIP3    H256009   6.706   4.962  16.775 -0.4732 -1.2912 -0.5652
11532TIP3   OH256010   5.686   1.219   1.580 -0.0017  0.3595  0.0193
11532TIP3    H156011   5.754   1.198   1.516  0.9056  1.7658  0.4982
11532TIP3    H256012   5.730   1.212   1.665 -0.2805  1.8196  0.3046
11533TIP3   OH256013   5.085   5.743  11.120  0.4494  0.4548 -0.6353
11533TIP3    H156014   5.076   5.718  11.212  1.6489  0.6952 -0.4526
11533TIP3    H256015   5.005   5.793  11.101 -0.6868 -1.1739 -0.2509
11534TIP3   OH256016   6.605   0.600   1.901  0.4611 -0.2423  0.0778
11534TIP3    H156017   6.591   0.529   1.963  2.7425  0.5969  1.6121
11534TIP3    H256018   6.697   0.591   1.875  0.7981  2.1724  0.3459
11535TIP3   OH256019   4.633   0.730   1.612 -0.1812  0.1620 -0.1312
11535TIP3    H156020   4.606   0.682   1.690  0.2889  0.2690  0.0998
11535TIP3    H256021   4.609   0.673   1.539 -1.9089  0.6731  0.0138
11536TIP3   OH256022   3.115   3.938  16.502  0.3758 -0.3336 -0.4031
11536TIP3    H156023   3.102   3.905  16.414  0.6406 -0.4993 -0.3807
11536TIP3    H256024   3.030   3.974  16.528  0.4420  0.2210 -0.9359
11537TIP3   OH256025   0.823   1.269  12.262 -0.1726 -0.3271 -0.3459
11537TIP3    H156026   0.854   1.338  12.204 -0.5678  0.3761  0.2792
11537TIP3    H256027   0.850   1.297  12.350  1.4725 -1.9515 -0.2881
11538TIP3   OH256028   4.623   4.454   0.919  0.0062 -0.4871  1.2639
11538TIP3    H156029   4.591   4.542   0.940 -0.9220 -0.7217  0.8599
11538TIP3    H256030   4.616   4.405   1.001  1.6811  0.1398  1.8082
11539TIP3   OH256031   4.769   4.657   1.854 -0.1965  0.2102 -0.1995
11539TIP3    H156032   4.796   4.720   1.787 -0.8632  1.3585  0.5810
11539TIP3    H256033   4.693   4.698   1.896 -0.0777 -0.7024  0.9405
11540TIP3   OH256034   4.013   6.422   5.100  0.2554  0.9072  0.0785
11540TIP3    H156035   3.995   6.457   5.013  2.2812 -0.4550 -0.9246
11540TIP3    H256036   3.982   6.490   5.160 -1.2381  1.8228 -1.6790
11541TIP3   OH256037   2.780   2.163   3.646 -0.6797 -0.1702  0.2203
11541TIP3    H156038   2.721   2.120   3.708  1.2338 -0.9533  1.5325
11541TIP3    H256039   2.859   2.180   3.696  0.1482  1.0478 -1.4639
11542TIP3   OH256040   4.474   0.053   3.585  0.0671  0.2569  0.1427
11542TIP3    H156041   4.525   0.014   3.513  0.9962  0.3831  0.7246
11542TIP3    H256042   4.484   0.148   3.572  1.6941  0.2920  1.4316
11543TIP3   OH256043   2.675   3.007  12.945 -0.3132  0.1147 -0.2869
11543TIP3    H156044   2.592   3.047  12.918  0.5184  2.5036  0.5364
11543TIP3    H256045   2.652   2.956  13.023 -1.5777 -1.8847 -1.9149
11544TIP3   OH256046   1.938   4.048   5.930 -0.0221 -0.0634 -0.0662
11544TIP3    H156047   1.982   3.964   5.938 -0.4920 -0.3540 -0.5283
11544TIP3    H256048   1.846   4.030   5.948  0.1584  0.6857  1.6552
11545TIP3   OH256049   6.020   3.691   5.754 -0.3695  0.2588 -0.1484
11545TIP3    H156050   6.078   3.634   5.704 -0.3810 -0.5931  0.7818
11545TIP3    H256051   5.933   3.674   5.718 -0.2194  0.5329 -0.6383
11546TIP3   OH256052   0.732   3.004  11.989 -0.3269 -0.3435 -0.1849
11546TIP3    H156053   0.767   3.008  11.900 -1.0730  0.3146 -0.4498
11546TIP3    H256054   0.651   3.055  11.986  0.2712  0.7385  1.1620
11547TIP3   OH256055   2.040   1.593   3.011  0.0420 -0.0198  0.2711
11547TIP3    H156056   2.092   1.540   2.951 -0.4001 -0.3959  0.2218
11547TIP3    H256057   1.995   1.656   2.955 -1.3078 -1.1425  0.0758
11548TIP3   OH256058   4.687   4.173  13.520 -0.6500  0.0582  0.1116
11548TIP3    H156059   4.667   4.153  13.429  2.8398  2.8696 -1.4275
11548TIP3    H256060   4.667   4.266  13.529  2.5854  0.7405  1.0438
11549TIP3   OH256061   3.207   2.809  10.925  0.3456 -0.2778  0.8663
11549TIP3    H156062   3.142   2.785  10.991  0.2342  0.5274  1.0565
11549TIP3    H256063   3.268   2.735  10.923 -0.0890 -0.6503  1.3106
11550TIP3   OH256064   1.887   4.049  11.472  0.4298  0.1917 -0.4237
11550TIP3    H156065   1.827   4.065  11.399  1.6019  1.8643 -1.0506
11550TIP3    H256066   1.964   4.008  11.431  0.4760 -0.2475  0.0977
11551TIP3   OH256067   3.984   2.948  14.288  0.2190 -0.5288 -0.8294
11551TIP3    H156068   4.015   3.035  14.264  0.4707 -0.6743 -1.0253
11551TIP3    H256069   4.021   2.931  14.375  1.0586 -0.8945 -1.2604
11552TIP3   OH256070   3.023   0.044   5.990 -0.3738 -0.0232  0.3641
11552TIP3    H156071   3.031   0.121   5.933  0.3576  0.8045  1.5511
11552TIP3    H256072   3.110   0.004   5.987  0.0413  0.7368  1.8667
11553TIP3   OH256073   5.297   1.540  13.909  0.3026  0.2248  0.0006
11553TIP3    H156074   5.240   1.466  13.886  2.6173 -1.4714 -0.5091
11553TIP3    H256075   5.268   1.566  13.996 -0.3487 -1.5184  0.3368
11554TIP3   OH256076   4.629   5.909   4.455 -0.4017  0.1483  0.6267
11554TIP3    H156077   4.691   5.900   4.528  0.8801 -0.0062 -0.4635
11554TIP3    H256078   4.546   5.931   4.497  0.7693  2.1365  2.0006
11555TIP3   OH256079   5.970   0.350  16.187  0.1616  0.6423 -0.3319
11555TIP3    H156080   6.056   0.333  16.227  0.6481  0.3450 -1.4857
11555TIP3    H256081   5.989   0.369  16.096 -0.7831  3.2034 -0.0320
11556TIP3   OH256082   3.662   5.189  11.191 -0.1954 -0.7423 -0.5626
11556TIP3    H156083   3.640   5.258  11.128  0.4527  0.3136  0.3544
11556TIP3    H256084   3.754   5.204  11.213 -0.3259 -1.2978  0.3965
11557TIP3   OH256085   4.864   6.420   4.147 -0.1145 -0.2841  0.5904
11557TIP3    H156086   4.923   6.477   4.196  1.1543 -1.1908  0.1236
11557TIP3    H256087   4.807   6.481   4.099  0.4566  0.5907  1.0044
11558TIP3   OH256088   6.599   3.737  11.035  0.0051 -0.1755  0.2424
11558TIP3    H156089   6.684   3.725  10.992 -0.6761  1.1251 -1.5170
11558TIP3    H256090   6.584   3.832  11.031 -0.9776 -0.2475  1.6679
11559TIP3   OH256091   6.298   5.416   3.396 -0.0100 -0.7443  0.3976
11559TIP3    H156092   6.294   5.399   3.302 -0.0256  0.3230  0.1969
11559TIP3    H256093   6.332   5.505   3.402 -2.1598  0.0589  1.3175
11560TIP3   OH256094   1.991   4.784   1.784  0.3781 -0.5224  0.0469
11560TIP3    H156095   2.084   4.763   1.789 -0.1597 -2.9244  0.6124
11560TIP3    H256096   1.988   4.876   1.759  2.9270  0.6052  3.5376
11561TIP3   OH256097   6.587   3.698  15.823  0.2098  0.5057 -0.0358
11561TIP3    H156098   6.504   3.729  15.859  0.0739 -0.0709  0.1465
11561TIP3    H256099   6.603   3.756  15.748 -1.3970 -0.6620 -1.3309
11562TIP3   OH256100   0.170   5.193   5.212  0.2032  0.4302  0.8289
11562TIP3    H156101   0.147   5.284   5.196 -1.0553  0.4250  2.5061
11562TIP3    H256102   0.093   5.143   5.185  0.9081 -0.1534 -0.1370
11563TIP3   OH256103   2.101   4.767  11.807  0.1861 -0.4854 -0.5624
11563TIP3    H156104   2.115   4.836  11.742  2.5077 -1.5588 -1.2421
11563TIP3    H256105   2.047   4.702  11.761  0.9283 -0.7447 -1.0701
11564TIP3   OH256106   6.496   5.355  15.195 -0.3525 -0.1618 -0.1024
11564TIP3    H156107   6.538   5.413  15.131  0.1719 -0.0358  0.3470
11564TIP3    H256108   6.409   5.393  15.208  0.5420  1.4821  1.3790
11565TIP3   OH256109   4.345   3.373   5.399  0.1797  0.3927  0.3254
11565TIP3    H156110   4.394   3.303   5.443 -0.0785  0.1862  0.2881
11565TIP3    H256111   4.330   3.438   5.467 -1.2600 -0.4664  0.8516
11566TIP3   OH256112   6.214   2.351  16.833  0.5602 -0.0183  0.2819
11566TIP3    H156113   6.233   2.374  16.742 -0.1275 -1.7482 -0.3275
11566TIP3    H256114   6.240   2.428  16.884  1.7854  0.6222 -1.2882
11567TIP3   OH256115   5.443   4.404   1.131 -0.6382 -0.9090  0.1110
11567TIP3    H156116   5.414   4.483   1.177 -0.4039 -0.6002 -0.2617
11567TIP3    H256117   5.535   4.395   1.155 -0.9941 -1.8095  1.1836
11568TIP3   OH256118   2.817   6.728  11.752  0.5626 -0.6366 -0.5961
11568TIP3    H156119   2.797   6.667  11.681  1.6405 -2.0828  0.3080
11568TIP3    H256120   2.875   6.793  11.714 -0.0907 -0.5174 -1.4099
11569TIP3   OH256121   2.080   4.521  16.392  0.1524 -0.1973  0.2930
11569TIP3    H156122   2.083   4.563  16.478 -0.5039  0.1829  0.1404
11569TIP3    H256123   1.998   4.552  16.354  1.5783  1.5655 -1.4507
11570TIP3   OH256124   0.862   2.057  17.060  0.0843  0.3109  0.1215
11570TIP3    H156125   0.891   2.099  17.140 -0.8343  0.1642  0.5319
11570TIP3    H256126   0.779   2.099  17.039 -0.5215 -0.8375  0.1895
11571TIP3   OH256127   3.286   2.161  17.005  0.0495 -0.1921 -0.3997
11571TIP3    H156128   3.197   2.181  17.032 -0.2522 -0.5921 -1.0863
11571TIP3    H256129   3.302   2.072  17.036  1.1890  0.8554  2.1445
11572TIP3   OH256130   2.378   0.493   4.593 -1.0994  0.9011 -0.6825
11572TIP3    H156131   2.444   0.557   4.568  0.6025  0.1744  1.7607
11572TIP3    H256132   2.426   0.410   4.599 -2.7720 -0.1575 -1.3789
11573TIP3   OH256133   4.174   5.506  14.540  0.1982  0.4179  0.3555
11573TIP3    H156134   4.234   5.558  14.594 -0.2344  1.5391 -0.2156
11573TIP3    H256135   4.145   5.435  14.597  1.8779 -0.0039  0.7205
11574TIP3   OH256136   4.420   3.120   3.223  0.1981  0.2721  0.0031
11574TIP3    H156137   4.469   3.182   3.170 -3.8019  1.7425 -2.1870
11574TIP3    H256138   4.417   3.040   3.169 -0.0892  0.3082 -0.0368
11575TIP3   OH256139   0.823   3.003  14.349  0.1946 -0.2801 -0.3935
11575TIP3    H156140   0.758   2.965  14.291  0.5881 -0.8320 -0.4826
11575TIP3    H256141   0.784   3.085  14.379  0.4918  0.6627 -2.4391
11576TIP3   OH256142   3.066   5.249  11.459 -0.8093  0.0876 -0.3912
11576TIP3    H156143   3.148   5.273  11.502 -1.3999  0.1820  0.6921
11576TIP3    H256144   3.046   5.162  11.493  0.2607 -1.0959 -2.7415
11577TIP3   OH256145   0.249   3.018   0.326  0.0007 -0.0078  0.0141
11577TIP3    H156146   0.197   2.988   0.402 -0.4414  0.1480 -0.2274
11577TIP3    H256147   0.235   2.950   0.260 -1.6192  1.0987 -0.8094
11578TIP3   OH256148   0.089   5.768  15.429  0.0329  0.3304 -0.0392
11578TIP3    H156149   0.029   5.739  15.360  1.1701 -0.5725 -0.6679
11578TIP3    H256150   0.125   5.687  15.466  0.1479  0.8303  0.9857
11579TIP3   OH256151   3.072   2.169  13.495 -0.0468 -0.2171 -0.2266
11579TIP3    H156152   3.090   2.231  13.566 -0.6960  0.3122 -0.5168
11579TIP3    H256153   2.978   2.149  13.505  0.2221 -1.3884  0.0526
11580TIP3   OH256154   6.189   4.307   3.467 -0.2142  0.5617  0.0243
11580TIP3    H156155   6.183   4.228   3.414  2.3454  0.1457  0.2904
11580TIP3    H256156   6.215   4.375   3.406 -0.5828  0.8073  0.1380
11581TIP3   OH256157   0.291   6.601  15.741 -0.2390 -0.8609  0.5076
11581TIP3    H156158   0.285   6.533  15.673  2.7902  0.4805 -1.2665
11581TIP3    H256159   0.207   6.599  15.785 -2.0298 -2.4218 -2.7445
11582TIP3   OH256160   2.812   4.875   1.269 -0.7970 -0.2140  0.6022
11582TIP3    H156161   2.762   4.835   1.339 -0.9927  0.5738  0.9085
11582TIP3    H256162   2.771   4.843   1.189 -0.0113 -1.8319  0.8266
11583TIP3   OH256163   4.504   5.517  11.621 -0.1454 -0.0382 -0.9915
11583TIP3    H156164   4.435   5.513  11.687  0.8868  1.2473  0.2117
11583TIP3    H256165   4.471   5.464  11.549 -2.2387  0.2756 -0.3159
11584TIP3   OH256166   3.337   6.478   2.380 -0.1675 -0.1123 -0.3151
11584TIP3    H156167   3.344   6.565   2.342  0.0999 -0.0967 -0.2355
11584TIP3    H256168   3.361   6.489   2.472  0.7334 -0.4143 -0.5046
11585TIP3   OH256169   5.938   3.300  14.346 -0.5793  0.0990 -0.2342
11585TIP3    H156170   5.913   3.210  14.326 -0.8043  0.1792 -0.3103
11585TIP3    H256171   5.892   3.320  14.427 -0.5624  0.1580 -0.2392
11586TIP3   OH256172   2.829   3.798  16.946  0.0779 -0.7053 -0.2691
11586TIP3    H156173   2.769   3.778  17.019 -0.6215 -1.5994 -1.0909
11586TIP3    H256174   2.914   3.768  16.976 -0.1330 -0.7180  0.3346
11587TIP3   OH256175   0.184   0.504  16.037 -0.2409  0.1132 -0.2871
11587TIP3    H156176   0.246   0.450  16.086 -0.0379  0.3007 -0.3334
11587TIP3    H256177   0.165   0.454  15.958 -0.8332 -0.3464  0.1462
11588TIP3   OH256178   3.297   4.699  12.195  0.3927  0.3942 -0.2378
11588TIP3    H156179   3.271   4.660  12.111 -0.6048 -0.2373  0.3400
11588TIP3    H256180   3.223   4.680  12.253  1.1191  0.7329  0.8083
11589TIP3   OH256181   0.264   6.711  16.067  0.0573  0.4541  0.0829
11589TIP3    H156182   0.175   6.678  16.065  0.1571 -0.4571  4.9389
11589TIP3    H256183   0.319   6.637  16.042 -0.4548  0.6854 -1.7507
11590TIP3   OH256184   2.762   3.357   0.949 -0.2065  0.3401  0.3571
11590TIP3    H156185   2.848   3.400   0.947 -0.0666  0.4607  4.8273
11590TIP3    H256186   2.714   3.399   0.877  2.4331  2.5034 -0.2732
11591TIP3   OH256187   5.318   4.151  16.656  0.0868  0.4576 -0.1874
11591TIP3    H156188   5.319   4.190  16.569  1.7447  1.8623  0.4319
11591TIP3    H256189   5.292   4.223  16.714  1.3229  0.1731  0.7448
11592TIP3   OH256190   0.565   6.514   1.188 -0.5009  0.5446 -0.3095
11592TIP3    H156191   0.582   6.588   1.130  1.3027 -0.7191 -1.4730
11592TIP3    H256192   0.535   6.444   1.130  0.5900 -0.5072  0.3465
11593TIP3   OH256193   0.681   6.382  12.388 -0.1683  0.4028 -0.1980
11593TIP3    H156194   0.769   6.358  12.357  0.3311  0.1374  1.4039
11593TIP3    H256195   0.636   6.298  12.398  0.4901  0.3152  2.1863
11594TIP3   OH256196   1.763   3.910   3.383 -0.1769  0.1405 -0.5730
11594TIP3    H156197   1.691   3.922   3.444 -0.1598 -0.2011 -0.4823
11594TIP3    H256198   1.722   3.906   3.297 -0.3127 -0.5201 -0.4787
11595TIP3   OH256199   2.875   3.284  14.644  0.7030  0.0040 -0.1648
11595TIP3    H156200   2.840   3.195  14.645  1.1608 -0.1968 -1.2799
11595TIP3    H256201   2.839   3.324  14.565 -2.5215  2.0737  2.2468
11596TIP3   OH256202   1.265   2.932   0.544  0.1487  0.3034  0.4844
11596TIP3    H156203   1.272   2.869   0.616  0.2493  0.6860  0.8143
11596TIP3    H256204   1.272   3.017   0.587 -1.3052  0.5802  0.2113
11597TIP3   OH256205   2.028   3.043  12.777  0.4384  0.0999 -0.0978
11597TIP3    H156206   2.079   2.980  12.829  1.8060  1.6001  0.4304
11597TIP3    H256207   2.080   3.123  12.780 -0.9527  1.0608 -1.3217
11598TIP3   OH256208   3.561   0.905   2.353 -0.2308 -0.4504  0.0582
11598TIP3    H156209   3.537   0.814   2.366 -1.8378  0.0699  0.8449
11598TIP3    H256210   3.519   0.952   2.424  0.0600  0.9962 -0.6965
11599TIP3   OH256211   2.015   4.521   1.997 -0.7552 -0.0255  0.0135
11599TIP3    H156212   1.955   4.461   2.041 -0.5895 -0.0597  0.1939
11599TIP3    H256213   2.036   4.478   1.914  0.1147 -0.6605  0.5624
11600TIP3   OH256214   1.409   0.465  10.993 -0.2149 -0.4832 -0.1268
11600TIP3    H156215   1.434   0.375  11.011  0.6522 -0.4091 -0.8750
11600TIP3    H256216   1.483   0.500  10.943  0.7763  1.5208  2.6742
11601TIP3   OH256217   2.229   6.784  14.195 -0.2139  0.1651 -0.2292
11601TIP3    H156218   2.174   6.862  14.200 -0.8587 -0.3994  2.0658
11601TIP3    H256219   2.179   6.722  14.141 -1.5945 -0.1364  1.3678
11602TIP3   OH256220   5.735   2.487   0.940 -0.1052 -0.0326 -0.4357
11602TIP3    H156221   5.641   2.508   0.944  0.5523  3.0383 -0.1702
11602TIP3    H256222   5.763   2.484   1.032 -0.4090 -3.5212 -0.3765
11603TIP3   OH256223   0.705   2.944   0.980 -0.0428  0.0621 -0.4428
11603TIP3    H156224   0.643   3.015   0.963 -0.2825  0.2311  1.1033
11603TIP3    H256225   0.661   2.866   0.946 -0.5477  0.3820 -0.5308
11604TIP3   OH256226   4.225   3.137   5.762  0.6763 -0.4361 -0.1212
11604TIP3    H156227   4.187   3.218   5.727  0.6682  0.2888  1.5384
11604TIP3    H256228   4.203   3.138   5.855  0.7946 -2.2905 -0.0588
11605TIP3   OH256229   2.474   6.143   0.432 -0.2385  0.2947  0.2907
11605TIP3    H156230   2.449   6.118   0.343 -1.1950  1.4216  0.2195
11605TIP3    H256231   2.503   6.062   0.473  2.4516  0.1814 -1.7610
11606TIP3   OH256232   0.823   1.031  12.686 -0.1790 -0.1660  0.0343
11606TIP3    H156233   0.884   1.059  12.617 -0.0957 -1.1317 -0.2885
11606TIP3    H256234   0.864   1.059  12.767  1.1155 -1.5538 -0.1204
11607TIP3   OH256235   1.848   0.824   1.669 -0.7098 -0.3054 -0.7047
11607TIP3    H156236   1.806   0.774   1.739 -0.3214  1.1549  0.6037
11607TIP3    H256237   1.931   0.779   1.654 -0.3038  0.0063  0.5562
11608TIP3   OH256238   3.782   1.802   0.309  0.3261 -0.0454 -0.2997
11608TIP3    H156239   3.770   1.762   0.396  2.4837  0.8853  0.4486
11608TIP3    H256240   3.711   1.866   0.303  0.8763  0.7563  1.3121
11609TIP3   OH256241   2.414   3.930  15.203 -0.8178  0.6656 -0.5968
11609TIP3    H156242   2.329   3.892  15.178 -0.6021 -1.9367  2.3987
11609TIP3    H256243   2.478   3.863  15.179  0.1101  1.3107  0.0585
11610TIP3   OH256244   6.732   3.035   1.048 -0.5029  0.8919  0.5887
11610TIP3    H156245   6.801   3.026   1.114 -0.9238 -0.0894  0.9048
11610TIP3    H256246   6.653   3.004   1.092 -0.5407 -1.0298 -0.7827
11611TIP3   OH256247   6.314   3.716   6.790  0.6770  0.2409 -0.5800
11611TIP3    H156248   6.283   3.626   6.805  2.1830 -0.6402 -2.5998
11611TIP3    H256249   6.345   3.716   6.700  0.2344  2.9570 -0.7674
11612TIP3   OH256250   0.044   3.390   3.256 -0.3748 -0.3668 -0.0082
11612TIP3    H156251   0.052   3.367   3.164 -1.9931  0.6828 -0.4209
11612TIP3    H256252   0.056   3.307   3.303  0.5003 -0.8921 -1.1466
11613TIP3   OH256253   0.225   2.602   2.433 -0.5128 -0.2880 -0.6073
11613TIP3    H156254   0.241   2.656   2.355 -0.9646  0.9927  0.1780
11613TIP3    H256255   0.199   2.664   2.500  0.0519 -1.3740  0.6331
11614TIP3   OH256256   0.574   1.660   4.273  0.4542  0.0630  0.3073
11614TIP3    H156257   0.485   1.664   4.308  0.6298 -2.2964  1.1272
11614TIP3    H256258   0.623   1.609   4.337  2.6644  2.1460  0.3480
11615TIP3   OH256259   1.414   6.041   4.306  0.1628  0.3004  0.3762
11615TIP3    H156260   1.507   6.024   4.316 -0.0270 -0.8626  0.2601
11615TIP3    H256261   1.409   6.114   4.245  0.9768 -0.2769 -0.3999
11616TIP3   OH256262   1.570   5.962   0.288  0.7356  0.4185 -0.1245
11616TIP3    H156263   1.592   5.916   0.369  0.2903  0.6906  0.1560
11616TIP3    H256264   1.512   5.901   0.242  0.2794  0.6236  0.1707
11617TIP3   OH256265   6.186   2.214   0.294 -0.0506  0.4988 -0.2569
11617TIP3    H156266   6.224   2.301   0.281  0.8666 -0.2448 -2.9448
11617TIP3    H256267   6.235   2.158   0.234 -2.9453 -1.2144 -1.0997
11618TIP3   OH256268   5.373   2.134   2.893  0.5579  0.0018 -0.2393
11618TIP3    H156269   5.285   2.100   2.878  0.3152  0.9189 -0.9302
11618TIP3    H256270   5.404   2.161   2.807  0.3245  2.5029  0.4097
11619TIP3   OH256271   6.244   3.936  12.427  0.2670 -0.0152 -0.1793
11619TIP3    H156272   6.294   3.885  12.491  0.1345 -0.1003 -0.1431
11619TIP3    H256273   6.154   3.904  12.435  0.5618 -1.2866 -1.6555
11620TIP3   OH256274   3.088   2.906   4.382  0.3472 -0.1499 -0.8937
11620TIP3    H156275   3.156   2.962   4.420 -1.8271  2.1572 -0.2557
11620TIP3    H256276   3.124   2.817   4.388  1.9499  0.6482  2.4286
11621TIP3   OH256277   0.048   3.583  11.698  0.3527 -0.0050  0.2161
11621TIP3    H156278  -0.039   3.622  11.691  0.4646  0.4183  1.0591
11621TIP3    H256279   0.058   3.532  11.618 -0.6834 -0.0936  0.1319
11622TIP3   OH256280   0.269   4.062   4.730  0.0510  0.2028  0.0428
11622TIP3    H156281   0.265   4.141   4.784 -0.0654  1.2501 -1.4821
11622TIP3    H256282   0.240   3.992   4.789  2.1762  0.9317  2.0309
11623TIP3   OH256283   1.293   2.117  13.991 -0.3000  0.5191 -0.4010
11623TIP3    H156284   1.266   2.060  13.918 -0.7909 -1.3090  1.1561
11623TIP3    H256285   1.382   2.088  14.012 -1.2808 -1.1160  1.7082
11624TIP3   OH256286   2.361   2.992   5.989  0.1108  0.4403  0.1191
11624TIP3    H156287   2.291   2.934   5.961 -0.6332  0.9001  1.0059
11624TIP3    H256288   2.382   2.962   6.078 -0.3829  1.6243  0.6416
11625TIP3   OH256289   4.042   3.695   0.342 -0.4066 -0.3572  0.5399
11625TIP3    H156290   4.061   3.703   0.435 -0.6265 -0.3156  0.5816
11625TIP3    H256291   4.092   3.766   0.301 -0.3823 -0.3189  0.6357
11626TIP3   OH256292   1.941   3.565   6.000 -0.1176 -0.2125  0.3321
11626TIP3    H156293   2.004   3.601   6.062 -1.6375  0.4979  1.4872
11626TIP3    H256294   1.888   3.640   5.972 -0.9410 -0.9217 -0.0439
11627TIP3   OH256295   3.234   0.709  11.306 -0.2844  0.0403 -0.1676
11627TIP3    H156296   3.149   0.670  11.285 -0.6867  1.0131 -0.3635
11627TIP3    H256297   3.256   0.762  11.229 -0.2097  0.9982  0.5012
11628TIP3   OH256298   0.660   3.203   1.288  0.1347 -0.0857 -0.1427
11628TIP3    H156299   0.633   3.222   1.199 -1.0174 -1.7089 -0.1684
11628TIP3    H256300   0.594   3.142   1.321  2.1718 -1.8817  0.7881
11629TIP3   OH256301   3.977   4.531  11.704 -0.2724  0.2200 -0.1533
11629TIP3    H156302   4.026   4.459  11.743  1.2305  0.7953 -0.9626
11629TIP3    H256303   4.035   4.567  11.638 -2.4890 -0.2179 -2.3902
11630TIP3   OH256304   2.852   4.539  15.336  0.0687  0.5635  0.2923
11630TIP3    H156305   2.895   4.486  15.269 -2.1481 -0.1505 -0.6180
11630TIP3    H256306   2.883   4.503  15.419  1.2541  0.1048 -0.3428
11631TIP3   OH256307   4.693   0.230   4.290 -0.5651  0.2299  0.5633
11631TIP3    H156308   4.743   0.166   4.239 -0.1319  0.6477  0.4590
11631TIP3    H256309   4.743   0.311   4.282 -1.6739  0.8450 -0.1712
11632TIP3   OH256310   3.778   1.750  12.696  0.6209 -0.5363 -0.3488
11632TIP3    H156311   3.713   1.815  12.722 -0.8828 -1.1991 -2.3256
11632TIP3    H256312   3.764   1.676  12.754  1.2779  0.2675  0.8554
11633TIP3   OH256313   2.918   4.671  12.832 -0.2082  0.1987 -0.4887
11633TIP3    H156314   2.999   4.720  12.815 -0.2617  0.6507  0.5556
11633TIP3    H256315   2.934   4.585  12.793  1.5446 -0.3795  1.4179
11634TIP3   OH256316   2.183   5.821   0.059 -0.9447 -0.0561  0.1878
11634TIP3    H156317   2.116   5.781   0.003  0.0633 -1.8161  0.1903
11634TIP3    H256318   2.266   5.791   0.022 -0.1011  2.6164 -0.1976
11635TIP3   OH256319   3.254   0.727   4.729  0.1716  0.4523 -0.1428
11635TIP3    H156320   3.342   0.723   4.766  0.1131 -0.6982 -0.1088
11635TIP3    H256321   3.222   0.637   4.733 -1.3041  0.9927  0.5506
11636TIP3   OH256322   2.579   4.729   1.271 -0.0418 -0.2079 -0.0524
11636TIP3    H156323   2.529   4.796   1.225  0.6610 -1.1273 -2.2110
11636TIP3    H256324   2.520   4.697   1.340 -1.3533  0.7258 -0.7426
11637TIP3   OH256325   0.076   0.551  10.981  0.5140  0.4444 -0.1392
11637TIP3    H156326   0.016   0.616  10.946  0.6847  0.8209  0.2594
11637TIP3    H256327   0.124   0.519  10.905 -0.2821  0.0417 -0.4754
11638TIP3   OH256328   0.047   3.203   2.615  0.1320 -0.4670 -0.1124
11638TIP3    H156329   0.061   3.178   2.524 -0.4573  0.2562 -0.4091
11638TIP3    H256330   0.086   3.290   2.622 -0.5934 -0.1560  0.0992
11639TIP3   OH256331   0.154   5.983  11.730 -0.2370  0.2664  0.1294
11639TIP3    H156332   0.115   5.962  11.645  0.0414 -0.5930  0.2065
11639TIP3    H256333   0.140   6.077  11.740 -1.6348  0.1029 -0.1734
11640TIP3   OH256334   6.133   2.538  11.466  0.0620  0.0746 -0.0411
11640TIP3    H156335   6.165   2.574  11.383  0.0591  1.3894  0.5079
11640TIP3    H256336   6.196   2.470  11.489  1.8567  1.8369  0.4441
11641TIP3   OH256337   3.040   5.289  16.612  0.0610 -0.2677 -0.5307
11641TIP3    H156338   3.100   5.362  16.595  0.5991 -0.4590  0.5267
11641TIP3    H256339   2.956   5.320  16.579  0.1513  1.0976  0.4543
11642TIP3   OH256340   6.663   2.610  17.108  0.2366 -0.4093 -0.0703
11642TIP3    H156341   6.632   2.553  17.038  2.3093  1.7056 -2.7998
11642TIP3    H256342   6.593   2.674  17.120  0.3392 -0.1115 -1.0121
11643TIP3   OH256343   3.535   2.226  14.065  0.1267  0.2955 -0.4782
11643TIP3    H156344   3.515   2.319  14.079  1.0576  0.2513  1.3617
11643TIP3    H256345   3.594   2.225  13.990  1.0643  1.3266  0.2234
11644TIP3   OH256346   4.150   5.372  13.245 -0.3902  0.1971 -0.1575
11644TIP3    H156347   4.129   5.465  13.259  0.2334  0.5643 -1.5568
11644TIP3    H256348   4.166   5.365  13.151 -0.3307 -1.3186 -0.0498
11645TIP3   OH256349   3.503   1.622  11.872 -0.1088  0.1902  0.1376
11645TIP3    H156350   3.463   1.555  11.816 -0.3645  0.1382  0.3831
11645TIP3    H256351   3.547   1.572  11.942 -0.0037  0.2667  0.1261
11646TIP3   OH256352   0.673   3.321   0.112 -0.2399 -0.6203  0.1368
11646TIP3    H156353   0.694   3.296   0.022  1.1666  0.6793  0.0842
11646TIP3    H256354   0.609   3.257   0.141 -1.2759 -0.6022 -2.0560
11647TIP3   OH256355   0.496   6.524  15.127 -0.0899 -0.2853  0.0519
11647TIP3    H156356   0.497   6.431  15.104  0.3739 -0.5558  1.1616
11647TIP3    H256357   0.512   6.569  15.044  0.7335 -1.2262 -0.3066
11648TIP3   OH256358   0.828   5.540  15.735 -0.4432  0.0375  0.4524
11648TIP3    H156359   0.918   5.569  15.744  0.1062 -0.0412 -3.6877
11648TIP3    H256360   0.777   5.620  15.726 -0.1916  0.0202 -1.3486
11649TIP3   OH256361   2.790   0.133   1.237  0.3256  0.8642  0.0148
11649TIP3    H156362   2.704   0.105   1.205 -0.4042  0.3878  2.2597
11649TIP3    H256363   2.853   0.082   1.186 -0.7747  0.3884 -0.8843
11650TIP3   OH256364   0.163   3.867  13.862  0.2228 -0.4909 -0.1926
11650TIP3    H156365   0.232   3.910  13.911 -0.4481 -0.3400  0.6314
11650TIP3    H256366   0.170   3.774  13.886 -0.3362 -0.3613  0.4637
11651TIP3   OH256367   1.215   2.671   0.920 -0.0642  0.0130  0.5823
11651TIP3    H156368   1.233   2.670   0.826 -0.1383  0.7735  0.5514
11651TIP3    H256369   1.157   2.597   0.936  0.4728 -0.4978  0.1316
11652TIP3   OH256370   5.386   2.413  11.356  0.0986  0.2097 -0.0930
11652TIP3    H156371   5.382   2.460  11.273  1.7223 -0.6459 -0.6630
11652TIP3    H256372   5.479   2.393  11.368 -0.0577  0.6667  2.1180
11653TIP3   OH256373   4.794   3.836   4.187 -0.2205 -0.5513 -0.4282
11653TIP3    H156374   4.860   3.793   4.241  0.6346 -0.6753 -1.5337
11653TIP3    H256375   4.844   3.871   4.113 -0.7337  3.1992  0.9096
11654TIP3   OH256376   2.725   6.209   1.279 -0.3108  0.0647  0.3147
11654TIP3    H156377   2.819   6.209   1.262 -0.5474  0.5912 -1.0194
11654TIP3    H256378   2.718   6.193   1.373  1.0737 -1.5222  0.1735
11655TIP3   OH256379   4.198   4.392  14.935 -0.0629 -0.0631 -0.3046
11655TIP3    H156380   4.114   4.415  14.894 -0.1832 -0.8066 -0.5003
11655TIP3    H256381   4.197   4.296  14.937 -0.0014 -0.0485  1.3162
11656TIP3   OH256382   3.030   0.782  17.000 -0.1479  0.2756  0.0109
11656TIP3    H156383   2.997   0.830  16.925 -1.0806 -1.1824 -0.5286
11656TIP3    H256384   2.956   0.730  17.031  1.0659 -1.4910  0.0303
11657TIP3   OH256385   2.057   3.355  12.839  0.0728  0.0871  0.3292
11657TIP3    H156386   2.144   3.390  12.857 -0.1549  0.5717  0.5054
11657TIP3    H256387   2.029   3.316  12.923  0.5142 -0.9391  0.0081
11658TIP3   OH256388   6.765   1.646   1.705  0.1324  0.4913 -0.1674
11658TIP3    H156389   6.810   1.728   1.727 -3.3155  1.8480  2.4635
11658TIP3    H256390   6.745   1.606   1.790  0.5442 -2.4365 -1.3790
11659TIP3   OH256391   0.871   4.604   1.831  0.1273  0.3284  0.3661
11659TIP3    H156392   0.929   4.577   1.902  0.7717 -1.4066 -0.7839
11659TIP3    H256393   0.783   4.589   1.865  0.3740  1.0892  1.3894
11660TIP3   OH256394   1.516   0.203   0.419  0.3099  0.6839 -0.2213
11660TIP3    H156395   1.609   0.212   0.399  0.5915 -2.0122 -0.3581
11660TIP3    H256396   1.514   0.197   0.515  0.4532 -0.8128 -0.3038
11661TIP3   OH256397   2.141   1.181  16.396 -0.4326 -0.4350  0.3687
11661TIP3    H156398   2.185   1.135  16.324 -2.7205 -1.2798 -0.5379
11661TIP3    H256399   2.091   1.251  16.353 -0.0217  0.4968  1.3768
11662TIP3   OH256400   5.668   2.719  11.088 -0.3961 -0.0548  0.4905
11662TIP3    H156401   5.668   2.806  11.049  0.0223  0.1982  1.0448
11662TIP3    H256402   5.759   2.692  11.090 -0.6692 -1.1300 -1.0236
11663TIP3   OH256403   3.855   3.417  11.335 -0.2487  0.0828  0.2089
11663TIP3    H156404   3.793   3.368  11.389  1.5929 -0.6740  1.7024
11663TIP3    H256405   3.896   3.479  11.396 -0.0624  1.0700 -0.9148
11664TIP3   OH256406   1.652   5.843  12.361  0.1630  0.2275  0.1614
11664TIP3    H156407   1.673   5.845  12.455 -1.4673  1.3453  0.5205
11664TIP3    H256408   1.647   5.935  12.336  1.4762 -0.0635 -1.2511
11665TIP3   OH256409   3.970   6.233  13.698 -0.1472  0.2950 -0.0285
11665TIP3    H156410   3.936   6.255  13.785  3.7171  2.1469  1.1585
11665TIP3    H256411   4.006   6.145  13.709  0.3861  0.5476  0.3154
11666TIP3   OH256412   3.868   1.588   0.159  0.5372 -0.2926 -0.0198
11666TIP3    H156413   3.835   1.667   0.202  0.9587  0.1622 -0.5349
11666TIP3    H256414   3.940   1.559   0.215 -0.3376 -0.9619  0.7910
11667TIP3   OH256415   0.180   2.468   5.594 -0.0813 -0.5949  0.3237
11667TIP3    H156416   0.201   2.481   5.686 -1.0531  1.0377  0.3217
11667TIP3    H256417   0.098   2.419   5.594 -0.4231 -0.0227  0.3267
11668TIP3   OH256418   1.238   5.782  13.936 -0.7575  0.0034  0.3662
11668TIP3    H156419   1.175   5.711  13.940 -0.2917 -0.5249 -1.1044
11668TIP3    H256420   1.221   5.824  13.852  2.3679 -1.6403 -1.2057
11669TIP3   OH256421   1.745   0.810  16.890 -0.0044  0.3627  0.3698
11669TIP3    H156422   1.741   0.848  16.978  2.5086  0.2487  0.5529
11669TIP3    H256423   1.760   0.885  16.832 -1.5830  0.4290  0.0297
11670TIP3   OH256424   5.049   4.678   1.451 -0.2544 -0.0366  0.2471
11670TIP3    H156425   5.090   4.712   1.372 -0.3944  0.3958  0.3612
11670TIP3    H256426   5.122   4.664   1.512 -0.4520  2.3878  1.0683
11671TIP3   OH256427   4.517   3.460   2.639 -0.1595 -0.0891  0.2122
11671TIP3    H156428   4.441   3.517   2.653 -0.0136 -0.2470  1.8103
11671TIP3    H256429   4.589   3.521   2.622 -0.8502  0.0162 -2.4620
11672TIP3   OH256430   1.572   5.645  17.007  0.1320 -0.4481 -0.0757
11672TIP3    H156431   1.606   5.684  16.926 -2.1769 -0.1866 -0.9639
11672TIP3    H256432   1.560   5.552  16.986  0.8462 -0.6581  0.4239
11673TIP3   OH256433   3.920   6.537   2.258 -0.1790 -0.2005 -0.2423
11673TIP3    H156434   4.005   6.532   2.214 -0.3953 -1.0523 -0.5706
11673TIP3    H256435   3.893   6.628   2.246 -0.5565 -0.5659 -2.5155
11674TIP3   OH256436   1.358   6.365   4.553  0.2909  0.0876 -0.5594
11674TIP3    H156437   1.288   6.391   4.494 -0.4169 -0.1387  0.1662
11674TIP3    H256438   1.334   6.404   4.637  1.1632  0.2098 -0.3560
11675TIP3   OH256439   2.036   4.900   5.699  0.6037  0.9486 -0.0251
11675TIP3    H156440   2.125   4.865   5.696  0.5241  0.5185  1.7207
11675TIP3    H256441   1.988   4.835   5.751 -0.4699  1.7281 -0.0421
11676TIP3   OH256442   5.868   5.394  10.490 -0.3125  0.1565  0.5577
11676TIP3    H156443   5.799   5.343  10.531 -0.1461  0.6364  1.4386
11676TIP3    H256444   5.925   5.421  10.563  1.4640 -1.2507 -0.2763
11677TIP3   OH256445   2.228   1.861   2.533  0.6150  0.1258 -0.4364
11677TIP3    H156446   2.208   1.770   2.557 -0.2473 -0.3304 -2.7693
11677TIP3    H256447   2.311   1.855   2.487 -0.0929  0.2963 -1.7790
11678TIP3   OH256448   3.932   0.545  16.677  0.0840  0.4740  0.9973
11678TIP3    H156449   3.913   0.467  16.730 -1.0842 -1.5553 -2.2826
11678TIP3    H256450   3.848   0.591  16.671  0.4571  1.2756  1.7486
11679TIP3   OH256451   1.701   3.244  12.895 -0.1414  0.9171 -0.4247
11679TIP3    H156452   1.768   3.278  12.954 -1.7985 -2.6477  3.7587
11679TIP3    H256453   1.746   3.178  12.843  0.4963  1.4419 -0.5414
11680TIP3   OH256454   5.883   6.470   4.016 -0.4101  0.1976 -0.1635
11680TIP3    H156455   5.969   6.429   4.011 -0.2030  0.6508 -0.4047
11680TIP3    H256456   5.833   6.416   4.077  0.6799  1.0446  1.5319
11681TIP3   OH256457   0.417   0.098  12.516  0.4028 -0.7384  0.3089
11681TIP3    H156458   0.327   0.129  12.502  0.5607 -0.8311 -0.9356
11681TIP3    H256459   0.467   0.177  12.534  0.3950 -0.5080 -0.6938
11682TIP3   OH256460   1.486   0.233  13.920 -0.0197  0.3241 -0.2203
11682TIP3    H156461   1.489   0.328  13.930  1.0375  0.0633  2.1912
11682TIP3    H256462   1.496   0.218  13.826  0.9246  2.5580 -0.4948
11683TIP3   OH256463   6.785   5.912  11.517  0.1046 -0.5697 -0.0675
11683TIP3    H156464   6.734   5.951  11.446  0.8611 -0.7045 -0.6859
11683TIP3    H256465   6.727   5.843  11.551 -0.3601 -0.3464 -0.3898
11684TIP3   OH256466   2.897   3.715   0.084 -0.2025 -0.2037  0.1548
11684TIP3    H156467   2.809   3.744   0.062  0.3525  1.4422  0.0342
11684TIP3    H256468   2.953   3.791   0.067  1.4967 -1.7604 -1.4883
11685TIP3   OH256469   4.503   1.620   6.499  0.5457  0.1909  0.0911
11685TIP3    H156470   4.554   1.693   6.465 -0.6003  0.5751 -0.8430
11685TIP3    H256471   4.422   1.661   6.530  0.2614 -0.5760  0.3546
11686TIP3   OH256472   1.060   5.035  11.878 -0.1427  0.5773  0.3698
11686TIP3    H156473   1.053   4.940  11.884 -0.5403  0.6334  0.8173
11686TIP3    H256474   1.141   5.050  11.830  0.6321  0.0335  1.4930
11687TIP3   OH256475   1.082   5.454   4.946 -0.0781  0.1518  0.3531
11687TIP3    H156476   1.062   5.546   4.961 -2.0590 -0.1266 -0.4577
11687TIP3    H256477   1.157   5.455   4.887 -0.7876  1.2571 -0.5447
11688TIP3   OH256478   0.272   0.785   3.482  0.0041 -0.3348  0.0512
11688TIP3    H156479   0.185   0.760   3.450 -0.6781  1.8462  0.0827
11688TIP3    H256480   0.255   0.859   3.541  1.8260 -0.3177  0.5838
11689TIP3   OH256481   2.330   1.882   4.404  0.5044 -0.1711  0.5306
11689TIP3    H156482   2.412   1.927   4.425  0.2334  1.3249 -1.4476
11689TIP3    H256483   2.284   1.941   4.344 -2.0702 -0.9517  1.6432
11690TIP3   OH256484   5.372   2.452   4.759  0.5295 -0.4885 -0.3125
11690TIP3    H156485   5.353   2.385   4.824  2.9070 -0.7373  0.1735
11690TIP3    H256486   5.433   2.410   4.698 -0.6041  0.1688 -1.9400
11691TIP3   OH256487   2.037   4.555   4.237 -0.1991  0.5802  0.4088
11691TIP3    H156488   2.048   4.495   4.163  0.9812  1.3330 -0.0292
11691TIP3    H256489   2.054   4.642   4.201 -0.6966  1.0686  1.3184
11692TIP3   OH256490   5.524   0.917   1.217 -0.7212 -0.2443 -0.1535
11692TIP3    H156491   5.452   0.862   1.246  0.5071 -1.2340  1.1078
11692TIP3    H256492   5.513   1.000   1.264 -0.2878 -0.8677  1.0498
11693TIP3   OH256493   1.813   6.269  11.213 -0.9145  0.4487 -0.5758
11693TIP3    H156494   1.724   6.284  11.244 -0.8236  0.6387 -0.4012
11693TIP3    H256495   1.804   6.203  11.145 -1.0333 -0.5261  0.3750
11694TIP3   OH256496   3.622   0.256  12.282 -0.0322 -0.2016  0.1296
11694TIP3    H156497   3.592   0.329  12.228 -0.3906 -0.8390 -0.5444
11694TIP3    H256498   3.558   0.251  12.353  1.1554  1.4531  1.3590
11695TIP3   OH256499   4.288   2.378   0.129  0.7849  0.4834  0.0342
11695TIP3    H156500   4.360   2.340   0.079  0.7935  1.5405 -0.7621
11695TIP3    H256501   4.254   2.448   0.073 -0.0705  0.7919  0.9317
11696TIP3   OH256502   2.182   1.697  13.702 -0.0019 -0.0018 -0.4551
11696TIP3    H156503   2.219   1.751  13.631 -0.7348 -0.3800 -1.1282
11696TIP3    H256504   2.096   1.735  13.718 -0.1790 -0.4541 -0.3467
11697TIP3   OH256505   3.751   1.606   0.532  0.3016  0.1239  0.6153
11697TIP3    H156506   3.670   1.559   0.511  0.7835 -0.7831  0.7912
11697TIP3    H256507   3.762   1.595   0.626  0.8848 -0.1533  0.5171
11698TIP3   OH256508   4.782   2.946   0.419 -0.3124 -0.5442  0.4056
11698TIP3    H156509   4.731   2.927   0.499  0.6047 -0.0618  1.1169
11698TIP3    H256510   4.730   3.013   0.374 -0.2627  0.0319  1.1847
11699TIP3   OH256511   3.993   4.097  14.069  0.0686  0.0677 -0.1190
11699TIP3    H156512   4.026   4.013  14.036 -0.4021 -0.1978  0.0882
11699TIP3    H256513   4.067   4.157  14.059 -0.0944  0.0107 -1.7451
11700TIP3   OH256514   3.073   5.526   3.426 -0.0346 -0.6043  0.1960
11700TIP3    H156515   3.164   5.548   3.443 -0.4740  2.3596 -0.9720
11700TIP3    H256516   3.071   5.501   3.333 -0.3068 -1.2605  0.3770
11701TIP3   OH256517   5.896   1.920  12.161 -0.2420 -0.2312  0.0335
11701TIP3    H156518   5.974   1.942  12.212  1.3676  1.6826 -3.0821
11701TIP3    H256519   5.857   1.846  12.207  4.4277 -2.4529  0.7467
11702TIP3   OH256520   5.928   6.202   2.956 -0.9971 -0.4387  0.1043
11702TIP3    H156521   6.013   6.190   2.914  0.2525  1.7371  1.8963
11702TIP3    H256522   5.913   6.121   3.004  0.1871 -0.7436 -0.0399
11703TIP3   OH256523   1.463   2.117   3.603  0.4347  0.0607 -0.3048
11703TIP3    H156524   1.378   2.092   3.566 -0.4110  0.7846  1.1224
11703TIP3    H256525   1.509   2.158   3.529  0.5477 -2.5437 -1.7579
11704TIP3   OH256526   4.231   0.238  11.557 -0.4667  0.0568  0.2454
11704TIP3    H156527   4.262   0.186  11.631 -0.2100  0.0683  0.1470
11704TIP3    H256528   4.274   0.200  11.480  0.4266  0.9658  0.2829
11705TIP3   OH256529   2.308   2.661  12.450 -0.0119 -0.0241  0.6182
11705TIP3    H156530   2.350   2.631  12.531  1.7383 -0.0971 -0.3132
11705TIP3    H256531   2.314   2.756  12.453 -0.8262  0.0264  1.0189
11706TIP3   OH256532   5.106   4.732  15.696 -0.6340  0.3215  0.0585
11706TIP3    H156533   5.046   4.739  15.770 -0.1492  1.9047  0.3302
11706TIP3    H256534   5.051   4.709  15.622 -1.0832 -1.5890  0.9623
11707TIP3   OH256535   5.700   1.725   0.017 -0.8293 -0.0290  0.1817
11707TIP3    H156536   5.691   1.820   0.017 -0.2009  0.0416 -0.3982
11707TIP3    H256537   5.789   1.710   0.050  0.0260 -0.2842 -2.1147
11708TIP3   OH256538   5.321   4.560   4.386 -0.0905 -0.2791  0.7244
11708TIP3    H156539   5.306   4.630   4.323 -0.0521 -1.2432 -0.3671
11708TIP3    H256540   5.320   4.604   4.471  0.5955  1.1532  0.0185
11709TIP3   OH256541   4.400   5.891   1.089 -0.5103 -0.2123 -0.5378
11709TIP3    H156542   4.366   5.975   1.059 -1.4541 -0.5914 -0.5746
11709TIP3    H256543   4.491   5.908   1.113 -0.8553  0.9434 -0.0048
11710TIP3   OH256544   2.818   5.192   5.373 -0.1973  0.1062 -0.1952
11710TIP3    H156545   2.869   5.242   5.437  0.0555 -0.1484 -0.1964
11710TIP3    H256546   2.869   5.196   5.293 -0.1979 -0.1190 -0.2067
11711TIP3   OH256547   1.896   0.052   1.627 -0.4767  0.9364  0.2346
11711TIP3    H156548   1.856   0.139   1.636 -0.3101  1.1548 -1.1243
11711TIP3    H256549   1.967   0.064   1.564 -0.7897 -0.3056 -0.3688
11712TIP3   OH256550   0.221   2.302   0.967 -0.0541 -0.1783  0.6905
11712TIP3    H156551   0.241   2.275   1.057 -0.6918 -2.1609  0.2625
11712TIP3    H256552   0.153   2.368   0.977  1.3085  1.0937  1.7572
11713TIP3   OH256553   3.755   4.543   5.190  0.9991  0.4884 -0.2688
11713TIP3    H156554   3.835   4.514   5.148  1.5559  1.7278 -0.0809
11713TIP3    H256555   3.714   4.463   5.223  2.3296 -0.1024 -0.0558
11714TIP3   OH256556   5.398   6.711  10.318 -0.4470 -0.6129  0.0971
11714TIP3    H156557   5.370   6.675  10.234 -1.3918 -0.1936  0.2234
11714TIP3    H256558   5.364   6.800  10.318  0.9312 -0.0773  0.2545
11715TIP3   OH256559   0.110   3.699   2.291 -0.3775 -0.4427  0.2498
11715TIP3    H156560   0.066   3.748   2.221  1.2408  0.5480 -0.0880
11715TIP3    H256561   0.188   3.750   2.311  1.1120 -2.6410  0.2187
11716TIP3   OH256562   0.208   5.801  11.401 -0.2654 -0.1124 -0.2852
11716TIP3    H156563   0.149   5.843  11.463  1.5120  0.9712  0.7025
11716TIP3    H256564   0.193   5.846  11.318  0.9449  1.8920  0.5507
11717TIP3   OH256565   0.843   6.005  12.564 -0.5801  0.2257 -0.0373
11717TIP3    H156566   0.892   6.041  12.639 -1.8999  1.1917  0.3787
11717TIP3    H256567   0.898   6.024  12.488  0.8720 -0.9533  0.7016
11718TIP3   OH256568   2.504   6.103  14.680 -0.0172 -0.0537 -0.0240
11718TIP3    H156569   2.533   6.183  14.725  1.0384 -0.3210 -0.2022
11718TIP3    H256570   2.425   6.076  14.727  0.1841  0.5478  0.6727
11719TIP3   OH256571   3.924   6.509   4.851 -0.1326  0.1687 -0.5718
11719TIP3    H156572   3.835   6.545   4.850  0.3228  1.2935 -1.2223
11719TIP3    H256573   3.932   6.462   4.769 -0.3970 -0.6217 -0.1506
11720TIP3   OH256574   5.287   0.634  14.295  0.4138  0.6111  0.7664
11720TIP3    H156575   5.261   0.726  14.290  1.0510  0.7191 -0.7037
11720TIP3    H256576   5.325   0.615  14.209 -1.4079 -1.5465  0.3951
11721TIP3   OH256577   3.015   0.192   2.776 -0.0999  0.0008  0.1551
11721TIP3    H156578   2.957   0.228   2.708  0.2314  2.1442  0.9612
11721TIP3    H256579   2.965   0.203   2.857  0.9032  0.6764  0.6837
11722TIP3   OH256580   3.641   5.846  16.429  0.2085 -0.1598  0.1843
11722TIP3    H156581   3.556   5.807  16.451 -0.1257  0.7883  0.5722
11722TIP3    H256582   3.637   5.860  16.334 -0.5382  1.0019  0.3797
11723TIP3   OH256583   3.357   4.407   0.327  0.6805 -0.0132  0.3339
11723TIP3    H156584   3.358   4.324   0.376  0.4544  0.3355  0.9416
11723TIP3    H256585   3.307   4.388   0.248  1.1669 -0.6272  0.1740
11724TIP3   OH256586   5.307   6.351   1.905  0.2076 -0.5242  0.0033
11724TIP3    H156587   5.392   6.317   1.933 -0.0796 -0.7266  0.6278
11724TIP3    H256588   5.311   6.444   1.928 -0.6627 -1.0205  2.2613
11725TIP3   OH256589   0.214   2.782  12.969  0.1856  0.1817  0.3831
11725TIP3    H156590   0.152   2.753  13.037 -0.4738  0.0939 -0.2503
11725TIP3    H256591   0.259   2.857  13.008 -2.9162  2.6056 -0.5018
11726TIP3   OH256592   2.251   0.041  16.243 -0.1943  0.1656 -0.1310
11726TIP3    H156593   2.323   0.102  16.254  0.6152 -0.7383 -0.2980
11726TIP3    H256594   2.242   0.030  16.148  1.2921 -1.8111 -0.0923
11727TIP3   OH256595   6.085   1.566  15.116  0.0556  0.1762  0.5340
11727TIP3    H156596   6.002   1.600  15.082 -0.7442 -2.6948 -0.5328
11727TIP3    H256597   6.124   1.640  15.163 -1.3540  2.6521 -2.0703
11728TIP3   OH256598   3.499   1.763  14.890  0.0401 -0.1339  0.0818
11728TIP3    H156599   3.542   1.684  14.856  0.2629  0.9473 -2.1555
11728TIP3    H256600   3.446   1.795  14.818  2.0580  3.3071  0.0318
11729TIP3   OH256601   5.744   4.595  12.925  0.5820 -0.4909  0.0146
11729TIP3    H156602   5.766   4.673  12.977  1.1015 -0.1845 -0.6443
11729TIP3    H256603   5.829   4.563  12.894  0.3419 -1.1298  0.0148
11730TIP3   OH256604   6.467   1.742   0.666  0.2578 -0.0426  0.1136
11730TIP3    H156605   6.439   1.827   0.632 -0.8704  0.1890  1.5480
11730TIP3    H256606   6.490   1.691   0.588  0.4796  1.4125 -0.7911
11731TIP3   OH256607   2.901   3.264  13.753  0.5925 -0.5726 -0.1465
11731TIP3    H156608   2.981   3.227  13.790 -0.0933 -0.5469  1.3924
11731TIP3    H256609   2.860   3.191  13.706 -0.2395 -1.5392  2.0164
11732TIP3   OH256610   3.520   0.509  15.786  0.2324 -0.0291 -0.1066
11732TIP3    H156611   3.428   0.525  15.764  0.2926  0.5691  0.0743
11732TIP3    H256612   3.525   0.414  15.797 -0.6449  0.0537  1.1213
11733TIP3   OH256613   5.052   3.034   2.144 -0.0400  0.1630 -0.2810
11733TIP3    H156614   5.077   3.126   2.148 -0.5210  0.2066  2.3600
11733TIP3    H256615   4.971   3.034   2.093 -0.5079  1.2971  0.4462
11734TIP3   OH256616   5.240   5.382  16.731 -0.0719  0.3267 -0.3816
11734TIP3    H156617   5.286   5.316  16.678 -0.5200 -1.3809  1.2915
11734TIP3    H256618   5.243   5.462  16.678  3.6338 -0.0839 -0.9111
11735TIP3   OH256619   3.844   2.678   1.777  0.0113  0.5990  0.0463
11735TIP3    H156620   3.875   2.647   1.692 -0.3040 -1.2515  0.5783
11735TIP3    H256621   3.762   2.723   1.757 -0.8715 -1.2013 -0.4654
11736TIP3   OH256622   1.524   4.729  14.085  0.0724  0.4839  0.2158
11736TIP3    H156623   1.584   4.787  14.132 -0.5984  1.7500 -0.4647
11736TIP3    H256624   1.463   4.788  14.041 -2.6774 -0.7780  2.1884
11737TIP3   OH256625   4.254   0.397  14.708 -0.1558  0.2802 -0.4712
11737TIP3    H156626   4.290   0.455  14.641 -0.4184  1.9092  0.7841
11737TIP3    H256627   4.167   0.373  14.675  0.7372 -1.0533 -1.9449
11738TIP3   OH256628   1.534   4.568   4.704  0.3872 -0.2326 -0.9229
11738TIP3    H156629   1.482   4.636   4.746 -0.9483 -0.8076 -1.6126
11738TIP3    H256630   1.541   4.597   4.613  0.9951 -0.3239 -0.9051
11739TIP3   OH256631   5.777   5.867   3.238  0.0269  0.2540  0.1380
11739TIP3    H156632   5.748   5.958   3.233  1.4693  0.7183 -0.1025
11739TIP3    H256633   5.833   5.863   3.315  1.1772 -0.0634 -0.6974
11740TIP3   OH256634   0.668   1.006  13.409  0.1168 -0.1228 -0.1885
11740TIP3    H156635   0.641   0.928  13.360  0.8750 -0.3847 -0.1930
11740TIP3    H256636   0.655   1.078  13.347  0.3199 -0.3563 -0.5045
11741TIP3   OH256637   0.091   1.064  16.014 -0.5159 -0.1919  0.0676
11741TIP3    H156638   0.045   1.148  16.023  0.3139  0.1876  0.8832
11741TIP3    H256639   0.087   1.024  16.100  2.0041  0.5645  0.5852
11742TIP3   OH256640   1.619   0.801   3.707  0.3252 -0.0431  0.1244
11742TIP3    H156641   1.591   0.804   3.798  0.1243  0.4424  0.0546
11742TIP3    H256642   1.614   0.893   3.678 -1.0688 -0.3816 -0.7955
11743TIP3   OH256643   2.724   3.237  16.356 -0.1839  0.0348  0.2292
11743TIP3    H156644   2.739   3.224  16.449 -2.0098  0.9913  0.6969
11743TIP3    H256645   2.769   3.320  16.336 -1.2481  0.7349  0.6752
11744TIP3   OH256646   4.259   2.811  15.122 -0.0162 -0.1067 -0.0427
11744TIP3    H156647   4.182   2.869  15.127  1.3195  1.6227  1.1561
11744TIP3    H256648   4.311   2.848  15.050  0.9017  0.2547  0.8045
11745TIP3   OH256649   6.463   5.416  13.546  0.0939 -0.7472  0.0470
11745TIP3    H156650   6.483   5.355  13.617 -0.1018 -2.4952 -1.3621
11745TIP3    H256651   6.547   5.455  13.523  0.2759 -0.7272  0.7403
11746TIP3   OH256652   3.597   1.385   3.125  0.5753 -0.7911 -0.3477
11746TIP3    H156653   3.672   1.369   3.068  1.8042  1.2937  0.6758
11746TIP3    H256654   3.560   1.467   3.093 -0.5960 -1.2079 -0.0907
11747TIP3   OH256655   0.805   1.482   4.153 -0.0302 -0.2808  0.0114
11747TIP3    H156656   0.888   1.496   4.106 -0.4344  0.9562 -0.3490
11747TIP3    H256657   0.740   1.530   4.102 -0.7763 -0.3100  0.9162
11748TIP3   OH256658   4.471   4.705  15.692  0.4936 -0.1362  0.3143
11748TIP3    H156659   4.442   4.731  15.605 -1.2530  0.1737  0.9645
11748TIP3    H256660   4.493   4.787  15.736  0.2114 -0.1885  0.5591
11749TIP3   OH256661   1.178   4.589  14.146  0.4160 -0.8898  0.1485
11749TIP3    H156662   1.148   4.678  14.167  0.2394 -0.3524 -2.1841
11749TIP3    H256663   1.181   4.544  14.230 -0.4463  1.0378  1.2517
11750TIP3   OH256664   4.638   2.897  12.550  0.1370 -0.3508  0.2704
11750TIP3    H156665   4.707   2.862  12.493 -1.5528 -0.0010 -2.0993
11750TIP3    H256666   4.599   2.820  12.592 -1.3983 -1.1016 -2.3862
11751TIP3   OH256667   1.406   6.201  10.437  0.6867 -0.1212  0.3613
11751TIP3    H156668   1.500   6.204  10.453  0.9196  0.7788 -1.0854
11751TIP3    H256669   1.371   6.278  10.482  0.7863  0.1448 -0.0193
11752TIP3   OH256670   0.483   3.677  16.749 -0.4823  0.1905  0.1712
11752TIP3    H156671   0.416   3.742  16.733 -1.0527 -0.2591  0.7094
11752TIP3    H256672   0.537   3.714  16.819  0.8110  1.2675 -1.3620
11753TIP3   OH256673   5.942   4.153  16.292 -0.3252 -0.4524 -0.2381
11753TIP3    H156674   5.966   4.188  16.378 -2.4812  0.9366 -0.1906
11753TIP3    H256675   5.868   4.094  16.310 -0.0747 -1.0200 -1.0168
11754TIP3   OH256676   3.235   6.561  17.196  0.3304  0.5219  0.1350
11754TIP3    H156677   3.183   6.610  17.260 -1.6537 -1.1679 -0.1318
11754TIP3    H256678   3.249   6.476  17.236 -1.1347 -0.6416 -1.7138
11755TIP3   OH256679   2.589   4.246   2.186 -0.1486 -0.3678 -0.1721
11755TIP3    H156680   2.500   4.213   2.197 -0.4184  0.2643 -0.3781
11755TIP3    H256681   2.594   4.267   2.093 -0.8386  2.5056  0.3856
11756TIP3   OH256682   6.462   4.089  12.220  0.4242 -0.8732  0.3591
11756TIP3    H156683   6.394   4.028  12.250 -0.4769  0.3596  0.8795
11756TIP3    H256684   6.516   4.038  12.160 -3.4196 -0.8430 -3.3716
11757TIP3   OH256685   3.762   3.462  12.408 -0.3292 -0.3635  0.3316
11757TIP3    H156686   3.755   3.438  12.500  3.4933  0.6650  0.9607
11757TIP3    H256687   3.744   3.556  12.406 -0.8772 -0.4704 -0.0606
11758TIP3   OH256688   4.327   1.503   4.335  0.2767  0.2595 -0.2957
11758TIP3    H156689   4.330   1.552   4.417  0.5749 -0.0024 -0.1481
11758TIP3    H256690   4.393   1.434   4.346 -0.5544 -0.5391 -0.2655
11759TIP3   OH256691   6.269   5.770   6.398  0.4088 -0.0259  0.3970
11759TIP3    H156692   6.351   5.724   6.378 -0.2660 -1.4751  0.8565
11759TIP3    H256693   6.201   5.705   6.381 -0.6742  1.2873 -0.3306
11760TIP3   OH256694   4.472   0.033  12.088  0.3040 -0.7365 -0.0118
11760TIP3    H156695   4.476   0.060  11.996  0.2605  0.2120  0.2576
11760TIP3    H256696   4.402  -0.031  12.091  1.6498 -2.2976 -1.0230
11761TIP3   OH256697   6.355   6.272  11.267 -0.3240 -0.0780 -0.1185
11761TIP3    H156698   6.369   6.233  11.354 -0.6306  0.3048  0.1058
11761TIP3    H256699   6.439   6.262  11.223  0.2664  0.9707  0.7267
11762TIP3   OH256700   3.270   2.911   5.948  0.9043 -0.4419  0.7243
11762TIP3    H156701   3.304   2.876   6.031  2.0403 -0.1477  0.3966
11762TIP3    H256702   3.275   3.006   5.959 -0.0694 -0.3926  0.7678
11763TIP3   OH256703   1.064   4.935   2.531 -0.5993  0.0659  0.1048
11763TIP3    H156704   1.113   4.976   2.603 -0.1997  0.2731 -0.2867
11763TIP3    H256705   1.124   4.872   2.494 -1.1776 -0.8072  0.6318
11764TIP3   OH256706   0.193   5.749  12.475  0.4070  0.2516 -0.2215
11764TIP3    H156707   0.229   5.757  12.563 -0.7398  2.0039  0.1285
11764TIP3    H256708   0.145   5.666  12.477 -0.1173  0.5561  1.0262
11765TIP3   OH256709   0.064   1.936  17.026  0.2859 -0.0449  0.0589
11765TIP3    H156710   0.111   1.877  16.967 -0.9548 -0.0868 -0.9175
11765TIP3    H256711   0.081   2.023  16.990 -1.1226 -0.1304 -0.8558
11766TIP3   OH256712   0.480   2.670   4.796 -0.3739 -0.3921  0.4742
11766TIP3    H156713   0.466   2.740   4.733 -0.8297 -0.0973  0.9006
11766TIP3    H256714   0.441   2.593   4.755  0.0646 -0.3848  0.0364
11767TIP3   OH256715   2.943   6.613   1.662  0.2181 -0.2690 -0.3350
11767TIP3    H156716   2.876   6.681   1.657 -0.5965 -0.9479  0.9857
11767TIP3    H256717   2.927   6.557   1.585 -0.0463  0.1834 -0.6090
11768TIP3   OH256718   4.594   5.214  15.648  0.2826  0.4569 -0.3552
11768TIP3    H156719   4.520   5.185  15.595 -1.1401  2.4831  0.4485
11768TIP3    H256720   4.554   5.262  15.721  2.0464 -3.4825  3.4155
11769TIP3   OH256721   3.767   4.741   1.019 -0.5577 -0.3073  0.2059
11769TIP3    H156722   3.761   4.654   1.058  1.1351  0.1759  1.5815
11769TIP3    H256723   3.775   4.725   0.925  2.6422 -1.7531  0.6888
11770TIP3   OH256724   5.226   3.415   3.200 -0.3232  0.2367 -0.2229
11770TIP3    H156725   5.248   3.345   3.262 -0.3270 -0.2750 -0.8055
11770TIP3    H256726   5.308   3.463   3.189 -0.2701  0.2052  0.0128
11771TIP3   OH256727   3.960   2.664  11.788 -0.0549 -0.2673 -0.1615
11771TIP3    H156728   3.938   2.572  11.771 -1.0120 -0.4830  2.0242
11771TIP3    H256729   4.053   2.662  11.810 -0.1065 -0.7351  0.0249
11772TIP3   OH256730   5.747   1.231  16.707  0.3253  0.1825  0.5434
11772TIP3    H156731   5.832   1.193  16.681  1.1656  2.0590  0.4790
11772TIP3    H256732   5.695   1.230  16.627  0.5349 -0.3222  0.4130
11773TIP3   OH256733   3.502   5.487  13.772 -0.2628 -0.1531  0.2959
11773TIP3    H156734   3.547   5.403  13.768 -0.0799 -0.1367  1.8044
11773TIP3    H256735   3.413   5.468  13.741  0.0004 -0.7337 -0.1077
11774TIP3   OH256736   0.536   5.521   2.844  0.5190 -0.0560  0.2406
11774TIP3    H156737   0.597   5.468   2.895 -0.2694 -3.0940 -1.8089
11774TIP3    H256738   0.511   5.592   2.902  3.1286 -0.8270  2.4202
11775TIP3   OH256739   3.243   6.260   4.584 -0.9083 -0.3175  0.2308
11775TIP3    H156740   3.335   6.281   4.566 -1.3318  1.3214 -0.0928
11775TIP3    H256741   3.246   6.177   4.631  0.7156 -0.5229 -0.2149
11776TIP3   OH256742   5.887   2.332   2.830  0.2955 -0.1030 -0.2717
11776TIP3    H156743   5.868   2.243   2.802 -0.2872  0.1192 -0.5725
11776TIP3    H256744   5.834   2.345   2.908 -0.4695  0.3675 -0.8685
11777TIP3   OH256745   5.301   0.194  10.223  0.5851 -0.0994 -0.2520
11777TIP3    H156746   5.350   0.250  10.283  2.1904 -0.2494 -1.4138
11777TIP3    H256747   5.237   0.253  10.183 -0.6413 -0.0351  1.7184
11778TIP3   OH256748   3.552   5.516   5.183  0.2928  0.5609 -0.0913
11778TIP3    H156749   3.486   5.508   5.251 -1.2459 -1.3208 -1.7341
11778TIP3    H256750   3.518   5.583   5.124  0.7184  0.8504 -0.0112
11779TIP3   OH256751   2.901   5.282   0.418  0.3719 -0.0730  0.0023
11779TIP3    H156752   2.810   5.307   0.434  0.2934 -0.9383  0.9438
11779TIP3    H256753   2.896   5.205   0.362  0.5307  0.0444 -0.1739
11780TIP3   OH256754   3.257   6.242  11.108 -0.2861  0.2335  0.5798
11780TIP3    H156755   3.181   6.299  11.116 -0.6802 -0.2797  0.4707
11780TIP3    H256756   3.302   6.273  11.029 -2.3991 -1.8442 -1.5033
11781TIP3   OH256757   4.726   2.836  15.159  0.6302  0.4665 -0.1534
11781TIP3    H156758   4.707   2.918  15.114  1.6791  0.7033 -0.1729
11781TIP3    H256759   4.777   2.861  15.235  0.5203 -0.1236  0.1177
11782TIP3   OH256760   6.773   3.564   5.095  0.4363  0.2679 -0.1854
11782TIP3    H156761   6.721   3.601   5.024 -2.6260  0.5474  2.0766
11782TIP3    H256762   6.786   3.473   5.071  0.2280  0.5872 -1.5442
11783TIP3   OH256763   2.767   2.264  15.562  0.2138  0.5246  0.1110
11783TIP3    H156764   2.775   2.292  15.653  0.1010 -0.0219  0.2915
11783TIP3    H256765   2.800   2.338  15.511 -0.0166  0.9513  0.5840
11784TIP3   OH256766   6.479   1.351   5.334  0.2799  0.4226  0.1079
11784TIP3    H156767   6.411   1.288   5.360 -1.1605  2.1020  0.4840
11784TIP3    H256768   6.536   1.358   5.410  1.3333 -1.5463 -0.4628
11785TIP3   OH256769   3.453   2.956   6.149 -0.4600 -0.4179  0.4436
11785TIP3    H156770   3.477   3.014   6.077  0.3383 -2.6891 -1.1722
11785TIP3    H256771   3.499   2.992   6.225  1.8002 -0.1879 -0.9892
11786TIP3   OH256772   2.201   6.325   3.511  0.2516 -0.2678 -0.0230
11786TIP3    H156773   2.222   6.249   3.457  1.8366  0.6166 -0.6845
11786TIP3    H256774   2.121   6.360   3.473 -1.4427 -2.5457  1.3062
11787TIP3   OH256775   6.273   6.084   0.659  0.3858 -0.2166  0.3234
11787TIP3    H156776   6.244   6.156   0.602 -0.8409 -1.3453 -0.5059
11787TIP3    H256777   6.368   6.093   0.663  0.3112  0.9960 -0.4002
11788TIP3   OH256778   5.480   3.558   0.363  0.4007 -0.1849  0.4053
11788TIP3    H156779   5.392   3.586   0.340  0.4345  0.4670  1.0523
11788TIP3    H256780   5.487   3.468   0.329 -1.1436 -0.9047  1.9213
11789TIP3   OH256781   4.380   4.979   6.034 -0.3967  0.3635 -0.9279
11789TIP3    H156782   4.407   4.912   5.972 -0.8083  0.8698 -1.6527
11789TIP3    H256783   4.305   4.941   6.080  0.4889 -0.3833 -0.0697
11790TIP3   OH256784   6.113   3.868   6.124 -0.5941  0.0585  0.6601
11790TIP3    H156785   6.168   3.805   6.171 -1.7939 -0.9951  0.6637
11790TIP3    H256786   6.116   3.947   6.177  0.2845 -0.2400  1.0685
11791TIP3   OH256787   1.410   3.015  12.705 -0.0575 -0.5160 -0.0406
11791TIP3    H156788   1.445   3.102  12.723  0.4634 -0.8709  0.7317
11791TIP3    H256789   1.458   2.957  12.765 -1.2795 -1.1531  0.3526
11792TIP3   OH256790   2.240   0.017  13.261 -0.6314  0.4680 -0.3099
11792TIP3    H156791   2.315   0.009  13.201 -0.1849 -0.5033  0.3677
11792TIP3    H256792   2.261   0.093  13.316 -0.4613  0.6050 -0.5644
11793TIP3   OH256793   0.846   2.521   3.404 -0.5313  0.0586  0.4257
11793TIP3    H156794   0.935   2.545   3.377 -0.1859 -1.4193  0.2241
11793TIP3    H256795   0.790   2.554   3.333 -0.1507  0.9019  0.5014
11794TIP3   OH256796   0.883   6.633  11.212  0.7431  0.3086 -0.6382
11794TIP3    H156797   0.968   6.678  11.205  1.0032 -0.4631 -2.8847
11794TIP3    H256798   0.865   6.604  11.123 -3.4579  3.2240 -0.8711
11795TIP3   OH256799   6.329   1.957   5.321  0.1339  0.5792 -0.1910
11795TIP3    H156800   6.267   1.906   5.269  0.8500  0.2771 -0.7645
11795TIP3    H256801   6.369   1.892   5.380  0.1602  0.7032 -0.0718
11796TIP3   OH256802   4.979   2.232  12.240 -0.3930  0.2641 -0.2381
11796TIP3    H156803   5.052   2.242  12.179  0.0104  0.3422  0.2471
11796TIP3    H256804   4.990   2.304  12.302 -1.0323  0.4281 -0.3142
11797TIP3   OH256805   4.991   5.582   4.021 -0.4492 -0.8861 -0.0702
11797TIP3    H156806   5.072   5.605   3.976 -0.0814  0.4410  1.2384
11797TIP3    H256807   5.004   5.492   4.049  0.2461 -0.9477 -0.5835
11798TIP3   OH256808   5.894   0.954  14.321 -0.0508 -0.0642 -0.6487
11798TIP3    H156809   5.887   0.971  14.227 -1.1505 -0.8122 -0.6973
11798TIP3    H256810   5.963   1.014  14.351 -0.6367  1.1365 -1.6822
11799TIP3   OH256811   5.381   3.408  12.466 -0.4002  0.0942 -0.1745
11799TIP3    H156812   5.377   3.313  12.449  0.9035  0.1188 -0.6535
11799TIP3    H256813   5.290   3.436  12.459 -0.5655 -0.7835 -2.1386
11800TIP3   OH256814   6.665   4.219  13.245 -0.2361 -0.5901 -0.2368
11800TIP3    H156815   6.636   4.298  13.198  0.8434  0.0750  0.1943
11800TIP3    H256816   6.754   4.204  13.214  0.5752 -0.0217  1.7069
11801TIP3   OH256817   1.954   4.328  15.498  0.2819 -0.6010 -0.0641
11801TIP3    H156818   1.860   4.331  15.481  0.6088  0.6491 -1.6885
11801TIP3    H256819   1.994   4.329  15.412  1.8137 -0.2444  0.6417
11802TIP3   OH256820   2.311   3.222  17.234 -0.3216 -0.7028 -0.5288
11802TIP3    H156821   2.216   3.212  17.236 -0.4331  0.3949  0.6801
11802TIP3    H256822   2.326   3.297  17.176 -0.2754 -0.2418  0.0654
11803TIP3   OH256823   2.353   0.402   1.834 -0.5415  0.4297  0.1375
11803TIP3    H156824   2.352   0.456   1.754 -0.7147 -0.1098 -0.2296
11803TIP3    H256825   2.268   0.356   1.833 -0.5675  0.4641  0.6628
11804TIP3   OH256826   5.567   0.634  11.158  0.0866  0.6512 -0.2574
11804TIP3    H156827   5.592   0.726  11.169 -0.2305  0.7434 -0.2996
11804TIP3    H256828   5.649   0.586  11.166  0.1529  0.8821  0.4673
11805TIP3   OH256829   0.037   2.002   2.355 -0.2046  0.2409  0.0739
11805TIP3    H156830   0.015   1.933   2.418  0.5745  0.7715  0.9370
11805TIP3    H256831  -0.044   2.015   2.306 -0.6939 -0.5029  0.6521
11806TIP3   OH256832   6.365   4.259   4.798 -0.1574  0.4751  0.0822
11806TIP3    H156833   6.328   4.237   4.712  2.3000 -0.4319 -0.7803
11806TIP3    H256834   6.367   4.176   4.845 -0.9801  0.8741  0.8404
11807TIP3   OH256835   2.540   3.249   5.431 -0.2400  0.6247  0.2079
11807TIP3    H156836   2.567   3.186   5.498 -1.4043  0.0293  0.1362
11807TIP3    H256837   2.506   3.195   5.360 -1.8451  1.3236  0.4111
11808TIP3   OH256838   5.130   5.878   2.114  0.5062  0.2377 -0.2427
11808TIP3    H156839   5.152   5.787   2.135  0.8945  0.3726 -0.0599
11808TIP3    H256840   5.094   5.874   2.025 -1.8154 -0.4337  0.6805
11809TIP3   OH256841   2.987   5.950   5.059  0.1499 -0.1984  0.4302
11809TIP3    H156842   2.906   5.982   5.021  1.6113  1.5360 -1.3249
11809TIP3    H256843   3.025   6.026   5.103  0.7211 -1.0532  1.4448
11810TIP3   OH256844   2.497   5.248  11.256  0.3097  0.5504 -0.5645
11810TIP3    H156845   2.501   5.344  11.251  2.2366  0.4786 -0.7879
11810TIP3    H256846   2.546   5.218  11.179  0.9925 -0.6098  0.3062
11811TIP3   OH256847   5.525   3.054   2.195  0.5515 -0.2594 -0.2540
11811TIP3    H156848   5.489   3.119   2.256 -1.1652  0.6622 -2.1878
11811TIP3    H256849   5.609   3.029   2.234  0.4790  1.8784  1.4023
11812TIP3   OH256850   6.729   0.943  13.166 -0.1581 -0.1454  0.4657
11812TIP3    H156851   6.735   0.900  13.251  0.5746  0.9385  0.9735
11812TIP3    H256852   6.694   0.876  13.107 -1.7572 -0.5494  1.8588
11813TIP3   OH256853   5.221   4.568   4.962 -0.3141  0.2358 -0.2016
11813TIP3    H156854   5.163   4.509   5.011 -0.7367  2.5653  2.2356
11813TIP3    H256855   5.175   4.652   4.964  1.5857  1.3103 -1.1882
11814TIP3   OH256856   3.535   2.978   5.638 -0.4027  0.2351  0.0812
11814TIP3    H156857   3.474   2.905   5.649  0.8181 -0.5609  1.6563
11814TIP3    H256858   3.576   2.962   5.553 -0.1466 -0.9235  0.4139
11815TIP3   OH256859   1.912   1.155   0.743 -0.0900 -0.4341  0.4936
11815TIP3    H156860   1.902   1.190   0.655 -0.6201 -0.2469  0.6244
11815TIP3    H256861   1.910   1.233   0.799  0.3029 -0.5471  0.6650
11816TIP3   OH256862   6.715   0.021  10.912  0.3500  0.1024 -0.8954
11816TIP3    H156863   6.688   0.098  10.962  1.0328  0.2083 -0.6860
11816TIP3    H256864   6.735  -0.045  10.978 -0.9911 -0.5229 -1.0913
11817TIP3   OH256865   4.173   1.371   0.001  0.0754  0.2594  0.0106
11817TIP3    H156866   4.201   1.461  -0.014  0.9503 -0.3023 -1.7895
11817TIP3    H256867   4.178   1.329  -0.085  0.2281 -1.6648  0.9277
11818TIP3   OH256868   2.900   3.125   2.111  0.2972  0.4819  0.0350
11818TIP3    H156869   2.890   3.197   2.173 -1.7192 -1.1448  1.6737
11818TIP3    H256870   2.811   3.107   2.080  0.9659 -0.3294 -1.4877
11819TIP3   OH256871   5.267   6.062  11.741 -0.0833 -0.0527 -0.0209
11819TIP3    H156872   5.336   5.999  11.765  0.1643  0.6828  1.2480
11819TIP3    H256873   5.191   6.007  11.723 -0.1814 -0.6819  2.1599
11820TIP3   OH256874   5.254   4.335  16.431 -0.1978 -0.2393  0.9293
11820TIP3    H156875   5.261   4.430  16.421 -0.0709 -0.3285  0.1795
11820TIP3    H256876   5.165   4.314  16.404 -0.0955 -0.3844  0.7049
11821TIP3   OH256877   6.694   6.743  13.757 -0.0654  0.6705 -0.1605
11821TIP3    H156878   6.787   6.744  13.738  0.3812 -0.6385  1.7791
11821TIP3    H256879   6.677   6.825  13.803  0.0883  0.9329 -0.5617
11822TIP3   OH256880   4.989   2.827  14.084 -0.9219 -0.3892 -0.1263
11822TIP3    H156881   5.065   2.853  14.031 -1.9134  0.2616 -1.2577
11822TIP3    H256882   4.990   2.887  14.158  1.0141 -1.9013  1.1027
11823TIP3   OH256883   1.546   2.398  16.313 -0.1138 -0.2811 -0.2218
11823TIP3    H156884   1.578   2.408  16.224 -3.1739 -1.9774 -1.6130
11823TIP3    H256885   1.514   2.485  16.338 -0.4760 -0.1069 -1.2960
11824TIP3   OH256886   2.776   5.774  16.963 -0.0266  0.0082  0.7332
11824TIP3    H156887   2.744   5.864  16.957  0.9204  0.4640  2.1697
11824TIP3    H256888   2.696   5.721  16.966 -0.6383  0.9973  2.5738
11825TIP3   OH256889   2.855   6.300   2.854  0.0528  0.3623  0.4088
11825TIP3    H156890   2.837   6.347   2.772  0.5969  0.8308  0.5565
11825TIP3    H256891   2.911   6.227   2.828 -1.4080 -0.6440  0.0660
11826TIP3   OH256892   6.654   3.870   0.430  0.1825 -1.2693  0.3904
11826TIP3    H156893   6.618   3.939   0.374 -2.1336 -0.3662  2.8660
11826TIP3    H256894   6.736   3.905   0.462 -0.4691 -0.0881  0.7844
11827TIP3   OH256895   6.017   6.205   2.374 -0.5903  0.1052 -0.4176
11827TIP3    H156896   5.966   6.134   2.413 -0.7147  0.6461  0.4160
11827TIP3    H256897   6.003   6.195   2.279 -0.4944 -1.0541 -0.3145
11828TIP3   OH256898   5.304   1.023  10.208  0.0884 -0.0152  0.1147
11828TIP3    H156899   5.382   1.036  10.261  1.5423 -0.0864 -1.9606
11828TIP3    H256900   5.241   1.087  10.243  1.1691  0.3013  1.5477
11829TIP3   OH256901   5.699   6.262   4.719  0.3106 -0.2610 -0.5279
11829TIP3    H156902   5.654   6.238   4.800 -1.2263  0.9275 -1.0102
11829TIP3    H256903   5.780   6.210   4.720 -0.1666 -0.9984  1.2716
11830TIP3   OH256904   0.141   4.544   5.360  0.1529  0.2572 -0.6270
11830TIP3    H156905   0.236   4.536   5.367  0.1806  1.3242  0.4983
11830TIP3    H256906   0.126   4.636   5.340 -0.6761  0.3368  0.2746
11831TIP3   OH256907   5.521   6.108   3.349  0.0412 -0.3134 -0.4052
11831TIP3    H156908   5.464   6.064   3.287 -0.2957  0.2233 -0.4696
11831TIP3    H256909   5.528   6.046   3.422 -1.4114  0.0389  0.0429
11832TIP3   OH256910   5.048   1.351  14.452 -0.2355  0.0196 -1.1337
11832TIP3    H156911   5.045   1.315  14.540  1.1050 -0.1824 -1.1642
11832TIP3    H256912   4.995   1.431  14.457  0.4446  0.4036  0.0373
11833TIP3   OH256913   4.114   0.687   2.230 -0.1687  0.4979  0.2742
11833TIP3    H156914   4.079   0.600   2.214  0.5916 -0.5622  3.9251
11833TIP3    H256915   4.060   0.723   2.300  0.2552  2.5235 -0.3761
11834TIP3   OH256916   2.081   3.711   4.580  0.1455 -0.1037  0.1102
11834TIP3    H156917   2.100   3.784   4.639  1.9037  0.1222 -0.7021
11834TIP3    H256918   2.128   3.637   4.617 -1.5491 -0.8330  0.8722
11835TIP3   OH256919   5.841   5.430   0.245 -0.3091  0.4388  0.5568
11835TIP3    H156920   5.746   5.427   0.231 -0.3800 -0.7121  1.2409
11835TIP3    H256921   5.851   5.429   0.340  0.4284 -0.6427  0.4726
11836TIP3   OH256922   4.559   1.149   0.020  0.4741 -0.3568 -0.8993
11836TIP3    H156923   4.489   1.193  -0.028  0.0251  1.3301  1.2200
11836TIP3    H256924   4.635   1.206   0.010  0.8130 -0.8001 -0.9033
11837TIP3   OH256925   5.978   4.314  16.079 -0.0106 -0.3076 -0.0108
11837TIP3    H156926   5.951   4.260  16.005  2.2181 -0.5164 -0.7259
11837TIP3    H256927   5.962   4.260  16.156 -1.4315 -0.4720 -0.4108
11838TIP3   OH256928   3.972   3.603  14.691  0.1919 -0.0698  0.3154
11838TIP3    H156929   3.964   3.664  14.618  1.3764 -2.4641 -1.9131
11838TIP3    H256930   3.891   3.552  14.689  0.3429 -0.3215  0.5265
11839TIP3   OH256931   2.291   2.914  11.091  0.6818 -0.5889  0.2263
11839TIP3    H156932   2.234   2.950  11.024  0.0201 -0.2286  0.9654
11839TIP3    H256933   2.379   2.923  11.055  0.3106 -0.7083 -0.7269
11840TIP3   OH256934   6.658   3.311   2.948 -0.1523  0.1586 -0.9418
11840TIP3    H156935   6.732   3.269   2.993 -0.4825  0.2099 -0.3553
11840TIP3    H256936   6.685   3.402   2.938 -0.4295  0.3299 -0.1101
11841TIP3   OH256937   1.700   2.722   0.715  0.3434  0.4107  0.0908
11841TIP3    H156938   1.697   2.691   0.806  1.9149  1.1874  0.4176
11841TIP3    H256939   1.787   2.762   0.706  0.7541 -0.9395 -2.1812
11842TIP3   OH256940   4.047   4.560  12.159  0.3008 -0.3788  0.0765
11842TIP3    H156941   4.118   4.606  12.115 -0.5144  1.2349  0.4098
11842TIP3    H256942   3.999   4.517  12.088  1.7387 -1.7235 -0.1241
11843TIP3   OH256943   2.476   0.151  13.643 -0.5029 -0.4988  0.0080
11843TIP3    H156944   2.508   0.239  13.622 -2.2018  0.2689  0.5631
11843TIP3    H256945   2.487   0.143  13.737 -0.3702 -0.8767 -0.0385
11844TIP3   OH256946   1.041   1.134   1.890 -0.6539 -0.3110 -0.0089
11844TIP3    H156947   1.042   1.228   1.912  0.1239 -0.5217  0.8810
11844TIP3    H256948   0.973   1.097   1.945 -1.1395 -0.2283 -0.5496
11845TIP3   OH256949   1.349   2.389  14.213 -0.2043 -0.6142  0.4548
11845TIP3    H156950   1.288   2.368  14.142 -0.9520 -1.7071  1.3968
11845TIP3    H256951   1.307   2.461  14.260 -0.2015 -0.5797  0.4050
11846TIP3   OH256952   3.832   3.156  14.023  0.7589 -0.3461 -0.1074
11846TIP3    H156953   3.863   3.130  13.936  1.6456 -1.1949  0.4542
11846TIP3    H256954   3.912   3.172  14.073  0.2740 -1.1461  0.9385
11847TIP3   OH256955   5.897   2.908   6.321  0.0054  0.1545  0.1425
11847TIP3    H156956   5.992   2.914   6.315 -0.1317  1.5768 -0.7885
11847TIP3    H256957   5.865   2.972   6.257 -1.5758 -0.9809 -0.2201
11848TIP3   OH256958   3.797   2.531  16.502  0.3635  0.4061 -0.2319
11848TIP3    H156959   3.777   2.622  16.479  0.9285  0.4246 -0.6615
11848TIP3    H256960   3.808   2.532  16.597 -2.3998  0.2541  0.1437
11849TIP3   OH256961   6.289   0.451   5.421  0.1772  0.2427  0.2504
11849TIP3    H156962   6.194   0.446   5.410  0.2728  0.6015 -0.8286
11849TIP3    H256963   6.306   0.541   5.448  0.3634  0.6831 -1.3072
11850TIP3   OH256964   5.004   0.873   1.257  0.0498  0.0619 -0.2644
11850TIP3    H156965   4.926   0.894   1.206 -0.0350  0.7648  0.1594
11850TIP3    H256966   4.971   0.846   1.342  0.1736 -1.4929 -0.6939
11851TIP3   OH256967   2.566   4.308   6.272  0.0513  0.3813  0.1380
11851TIP3    H156968   2.487   4.262   6.299 -0.4995  0.9621 -0.4478
11851TIP3    H256969   2.628   4.296   6.344  0.0367 -1.5485 -0.1406
11852TIP3   OH256970   4.106   5.837  10.672 -0.1008  0.7170 -0.0044
11852TIP3    H156971   4.057   5.918  10.685  1.0965  1.4575 -0.0353
11852TIP3    H256972   4.063   5.795  10.597 -0.0359  1.8688 -0.7035
11853TIP3   OH256973   0.764   5.605   0.447  0.4781  0.1178  0.1099
11853TIP3    H156974   0.834   5.540   0.452 -0.0109 -0.4727 -0.5183
11853TIP3    H256975   0.806   5.688   0.467  0.6798 -0.6533  3.2696
11854TIP3   OH256976   0.494   5.581  13.676  0.1970  0.1867 -0.3090
11854TIP3    H156977   0.432   5.520  13.716  3.0828 -2.3159  0.4861
11854TIP3    H256978   0.453   5.606  13.593 -1.8015 -1.5028  0.1257
11855TIP3   OH256979   0.188   4.335   2.256  0.1321 -0.4832  0.6230
11855TIP3    H156980   0.249   4.408   2.253  1.2994 -1.4531  0.1319
11855TIP3    H256981   0.211   4.288   2.336 -0.9919 -0.0111  1.2402
11856TIP3   OH256982   5.202   3.116  16.629  0.1894  0.9401 -0.3643
11856TIP3    H156983   5.222   3.076  16.544 -1.5731 -2.4768  0.7032
11856TIP3    H256984   5.120   3.163  16.614 -0.7201 -0.5868 -0.3587
11857TIP3   OH256985   2.230   2.932   0.500 -0.3393  0.1808  0.2500
11857TIP3    H156986   2.241   2.839   0.521 -0.2501  0.1953  0.2672
11857TIP3    H256987   2.143   2.937   0.459 -1.4501  0.5168  2.5949
11858TIP3   OH256988   5.796   4.386  13.433 -0.5928  0.3432 -0.8250
11858TIP3    H156989   5.790   4.369  13.527  0.8995 -0.5684 -0.8727
11858TIP3    H256990   5.869   4.448  13.424  0.4175 -0.9341 -1.5299
11859TIP3   OH256991   5.123   3.245  16.265 -0.2848  0.1838  0.0831
11859TIP3    H156992   5.092   3.244  16.175 -0.5790 -1.4310  0.1967
11859TIP3    H256993   5.122   3.154  16.293 -0.1552  0.6559  1.7141
11860TIP3   OH256994   4.165   2.983  11.711 -0.1377 -0.1028 -0.4494
11860TIP3    H156995   4.226   3.029  11.769 -0.4980 -0.3920  0.1728
11860TIP3    H256996   4.107   3.051  11.678 -0.4108 -0.0433  0.1430
11861TIP3   OH256997   1.288   6.689  15.909 -0.6007  0.1766  0.1210
11861TIP3    H156998   1.344   6.650  15.842 -1.5400  0.0588 -0.6136
11861TIP3    H256999   1.348   6.737  15.966  0.1412  0.8180 -1.1803
11862TIP3   OH257000   6.519   5.663   1.629  0.3648  0.3307 -0.7804
11862TIP3    H157001   6.504   5.570   1.646 -0.6335  0.8046  1.0636
11862TIP3    H257002   6.455   5.685   1.561 -0.9096  0.1618  0.3442
11863TIP3   OH257003   3.002   4.788  15.919  0.1294  0.0001  0.0737
11863TIP3    H157004   2.921   4.814  15.963 -1.0530  0.4299 -2.2619
11863TIP3    H257005   2.974   4.735  15.845  2.1574 -2.0635  0.7232
11864TIP3   OH257006   4.282   2.310  11.754 -0.2492  0.0307 -0.6606
11864TIP3    H157007   4.227   2.345  11.824  1.6767 -0.4533  1.1318
11864TIP3    H257008   4.266   2.368  11.680 -1.6202  1.1090  0.4632
11865TIP3   OH257009   1.092   3.064  12.188 -0.4415  0.0954 -0.3010
11865TIP3    H157010   1.054   3.000  12.128 -1.0017 -0.0887  0.2460
11865TIP3    H257011   1.020   3.124  12.207  0.0205  0.7483 -0.6254
11866TIP3   OH257012   0.011   6.434  16.743 -0.2016 -0.2097  0.1893
11866TIP3    H157013   0.076   6.374  16.707  0.1616  1.5323 -2.2032
11866TIP3    H257014  -0.065   6.378  16.760  0.7775 -1.6883 -0.1698
11867TIP3   OH257015   4.568   3.199  15.835 -0.2550 -0.1133 -0.0451
11867TIP3    H157016   4.606   3.262  15.773  0.0028 -0.2453 -0.0183
11867TIP3    H257017   4.533   3.254  15.905  0.4271 -0.0291  0.2321
11868TIP3   OH257018   5.238   5.694  15.835  0.0391 -0.3933  0.5603
11868TIP3    H157019   5.148   5.695  15.867  0.1296  1.2789  0.7818
11868TIP3    H257020   5.233   5.646  15.751 -1.0821 -0.0949  0.4525
11869TIP3   OH257021   5.860   1.131   1.782  0.0363  0.4441 -0.8819
11869TIP3    H157022   5.939   1.173   1.750 -0.2420  0.9746 -0.8841
11869TIP3    H257023   5.885   1.093   1.866  0.3660  0.3718 -1.0149
11870TIP3   OH257024   0.530   1.305   3.176 -0.7015 -0.1890 -0.0720
11870TIP3    H157025   0.458   1.337   3.231 -0.8000  1.9805 -1.4102
11870TIP3    H257026   0.493   1.302   3.088  0.1934 -1.2535 -0.4173
11871TIP3   OH257027   5.279   4.375  15.038  0.0409 -0.6852  0.2340
11871TIP3    H157028   5.375   4.376  15.038  0.0603 -1.1010  1.8969
11871TIP3    H257029   5.256   4.282  15.031 -0.2036 -0.7785  1.9908
11872TIP3   OH257030   0.437   6.036  16.858 -0.3562  0.6823 -0.2423
11872TIP3    H157031   0.509   6.095  16.838  0.5027 -0.2611 -0.0135
11872TIP3    H257032   0.364   6.093  16.881  0.2580  1.6536 -0.6687
11873TIP3   OH257033   1.423   0.928   4.747  0.2544 -0.0662 -0.3166
11873TIP3    H157034   1.349   0.901   4.801  0.4534 -0.3341 -0.1747
11873TIP3    H257035   1.427   1.023   4.757  0.3560 -0.1253  0.2200
11874TIP3   OH257036   3.836   0.137   3.139  0.2628 -0.3503  0.0475
11874TIP3    H157037   3.781   0.193   3.194  2.9136 -0.3378  2.8128
11874TIP3    H257038   3.923   0.175   3.145  1.9329 -4.1075  1.1754
11875TIP3   OH257039   2.373   4.407   1.283 -0.0747 -0.1861 -0.5442
11875TIP3    H157040   2.451   4.356   1.308 -0.0745 -1.0274 -2.1648
11875TIP3    H257041   2.313   4.397   1.357  0.9432 -0.4139  0.2643
11876TIP3   OH257042   0.438   3.794  12.298 -0.2465 -0.2818  0.2910
11876TIP3    H157043   0.420   3.710  12.256 -1.2027 -1.6310  3.2325
11876TIP3    H257044   0.358   3.845  12.284 -0.8576 -1.0019  1.0614
11877TIP3   OH257045   2.906   3.545  15.837 -0.3530 -0.1493 -0.0750
11877TIP3    H157046   2.945   3.626  15.806  0.5152 -0.5057  0.0769
11877TIP3    H257047   2.885   3.496  15.758 -0.4657  0.0286 -0.1555
11878TIP3   OH257048   0.331   0.490   3.453 -0.3254  0.2532  0.2035
11878TIP3    H157049   0.310   0.579   3.424 -0.2086  0.4174  0.6152
11878TIP3    H257050   0.414   0.500   3.500  0.4127 -0.3006 -0.9552
11879TIP3   OH257051   3.406   1.711   0.426  0.0795 -0.5038  0.0559
11879TIP3    H157052   3.450   1.630   0.452  0.7922  0.3207  1.4612
11879TIP3    H257053   3.362   1.742   0.506 -1.5436 -0.3448 -0.8693
11880TIP3   OH257054   5.361   0.237   0.599  0.6044  0.5222  0.1809
11880TIP3    H157055   5.422   0.289   0.547 -1.6234  3.3392  0.2806
11880TIP3    H257056   5.416   0.171   0.642  3.1751  1.3891 -1.6947
11881TIP3   OH257057   0.123   5.116   5.836 -0.9073 -0.2357  0.4338
11881TIP3    H157058   0.060   5.045   5.850 -1.4878  0.0270 -0.8366
11881TIP3    H257059   0.132   5.123   5.741  0.8228 -0.0686  0.5875
11882TIP3   OH257060   1.661   3.285   5.586  0.3266 -0.4835  0.3184
11882TIP3    H157061   1.756   3.290   5.600  0.5374  0.3331 -1.2187
11882TIP3    H257062   1.652   3.284   5.490 -1.1996 -0.8262  0.4663
11883TIP3   OH257063   4.357   2.651  13.247  0.6653  0.3252 -0.3770
11883TIP3    H157064   4.313   2.721  13.198  0.2236  0.3604  0.0594
11883TIP3    H257065   4.403   2.697  13.317  1.3283  0.2788 -0.7852
11884TIP3   OH257066   5.820   5.082   1.672  0.2258 -0.3400  0.9200
11884TIP3    H157067   5.829   5.090   1.577 -1.4604  0.4798  0.8075
11884TIP3    H257068   5.835   4.989   1.690 -1.0524 -0.8033 -0.3436
11885TIP3   OH257069   1.043   0.428   3.622  0.4286 -0.0434  0.5367
11885TIP3    H157070   0.980   0.445   3.692  0.5411 -0.8155  0.8205
11885TIP3    H257071   1.008   0.476   3.547  0.6713  1.3723  1.3021
11886TIP3   OH257072   3.936   1.192   5.806 -0.0567  0.0099 -0.1994
11886TIP3    H157073   3.982   1.274   5.787  1.1989 -0.8984 -1.1546
11886TIP3    H257074   3.909   1.201   5.898 -0.0742  1.5553 -0.3409
11887TIP3   OH257075   1.834   2.223   1.022  0.5059  0.3054 -0.0856
11887TIP3    H157076   1.817   2.170   0.944 -1.8559  0.4746  0.2705
11887TIP3    H257077   1.898   2.172   1.072 -1.3694 -2.0525  0.0287
11888TIP3   OH257078   5.700   2.908   6.501 -0.2872 -0.3502 -0.1018
11888TIP3    H157079   5.634   2.957   6.452  0.3413 -1.6133 -2.2962
11888TIP3    H257080   5.781   2.923   6.452  0.3533 -1.6629  0.5340
11889TIP3   OH257081   2.558   2.520  12.345 -0.0625 -0.4620  0.0580
11889TIP3    H157082   2.478   2.523  12.293  1.1588 -1.0851 -1.9122
11889TIP3    H257083   2.538   2.459  12.416 -1.8315  0.5842  0.4946
11890TIP3   OH257084   5.690   5.852   4.841  0.2125  0.4558 -0.9052
11890TIP3    H157085   5.637   5.823   4.915 -1.1513  1.7908 -1.3427
11890TIP3    H257086   5.778   5.818   4.859 -0.0525  0.9908  1.4522
11891TIP3   OH257087   1.444   5.546   5.153 -0.8449  0.1025 -0.0188
11891TIP3    H157088   1.497   5.588   5.221 -0.1887 -1.7212  0.6403
11891TIP3    H257089   1.371   5.506   5.201 -0.4089 -1.1522 -0.3706
11892TIP3   OH257090   4.554   3.068  17.061 -0.3424  0.0345 -0.2146
11892TIP3    H157091   4.631   3.125  17.055 -0.3057 -0.1720 -1.9512
11892TIP3    H257092   4.590   2.980  17.062 -0.4766 -0.0123  0.8771
11893TIP3   OH257093   3.705   4.562  11.670 -0.2276  0.1646 -0.3257
11893TIP3    H157094   3.778   4.504  11.648 -0.7104 -0.5220 -0.1383
11893TIP3    H257095   3.710   4.632  11.605  1.3184  0.7737  0.4139
11894TIP3   OH257096   2.301   4.621   1.090 -0.0340 -0.2503  0.4374
11894TIP3    H157097   2.316   4.538   1.137  0.3127 -0.3578  0.1391
11894TIP3    H257098   2.356   4.614   1.012  1.1440  0.8938  1.1532
11895TIP3   OH257099   2.786   4.388  13.537 -0.4822 -0.3452 -0.1175
11895TIP3    H157100   2.752   4.416  13.622 -1.7034 -0.7247 -0.4708
11895TIP3    H257101   2.709   4.355  13.490  0.0660  0.3976 -1.5808
11896TIP3   OH257102   1.502   3.174   5.090  0.2970  0.1824  0.1578
11896TIP3    H157103   1.447   3.160   5.168  1.1345  2.2973  1.1675
11896TIP3    H257104   1.489   3.095   5.038  1.3346 -2.2695  3.4200
11897TIP3   OH257105   3.834   2.506  12.002 -1.1554  0.1980  0.6543
11897TIP3    H157106   3.872   2.524  11.917 -0.0861  0.2235  1.1342
11897TIP3    H257107   3.741   2.526  11.991 -1.2933 -1.2066 -0.9094
11898TIP3   OH257108   1.491   1.322  15.061  0.7995 -0.5254  0.0183
11898TIP3    H157109   1.415   1.358  15.016  0.0874  0.2980  1.8053
11898TIP3    H257110   1.545   1.284  14.992  0.0965  1.3215 -1.5766
11899TIP3   OH257111   1.340   1.592  13.813 -0.0994  0.0517 -0.0620
11899TIP3    H157112   1.288   1.514  13.800  1.2501 -0.6896 -1.1476
11899TIP3    H257113   1.328   1.644  13.733  1.6969 -0.6676 -0.8359
11900TIP3   OH257114   3.459   0.965   1.264  0.6749  0.1001 -0.4729
11900TIP3    H157115   3.488   0.877   1.291 -0.6032 -0.5484 -1.1649
11900TIP3    H257116   3.413   0.950   1.181  0.9649  1.5141 -0.8988
11901TIP3   OH257117   0.578   1.393  16.247  0.3624 -0.9013  0.4050
11901TIP3    H157118   0.514   1.458  16.276  1.5521 -0.4127  1.9950
11901TIP3    H257119   0.539   1.309  16.271 -0.5617 -0.7168 -0.4155
11902TIP3   OH257120   1.600   1.613   4.865 -0.4098  0.1257  0.4742
11902TIP3    H157121   1.511   1.640   4.843 -0.4050  0.6931  1.1153
11902TIP3    H257122   1.651   1.694   4.864 -0.1503 -0.0203  1.2789
11903TIP3   OH257123   2.142   4.211   1.036 -0.0143 -0.3547  0.1624
11903TIP3    H157124   2.068   4.271   1.027  1.3786  1.6794  1.6907
11903TIP3    H257125   2.211   4.251   0.983  1.1084 -0.2771  1.6548
11904TIP3   OH257126   4.258   0.146   2.372 -0.7241  0.6872 -0.5466
11904TIP3    H157127   4.275   0.227   2.420 -1.7296  2.1414 -2.6080
11904TIP3    H257128   4.179   0.110   2.414 -0.0111  0.5094  0.6707
11905TIP3   OH257129   6.071   4.529  11.664 -0.7762 -0.6313  0.4122
11905TIP3    H157130   6.081   4.617  11.701 -0.9255 -0.3797 -0.1350
11905TIP3    H257131   6.102   4.471  11.733  0.5111 -0.0835  0.3298
11906TIP3   OH257132   0.714   4.342  12.911 -0.4924  0.3024  0.2506
11906TIP3    H157133   0.782   4.274  12.905 -0.4020  0.3356  0.8511
11906TIP3    H257134   0.754   4.420  12.872 -1.2052 -0.4362 -2.0393
11907TIP3   OH257135   2.618   0.902   6.201 -0.1507  0.4499 -0.5371
11907TIP3    H157136   2.530   0.939   6.200 -0.5249 -0.3160  1.2029
11907TIP3    H257137   2.610   0.819   6.155 -0.7039 -0.3378  0.9423
11908TIP3   OH257138   4.213   4.840   6.173 -0.1005 -0.5615 -0.2095
11908TIP3    H157139   4.193   4.857   6.265  0.6401  1.2965 -0.3753
11908TIP3    H257140   4.127   4.825   6.133 -0.4826 -0.7338  0.6564
11909TIP3   OH257141   5.663   1.312   3.782  0.5315 -0.0582 -0.0713
11909TIP3    H157142   5.741   1.255   3.777  1.5567  1.2446  0.7941
11909TIP3    H257143   5.592   1.257   3.750  1.9818 -0.9671 -1.8733
11910TIP3   OH257144   1.834   4.973  16.000 -0.2419  0.6117  0.7128
11910TIP3    H157145   1.910   5.030  15.984 -0.4898  0.4390 -1.2876
11910TIP3    H257146   1.780   4.985  15.921 -0.7147 -1.7392  0.6684
11911TIP3   OH257147   2.206   4.604  15.103 -0.6639  0.4441 -0.5879
11911TIP3    H157148   2.169   4.653  15.030  0.2442  0.4354 -1.0653
11911TIP3    H257149   2.238   4.523  15.064  0.3936  0.7152 -0.2929
11912TIP3   OH257150   3.079   3.121  15.500 -0.5135 -0.5917 -0.3851
11912TIP3    H157151   3.021   3.174  15.446 -0.5533 -1.5933 -1.3404
11912TIP3    H257152   3.042   3.126  15.588 -2.2021 -1.4349 -1.0283
11913TIP3   OH257153   3.181   6.250   5.470  0.2194  0.1133 -0.1288
11913TIP3    H157154   3.149   6.205   5.548  0.5943  0.6945  0.3673
11913TIP3    H257155   3.211   6.335   5.502  1.3634 -0.0455 -0.7244
11914TIP3   OH257156   5.871   0.348   4.687  0.1188  0.3635 -0.2384
11914TIP3    H157157   5.848   0.290   4.615 -0.4739 -0.1097  0.3216
11914TIP3    H257158   5.804   0.332   4.753  0.4807  1.0130  0.2970
11915TIP3   OH257159   0.044   2.983   0.779 -0.0162 -0.3949 -0.0059
11915TIP3    H157160   0.036   3.003   0.872 -0.6096 -0.9211  0.0620
11915TIP3    H257161  -0.015   2.908   0.766 -1.9946  1.3332 -1.3318
11916TIP3   OH257162   3.885   2.421  13.617  0.3211  0.3067 -0.0490
11916TIP3    H157163   3.935   2.458  13.690 -0.4344  2.1996 -0.4549
11916TIP3    H257164   3.946   2.360  13.575  2.3612  2.5969 -0.5699
11917TIP3   OH257165   1.440   5.479   3.261 -1.0965 -0.4133 -0.0554
11917TIP3    H157166   1.432   5.399   3.313 -1.1324  0.2184  0.9329
11917TIP3    H257167   1.350   5.496   3.231 -1.1236 -0.6385 -0.1030
11918TIP3   OH257168   4.127   5.034  13.516 -0.0653  0.6457  0.1719
11918TIP3    H157169   4.221   5.048  13.507 -0.0669  0.1608 -0.6725
11918TIP3    H257170   4.091   5.063  13.432 -0.4121 -1.3765 -0.4023
11919TIP3   OH257171   4.496   3.879   5.107  0.3254 -0.0646  0.3436
11919TIP3    H157172   4.437   3.814   5.146 -0.6074  2.7162  3.8439
11919TIP3    H257173   4.551   3.908   5.181  2.3503  1.3780 -1.6684
11920TIP3   OH257174   6.778   6.219  13.832 -0.3474  0.6314  0.1722
11920TIP3    H157175   6.699   6.229  13.780 -0.7389  2.1171  1.0138
11920TIP3    H257176   6.762   6.143  13.888 -0.2361 -0.4816 -1.3003
11921TIP3   OH257177   5.262   4.405  13.713 -0.3621 -0.4956 -0.0967
11921TIP3    H157178   5.220   4.438  13.792  2.9439  0.9331  1.1496
11921TIP3    H257179   5.356   4.407  13.733  0.3209 -4.3042 -2.4746
11922TIP3   OH257180   3.890   0.708   1.029 -0.1770 -0.3782  0.0544
11922TIP3    H157181   3.798   0.686   1.042 -0.2254  0.6515  1.6031
11922TIP3    H257182   3.938   0.631   1.058 -0.5701 -1.5106 -2.1941
11923TIP3   OH257183   3.669   5.329  13.183  0.2657  0.4573 -1.0831
11923TIP3    H157184   3.592   5.287  13.144  1.1875 -0.5218 -1.8923
11923TIP3    H257185   3.723   5.355  13.108  1.4503 -0.2688 -0.4962
11924TIP3   OH257186   4.414   3.186   3.493 -0.0926  0.0436 -0.0643
11924TIP3    H157187   4.465   3.112   3.526 -0.1643  0.3175  0.6610
11924TIP3    H257188   4.420   3.178   3.398  1.9179  0.4810  0.0010
11925TIP3   OH257189   2.284   1.986   1.839  0.5097  0.0910  0.5585
11925TIP3    H157190   2.335   1.918   1.883  0.2128 -0.7078 -0.3153
11925TIP3    H257191   2.315   1.985   1.749  0.6112  1.2372  0.5694
11926TIP3   OH257192   0.894   6.022   4.982  0.3047  0.5872 -0.5746
11926TIP3    H157193   0.871   6.014   4.890  0.4957 -0.3245 -0.5530
11926TIP3    H257194   0.830   6.084   5.018 -0.7854 -0.2745 -0.9744
11927TIP3   OH257195   2.124   3.748  14.355 -0.2155 -0.1695  0.0262
11927TIP3    H157196   2.112   3.820  14.416  0.1349 -0.2421  0.1765
11927TIP3    H257197   2.156   3.676  14.408 -1.8783 -0.8637  0.1221
11928TIP3   OH257198   5.058   0.950  11.163  0.4681  0.4454 -0.3089
11928TIP3    H157199   5.092   1.008  11.094 -0.1641  0.8276 -0.3098
11928TIP3    H257200   4.965   0.943  11.143  0.0745  1.4408  1.1501
11929TIP3   OH257201   2.378   4.710   4.467  0.1489 -0.3867 -0.6896
11929TIP3    H157202   2.439   4.749   4.529  0.8891 -1.0595 -0.9795
11929TIP3    H257203   2.428   4.701   4.386 -0.8705  0.6808 -1.4499
11930TIP3   OH257204   2.479   2.740  16.382  0.0709  0.0413  0.1104
11930TIP3    H157205   2.491   2.725  16.476  0.5226  0.4073  0.1132
11930TIP3    H257206   2.475   2.836  16.374  1.9798  0.0924 -0.4808
11931TIP3   OH257207   4.733   6.547   0.603  0.4250 -0.3168  0.3870
11931TIP3    H157208   4.737   6.468   0.657  2.5777 -1.4040 -1.2940
11931TIP3    H257209   4.807   6.600   0.633 -0.7838  0.9380  1.2428
11932TIP3   OH257210   2.862   4.148   3.906  0.1944  0.2080  0.0154
11932TIP3    H157211   2.905   4.210   3.847  0.2472 -3.1317 -3.6302
11932TIP3    H257212   2.932   4.119   3.964  1.0288  0.7112 -0.7168
11933TIP3   OH257213   6.389   1.131   4.975 -0.2740 -0.2529 -0.1175
11933TIP3    H157214   6.413   1.085   4.894 -1.4403  0.7616 -1.0569
11933TIP3    H257215   6.456   1.199   4.984  0.5583 -1.1361  0.4356
11934TIP3   OH257216   4.103   6.455   6.059  0.3387 -0.8549  0.7678
11934TIP3    H157217   4.189   6.432   6.095  0.1084 -1.5526  0.8969
11934TIP3    H257218   4.041   6.403   6.111 -0.1143 -0.7838  0.3068
11935TIP3   OH257219   2.642   6.626   2.777  0.5258  0.2887  0.1234
11935TIP3    H157220   2.606   6.564   2.840 -0.6284  2.1046  1.2753
11935TIP3    H257221   2.569   6.645   2.718 -0.0187  2.7260  1.4984
11936TIP3   OH257222   0.330   1.627   3.972 -0.3320  0.0769 -0.1345
11936TIP3    H157223   0.403   1.613   4.033 -0.8754  0.8484  0.7077
11936TIP3    H257224   0.346   1.565   3.901  0.8016 -0.2064  0.3511
11937TIP3   OH257225   2.562   5.322   3.744 -0.5390 -0.4967  0.1059
11937TIP3    H157226   2.516   5.406   3.740 -0.4901 -0.4533  0.4561
11937TIP3    H257227   2.504   5.261   3.698 -0.3071 -0.1523 -0.6597
11938TIP3   OH257228   1.718   1.370   3.967 -0.0907  0.2736  0.0422
11938TIP3    H157229   1.740   1.351   3.876  1.3600 -0.1417  0.4600
11938TIP3    H257230   1.707   1.284   4.007 -1.0951  0.4619  0.1699
11939TIP3   OH257231   4.292   4.841  13.012 -0.2754  0.9056  0.0749
11939TIP3    H157232   4.285   4.746  13.019 -0.4605  0.8456 -0.8389
11939TIP3    H257233   4.386   4.858  13.008 -0.2370  0.7716  0.4222
11940TIP3   OH257234   1.667   2.030  12.416 -0.2557  0.1521  0.0332
11940TIP3    H157235   1.599   2.070  12.362 -0.0985 -1.7242 -1.5578
11940TIP3    H257236   1.750   2.060  12.377 -0.1430 -1.1435 -0.7393
11941TIP3   OH257237   5.155   5.042  12.661  0.0553  0.1721 -0.6331
11941TIP3    H157238   5.102   5.094  12.722  1.8252  0.2131  0.9202
11941TIP3    H257239   5.182   5.105  12.594  0.0098  0.6615 -0.2020
11942TIP3   OH257240   0.683   3.429  11.437  0.4129 -0.4820  0.0474
11942TIP3    H157241   0.596   3.469  11.443  0.3955 -0.1666 -1.9833
11942TIP3    H257242   0.666   3.335  11.436 -0.0184 -0.3948 -1.8101
11943TIP3   OH257243   0.458   5.706  14.672 -0.0904  0.0675  0.7888
11943TIP3    H157244   0.536   5.760  14.689  0.2732 -0.9284  2.4245
11943TIP3    H257245   0.394   5.767  14.637  1.2671  1.0083 -0.1253
11944TIP3   OH257246   3.657   0.797  16.301 -0.0576  0.6139 -0.0383
11944TIP3    H157247   3.709   0.720  16.281 -1.6224 -0.6181  0.5559
11944TIP3    H257248   3.682   0.820  16.391 -1.4999 -0.7814  0.7340
11945TIP3   OH257249   2.975   6.660  13.550  0.4990  0.3069 -0.3586
11945TIP3    H157250   3.004   6.696  13.634  0.9525  1.2373 -0.9020
11945TIP3    H257251   2.941   6.573  13.571  3.0944 -0.5470  0.3836
11946TIP3   OH257252   6.769   4.315  11.369  0.3212 -0.0452  0.5237
11946TIP3    H157253   6.697   4.268  11.411  0.7362 -2.0116 -0.8687
11946TIP3    H257254   6.727   4.384  11.319 -0.6025 -1.0280 -0.0863
11947TIP3   OH257255   4.606   3.872  11.279  0.0558 -0.4705  0.9823
11947TIP3    H157256   4.535   3.874  11.344  1.7842 -1.6622  2.9729
11947TIP3    H257257   4.622   3.779  11.264  0.9978 -0.2048  0.2917
11948TIP3   OH257258   4.186   3.027  15.897  0.6535 -0.9819 -0.1553
11948TIP3    H157259   4.277   3.041  15.873  0.3859  0.0121 -0.5868
11948TIP3    H257260   4.153   3.113  15.921 -0.2328 -1.2991 -0.2047
11949TIP3   OH257261   1.714   0.169  13.418 -0.4022 -0.7646  0.2197
11949TIP3    H157262   1.753   0.209  13.341 -2.5399  0.7255 -0.1408
11949TIP3    H257263   1.788   0.139  13.470  1.1666  0.8928 -0.9998
11950TIP3   OH257264   3.348   1.630  16.335  0.1632  0.1971  0.3934
11950TIP3    H157265   3.265   1.595  16.366 -0.7118  1.7376 -0.1389
11950TIP3    H257266   3.324   1.687  16.261  1.8817 -0.9538 -1.1104
11951TIP3   OH257267   5.684   6.009   5.138  0.1145  0.1901  0.2773
11951TIP3    H157268   5.593   5.992   5.165  0.3469 -1.2763  0.1539
11951TIP3    H257269   5.676   6.073   5.067 -1.0210 -1.8121 -1.4705
11952TIP3   OH257270   0.296   3.718   0.784 -0.7198 -0.1228 -0.0071
11952TIP3    H157271   0.212   3.763   0.795 -0.7102  0.5436 -2.3083
11952TIP3    H257272   0.355   3.761   0.846 -1.5288  0.9491  0.0335
11953TIP3   OH257273   1.105   5.631  15.658  0.7392  0.1524 -0.0644
11953TIP3    H157274   1.134   5.602  15.745  0.9524 -0.5461 -0.3697
11953TIP3    H257275   1.149   5.572  15.597 -0.0635  0.1158 -0.6061
11954TIP3   OH257276   0.261   1.227   1.334  0.2203  0.1742  0.4836
11954TIP3    H157277   0.217   1.143   1.350  1.8800 -0.7883  0.1075
11954TIP3    H257278   0.315   1.241   1.412  0.7361  0.3852  0.0881
11955TIP3   OH257279   1.208   2.207   2.719 -0.3204 -0.1262 -0.3012
11955TIP3    H157280   1.273   2.202   2.649 -0.0766 -0.5671 -0.0478
11955TIP3    H257281   1.125   2.225   2.674  0.3305  2.8493 -0.4534
11956TIP3   OH257282   0.644   0.592  12.675 -0.5583 -0.2735 -0.1729
11956TIP3    H157283   0.723   0.641  12.695 -1.3503  1.0989 -0.3510
11956TIP3    H257284   0.643   0.520  12.738  0.7203 -0.1729 -0.0384
11957TIP3   OH257285   2.824   3.140  15.098  0.1989 -0.3303 -0.1440
11957TIP3    H157286   2.776   3.164  15.019 -0.4394  0.4290  0.4593
11957TIP3    H257287   2.871   3.060  15.075 -0.1019 -0.1961 -1.2386
11958TIP3   OH257288   0.817   3.763  11.900  0.0420  0.0792  0.3499
11958TIP3    H157289   0.763   3.837  11.872 -1.2150 -0.9325  0.0294
11958TIP3    H257290   0.884   3.801  11.957 -0.2173  1.5315 -0.3100
11959TIP3   OH257291   0.179   4.490  14.938 -0.4604  0.2904  0.3561
11959TIP3    H157292   0.237   4.559  14.969  3.2028 -2.6953  0.5350
11959TIP3    H257293   0.153   4.519  14.850  2.5603  1.0901 -0.3584
11960TIP3   OH257294   3.135   3.631   1.660 -0.1320  0.1519  0.4908
11960TIP3    H157295   3.180   3.714   1.676  0.1994  0.6022 -2.4414
11960TIP3    H257296   3.168   3.572   1.728  0.3861  2.1294  1.9846
11961TIP3   OH257297   2.967   0.185   1.998  0.0437  0.1361 -0.4645
11961TIP3    H157298   2.945   0.254   1.935 -0.1549 -0.2871 -0.8649
11961TIP3    H257299   3.046   0.217   2.042 -1.5648  1.8655  1.2725
11962TIP3   OH257300   3.644   0.027  15.257 -0.4510  0.1806  0.1008
11962TIP3    H157301   3.548   0.025  15.261 -0.4495  1.8707  1.4446
11962TIP3    H257302   3.664   0.100  15.198  0.0078 -1.2096 -1.4978
11963TIP3   OH257303   5.887   1.774   4.707 -0.3646  0.0627 -0.1440
11963TIP3    H157304   5.800   1.763   4.669  0.3343  0.5226 -1.9474
11963TIP3    H257305   5.933   1.830   4.644  1.2962 -0.3698  0.6744
11964TIP3   OH257306   1.854   0.469  14.940  0.5245 -0.1973  0.1712
11964TIP3    H157307   1.936   0.426  14.966  0.2760 -1.0810 -0.4924
11964TIP3    H257308   1.792   0.443  15.008  0.1328 -1.6753 -0.7474
11965TIP3   OH257309   0.728   5.052   5.073  0.5839 -1.2294 -0.0712
11965TIP3    H157310   0.787   5.021   5.005  1.6913 -0.5331  0.5441
11965TIP3    H257311   0.764   5.014   5.154  0.2444 -0.7267  0.3160
11966TIP3   OH257312   2.119   2.000  15.181  0.4707 -0.6610  0.2562
11966TIP3    H157313   2.144   1.913  15.150  1.4145 -2.0199  4.5617
11966TIP3    H257314   2.029   1.991  15.210  1.1092 -0.6732  2.2789
11967TIP3   OH257315   5.195   0.801   4.056 -0.0248 -0.2108  0.5740
11967TIP3    H157316   5.152   0.781   4.140  0.3178  1.1888  1.0965
11967TIP3    H257317   5.288   0.806   4.078 -0.1015  2.0792  0.5181
11968TIP3   OH257318   6.036   5.566   3.828 -0.1574 -0.7932 -0.2398
11968TIP3    H157319   6.053   5.634   3.762  1.8169 -1.2037 -0.1821
11968TIP3    H257320   5.993   5.612   3.900  0.2227  0.2006 -0.6415
11969TIP3   OH257321   2.220   0.413   0.988  0.7958 -0.2238  0.4912
11969TIP3    H157322   2.286   0.464   1.035  1.5992 -1.2958  0.5279
11969TIP3    H257323   2.242   0.322   1.005 -2.0814 -0.6195  2.4094
11970TIP3   OH257324   5.706   0.001  16.388 -0.5844  0.3368 -0.3536
11970TIP3    H157325   5.725   0.013  16.295 -0.6750 -0.3656 -0.4671
11970TIP3    H257326   5.760   0.066  16.433  1.1110 -0.7627 -0.7515
11971TIP3   OH257327   0.755   5.393  11.849  0.3147 -0.3910 -0.1948
11971TIP3    H157328   0.759   5.326  11.917 -0.0329  0.8211  1.0373
11971TIP3    H257329   0.687   5.362  11.789 -1.6353  0.0653  1.7198
11972TIP3   OH257330   3.569   1.194   2.237 -0.0747  0.4057 -0.5266
11972TIP3    H157331   3.613   1.273   2.267  0.7888  0.1443 -1.0949
11972TIP3    H257332   3.621   1.122   2.274 -0.9738  0.1028  0.1634
11973TIP3   OH257333   1.065   2.951   4.289  0.1437  0.0978 -0.4180
11973TIP3    H157334   1.031   2.963   4.200 -0.6882  1.2920  0.0523
11973TIP3    H257335   1.041   3.031   4.335  2.1116  0.2509  0.4104
11974TIP3   OH257336   0.841   2.977  15.301  0.3717  0.4745  0.0284
11974TIP3    H157337   0.935   2.965  15.291  0.3624  0.7722 -0.4204
11974TIP3    H257338   0.821   2.942  15.388  1.2531  2.3886  1.0412
11975TIP3   OH257339   5.095   1.084  15.237  0.3233 -0.1230  0.4569
11975TIP3    H157340   5.187   1.074  15.213  0.2131 -0.0374 -0.0107
11975TIP3    H257341   5.088   1.040  15.321  1.0323  0.8546  1.0375
11976TIP3   OH257342   0.894   2.282   1.863  0.6068 -0.3481  0.1813
11976TIP3    H157343   0.913   2.369   1.897 -0.8531 -0.9034  2.5164
11976TIP3    H257344   0.930   2.222   1.928  1.9569 -1.5318 -1.5986
11977TIP3   OH257345   1.253   4.421  11.060 -0.1792 -0.0764 -0.2026
11977TIP3    H157346   1.328   4.378  11.018  2.1590  2.7425  0.8631
11977TIP3    H257347   1.208   4.465  10.988 -0.4457 -1.2287 -0.7580
11978TIP3   OH257348   3.511   3.464   2.376  0.1717 -0.2900 -0.3659
11978TIP3    H157349   3.511   3.414   2.294  0.4331  2.1353 -1.8822
11978TIP3    H257350   3.422   3.497   2.384  0.9613  2.2019 -1.4222
11979TIP3   OH257351   2.352   6.471  12.302 -0.3763  0.0937 -0.2739
11979TIP3    H157352   2.422   6.536  12.313 -0.5722  0.1323  0.7984
11979TIP3    H257353   2.321   6.484  12.212 -1.5666  2.6943  0.4510
11980TIP3   OH257354   4.580   5.461  14.041 -0.2537 -0.0742 -0.0981
11980TIP3    H157355   4.501   5.486  14.089 -0.5028 -0.8033 -0.1304
11980TIP3    H257356   4.651   5.477  14.103 -0.6976 -2.5045  1.1201
11981TIP3   OH257357   4.241   2.348   6.439  0.3515 -0.1600 -0.1344
11981TIP3    H157358   4.272   2.258   6.452 -1.1579 -0.8332 -1.1181
11981TIP3    H257359   4.319   2.396   6.411  1.2048 -1.1103  0.5491
11982TIP3   OH257360   6.327   0.220  15.205  0.1002  0.0843  0.3166
11982TIP3    H157361   6.235   0.234  15.182  0.1624 -1.0626 -0.6448
11982TIP3    H257362   6.368   0.306  15.194 -0.3274  0.0330 -1.7742
11983TIP3   OH257363   5.317   4.475  12.038  0.1168 -0.5375  0.4616
11983TIP3    H157364   5.282   4.394  12.076 -1.2264  0.5649  1.6494
11983TIP3    H257365   5.264   4.490  11.960  0.3200 -0.7664  0.2793
11984TIP3   OH257366   5.157   1.175  12.814 -0.2715  0.1228  0.3959
11984TIP3    H157367   5.189   1.112  12.750  0.0799 -0.5873  1.2634
11984TIP3    H257368   5.138   1.254  12.763 -1.5487 -0.9607 -0.8202
11985TIP3   OH257369   1.995   1.109  15.831 -0.2803  0.5614  0.6015
11985TIP3    H157370   2.039   1.194  15.837  0.2713  0.2805  0.5586
11985TIP3    H257371   2.048   1.051  15.886 -2.2582  0.9034  2.9721
11986TIP3   OH257372   1.840   4.412   2.864  0.2329 -0.7855 -0.7561
11986TIP3    H157373   1.820   4.387   2.954  1.0355 -1.2662 -0.7073
11986TIP3    H257374   1.783   4.356   2.811 -0.9190  0.1574 -0.5228
11987TIP3   OH257375   2.190   5.599   4.633  0.4098  0.1779  0.1534
11987TIP3    H157376   2.221   5.638   4.551 -1.6038  0.2868 -0.5947
11987TIP3    H257377   2.193   5.669   4.697  0.0841  0.6408 -0.3354
11988TIP3   OH257378   0.554   2.308  13.509 -0.3242 -0.2958  0.4465
11988TIP3    H157379   0.633   2.259  13.533  0.2284  0.7524  0.8020
11988TIP3    H257380   0.577   2.353  13.428 -0.8631 -0.6768  0.0734
11989TIP3   OH257381   2.024   2.040   2.285 -0.3023  0.0603  0.4476
11989TIP3    H157382   2.092   1.976   2.264  0.0303  0.3213  0.7220
11989TIP3    H257383   1.985   2.009   2.366  1.2620  1.3077  1.7066
11990TIP3   OH257384   1.587   0.162  16.950  0.4373 -0.1622 -0.0003
11990TIP3    H157385   1.547   0.076  16.941  0.1135  0.1469 -1.6540
11990TIP3    H257386   1.581   0.181  17.044 -1.3872 -1.0301  0.0951
11991TIP3   OH257387   2.873   5.757  15.065 -0.2546  0.4380  0.7489
11991TIP3    H157388   2.964   5.734  15.085 -0.5167  0.8721  2.5107
11991TIP3    H257389   2.879   5.821  14.995  0.8908  1.8571  2.1198
11992TIP3   OH257390   3.332   4.546   4.756  0.0931 -0.4793 -0.0213
11992TIP3    H157391   3.418   4.542   4.714  0.6389 -0.1288  1.0382
11992TIP3    H257392   3.284   4.614   4.708  0.3963 -0.7029 -0.6362
11993TIP3   OH257393   6.570   0.332   0.624  0.0971  0.1267 -0.6038
11993TIP3    H157394   6.654   0.293   0.649  0.1424 -0.2566 -1.3477
11993TIP3    H257395   6.583   0.361   0.534 -0.4941  0.3018 -0.6354
11994TIP3   OH257396   5.754   2.110  13.988 -0.0328 -0.0840  0.4364
11994TIP3    H157397   5.845   2.137  13.982  0.3107 -0.8015  2.0792
11994TIP3    H257398   5.751   2.024  13.946 -0.3453  0.7792 -1.3248
11995TIP3   OH257399   6.608   1.820   5.402  0.1180 -0.0075  0.1405
11995TIP3    H157400   6.616   1.853   5.491 -2.5600 -1.0971  0.8505
11995TIP3    H257401   6.537   1.756   5.407  0.6080 -0.8207 -2.5792
11996TIP3   OH257402   2.237   5.947  14.664  0.4567 -0.0465 -0.1012
11996TIP3    H157403   2.251   5.899  14.583  0.2924 -0.0765 -0.1099
11996TIP3    H257404   2.283   5.896  14.731 -0.0129 -0.3957 -0.0478
11997TIP3   OH257405   0.465   1.632   5.294  0.2225 -0.5060  0.1248
11997TIP3    H157406   0.412   1.616   5.215 -1.9777 -1.0490  1.6649
11997TIP3    H257407   0.454   1.553   5.346  0.8647  0.2437  1.4089
11998TIP3   OH257408   2.277   6.676   3.930  0.7060 -0.2686  0.2651
11998TIP3    H157409   2.344   6.641   3.872 -0.6130 -0.1888 -1.3332
11998TIP3    H257410   2.298   6.639   4.016  3.8970  1.2499  0.2282
11999TIP3   OH257411   6.480   1.527   3.605 -0.3705 -0.7606 -0.0512
11999TIP3    H157412   6.563   1.546   3.649  0.8395 -0.2887 -2.4574
11999TIP3    H257413   6.460   1.437   3.629  0.2563 -0.5176  1.4440
12000TIP3   OH257414   0.203   0.968  12.441  0.1827  1.0344 -0.0231
12000TIP3    H157415   0.205   0.965  12.345 -0.7548  2.9819 -0.1310
12000TIP3    H257416   0.245   1.051  12.464  0.4543  0.5588  1.2564
12001TIP3   OH257417   1.152   6.396   5.869 -0.3881 -0.7731  0.0594
12001TIP3    H157418   1.080   6.456   5.889 -1.3330 -2.0063  0.5062
12001TIP3    H257419   1.217   6.449   5.823 -1.8510  0.2370 -0.8843
12002TIP3   OH257420   3.978   1.832   3.675 -0.8140  0.1652 -0.1138
12002TIP3    H157421   3.904   1.775   3.697 -1.1110 -0.0396 -1.6372
12002TIP3    H257422   3.937   1.911   3.639 -0.4104  1.3608  1.9634
12003TIP3   OH257423   5.269   2.592   2.323  0.8977 -0.0681  0.2352
12003TIP3    H157424   5.226   2.676   2.305 -1.8446 -1.2571  0.8719
12003TIP3    H257425   5.318   2.572   2.243 -2.9641 -0.4859 -2.1828
12004TIP3   OH257426   5.599   5.431   4.948  0.5150 -1.0360 -0.1279
12004TIP3    H157427   5.643   5.516   4.960  0.9977 -1.3511  0.3448
12004TIP3    H257428   5.506   5.452   4.953  0.6437 -0.6999  1.1443
12005TIP3   OH257429   0.961   0.181  14.768 -0.6521 -0.5127 -0.7693
12005TIP3    H157430   1.056   0.191  14.763 -0.6866  0.4531  0.3045
12005TIP3    H257431   0.927   0.270  14.759 -1.4539 -0.8611 -1.1907
12006TIP3   OH257432   6.389   5.038  16.298 -0.6007  0.7999  0.6238
12006TIP3    H157433   6.372   5.119  16.347  0.1668  1.0391  0.5140
12006TIP3    H257434   6.420   5.069  16.212 -2.7969  0.3915 -0.3433
12007TIP3   OH257435   3.911   4.024  16.177  0.0485  0.1084 -0.0182
12007TIP3    H157436   3.974   3.952  16.168  3.7425  2.9998  1.1350
12007TIP3    H257437   3.913   4.069  16.093  1.9715  1.9827  0.9629
12008TIP3   OH257438   3.737   0.624  11.940 -0.1846  0.2569 -0.3145
12008TIP3    H157439   3.663   0.666  11.896  0.3417  0.4651 -1.0120
12008TIP3    H257440   3.778   0.695  11.991  0.7050  0.6077 -1.4937
12009TIP3   OH257441   2.061   2.927   2.224  0.5837 -0.7896  0.0689
12009TIP3    H157442   2.026   2.937   2.136  0.0965  1.2909  0.4720
12009TIP3    H257443   1.985   2.904   2.278  0.7923 -1.5801  0.0216
12010TIP3   OH257444   5.412   4.297   0.289  0.1225 -0.1295  0.0052
12010TIP3    H157445   5.475   4.239   0.247 -0.7548 -0.7948 -0.3986
12010TIP3    H257446   5.405   4.263   0.378  0.3106 -0.0796  0.0390
12011TIP3   OH257447   2.303   3.983  12.154  0.2351  0.1983  0.3540
12011TIP3    H157448   2.255   3.918  12.205 -0.6140  1.3758  1.0779
12011TIP3    H257449   2.240   4.015  12.090  1.0065 -0.5499 -0.7945
12012TIP3   OH257450   6.736   6.129   2.000 -0.3245  0.2172  0.1475
12012TIP3    H157451   6.771   6.218   1.994  1.0718 -0.3839 -0.7844
12012TIP3    H257452   6.804   6.079   2.045 -0.3454 -0.7806 -0.9200
12013TIP3   OH257453   4.696   5.599  12.808  0.0989  0.3664 -0.5718
12013TIP3    H157454   4.610   5.590  12.767 -0.8776  0.2869  1.4283
12013TIP3    H257455   4.699   5.690  12.837  0.6779  0.3629 -0.6260
12014TIP3   OH257456   4.904   1.232   1.263  0.0659 -0.0653 -0.7231
12014TIP3    H157457   4.910   1.316   1.216 -0.4332 -1.0257 -2.5443
12014TIP3    H257458   4.884   1.168   1.195  1.1485 -1.7910  0.5392
12015TIP3   OH257459   4.082   1.228   2.913 -0.3781 -0.4746  0.7598
12015TIP3    H157460   4.109   1.319   2.900  2.8534 -1.5665 -0.6910
12015TIP3    H257461   4.058   1.197   2.826 -1.2294 -1.1027  1.2085
12016TIP3   OH257462   2.837   3.760  15.243 -0.0139 -0.1330 -0.8136
12016TIP3    H157463   2.846   3.685  15.184 -0.7510 -1.8422  1.2057
12016TIP3    H257464   2.927   3.782  15.266  0.2339 -0.0597 -1.8465
12017TIP3   OH257465   0.284   3.810  12.647  0.5495  0.3105 -0.1784
12017TIP3    H157466   0.268   3.883  12.708 -0.9429  1.7681 -2.2722
12017TIP3    H257467   0.223   3.742  12.675  1.5471  0.0292  1.4264
12018TIP3   OH257468   1.247   6.151   1.921  0.4627  0.7588 -0.0099
12018TIP3    H157469   1.298   6.204   1.982 -0.3989  0.2056  1.2149
12018TIP3    H257470   1.308   6.083   1.892  1.1884  1.6394 -0.6031
12019TIP3   OH257471   6.152   1.466   4.378 -0.5001  0.0527  0.7829
12019TIP3    H157472   6.184   1.437   4.463 -1.3435 -1.0685  0.7255
12019TIP3    H257473   6.066   1.504   4.396 -0.3975  0.4213  0.5152
12020TIP3   OH257474   1.532   1.327  15.678 -0.0275 -0.7556 -0.3694
12020TIP3    H157475   1.545   1.360  15.767  0.1456 -2.5872  0.3195
12020TIP3    H257476   1.620   1.324  15.641  0.0657 -1.2731 -0.1156
12021TIP3   OH257477   1.227   3.104  14.074 -0.3308 -0.1721 -0.0952
12021TIP3    H157478   1.171   3.046  14.023  0.7175 -1.6313  0.3496
12021TIP3    H257479   1.205   3.084  14.165  2.1909 -2.1802  0.1475
12022TIP3   OH257480   5.482   5.177   4.786 -0.0026 -0.0524  0.0690
12022TIP3    H157481   5.559   5.234   4.788 -0.6955  1.3120 -4.9080
12022TIP3    H257482   5.415   5.225   4.835  0.7182  1.3846 -0.3312
12023TIP3   OH257483   0.436   4.845   4.457  0.4690  0.3555  0.8391
12023TIP3    H157484   0.447   4.776   4.522  1.5542  0.1436  0.4458
12023TIP3    H257485   0.358   4.819   4.407 -0.6376  0.7581  2.3223
12024TIP3   OH257486   3.385   0.373   2.289 -0.2250 -0.1651 -0.0129
12024TIP3    H157487   3.302   0.356   2.334  0.9371  1.6345  2.9962
12024TIP3    H257488   3.380   0.466   2.266  1.5863  0.3780  1.6772
12025TIP3   OH257489   2.654   3.867   5.318 -0.4714 -0.1095 -0.1483
12025TIP3    H157490   2.670   3.784   5.363 -1.0387  0.6319  1.4520
12025TIP3    H257491   2.698   3.857   5.234 -0.6086 -2.0629 -0.0113
12026TIP3   OH257492   2.029   5.535   6.048  0.6441 -0.0222  0.0516
12026TIP3    H157493   1.946   5.490   6.063  0.6538 -0.0149  0.1283
12026TIP3    H257494   2.079   5.519   6.128  1.8445 -2.4905 -1.1712
12027TIP3   OH257495   5.587   1.391  14.880  0.0358  0.1348  0.2356
12027TIP3    H157496   5.641   1.399  14.959  1.4533  0.2116 -0.7094
12027TIP3    H257497   5.634   1.327  14.826 -1.1768 -0.2887 -0.3385
12028TIP3   OH257498   5.635   1.354   1.335  0.4348 -0.4880 -0.0497
12028TIP3    H157499   5.545   1.382   1.324  0.8875  0.4057 -1.4901
12028TIP3    H257500   5.644   1.340   1.429 -0.9209  0.3473  0.2123
12029TIP3   OH257501   4.411   2.764  16.452 -0.1225  0.4770  0.8219
12029TIP3    H157502   4.328   2.742  16.494 -0.0298 -0.6314  0.4375
12029TIP3    H257503   4.416   2.860  16.458 -2.7570  0.8241 -1.6788
12030TIP3   OH257504   0.042   5.565   4.744  0.2647  0.4970  0.4032
12030TIP3    H157505   0.100   5.502   4.786 -1.9314 -1.4487  0.5926
12030TIP3    H257506   0.042   5.539   4.651 -0.3232  0.4913  0.4077
12031TIP3   OH257507   0.325   0.073   0.939 -0.2253 -0.2288 -0.1737
12031TIP3    H157508   0.375   0.009   0.989  2.1103 -0.3347 -2.5547
12031TIP3    H257509   0.258   0.022   0.893 -0.5399 -0.4937  0.5727
12032TIP3   OH257510   5.405   3.064   5.398 -0.3039 -0.2561  0.2733
12032TIP3    H157511   5.494   3.082   5.367 -0.6098 -0.9659 -1.0422
12032TIP3    H257512   5.416   3.043   5.490  1.2016 -2.7013 -0.4207
12033TIP3   OH257513   3.971   5.249  11.978 -0.1970 -0.0657 -0.7761
12033TIP3    H157514   4.028   5.237  12.054  0.9714 -0.8799 -1.7850
12033TIP3    H257515   3.883   5.254  12.016  0.4167  0.1096  0.6824
12034TIP3   OH257516   6.697   3.286   2.194  0.4712  0.8721  0.4919
12034TIP3    H157517   6.620   3.277   2.250  1.0336  0.8629  1.2770
12034TIP3    H257518   6.754   3.347   2.241  1.6146 -0.3185  0.6924
12035TIP3   OH257519   4.537   3.046   2.482 -0.0452 -0.3186  0.2610
12035TIP3    H157520   4.514   3.139   2.481  1.1636  0.0243  1.8834
12035TIP3    H257521   4.475   3.006   2.543  0.4739 -0.2692  0.8306
12036TIP3   OH257522   0.259   1.632  16.940 -0.1091  0.1233 -0.6406
12036TIP3    H157523   0.237   1.572  17.012 -0.9063  0.2990 -0.7340
12036TIP3    H257524   0.325   1.691  16.977 -1.2809  0.8643  0.2591
12037TIP3   OH257525   0.468   3.195  15.722  0.1543 -0.5962 -0.0456
12037TIP3    H157526   0.393   3.238  15.762  0.6632  0.3808 -0.1222
12037TIP3    H257527   0.480   3.115  15.773 -0.3946 -0.3197  0.5201
12038TIP3   OH257528   0.994   5.990   1.214  0.2895 -0.1788 -0.0585
12038TIP3    H157529   1.069   6.032   1.171 -0.1748 -0.6064 -1.3243
12038TIP3    H257530   0.961   6.055   1.276  0.8252  0.5539 -0.5428
12039TIP3   OH257531   0.875   1.696   1.329  0.2988  0.1670 -0.2392
12039TIP3    H157532   0.940   1.763   1.308 -0.4591  0.7681 -0.7017
12039TIP3    H257533   0.797   1.723   1.281 -0.5045 -0.1637  0.8513
12040TIP3   OH257534   2.220   2.752   2.867 -0.2653 -0.1638 -0.6661
12040TIP3    H157535   2.265   2.831   2.897  0.4507  0.8750 -4.2069
12040TIP3    H257536   2.273   2.679   2.900  0.0545  0.8735  1.1392
12041TIP3   OH257537   3.049   3.811  13.245  0.3983 -0.1690 -0.3770
12041TIP3    H157538   3.014   3.761  13.171  2.5508  0.3043 -1.7603
12041TIP3    H257539   3.093   3.746  13.300  1.0799 -0.1519 -0.8986
12042TIP3   OH257540   0.384   5.849  13.934 -0.0415 -0.0747  0.5753
12042TIP3    H157541   0.304   5.811  13.898  0.5764 -0.1844 -0.7395
12042TIP3    H257542   0.355   5.931  13.974 -0.9267 -0.4816  0.7894
12043TIP3   OH257543   1.225   6.524  13.739  0.4228  0.3339  0.0195
12043TIP3    H157544   1.308   6.572  13.736  1.6875 -1.7957 -0.0517
12043TIP3    H257545   1.158   6.591  13.725  2.1078  2.1233  0.2701
12044TIP3   OH257546   0.243   2.709  10.968  0.1056  0.1778 -0.2044
12044TIP3    H157547   0.275   2.769  10.901 -1.8588  1.7748  0.2420
12044TIP3    H257548   0.196   2.765  11.030 -1.0489 -1.7159  0.6804
12045TIP3   OH257549   2.925   0.046   3.274  0.1176 -0.0032 -0.2648
12045TIP3    H157550   3.001   0.013   3.322  0.1043  0.4281  0.0609
12045TIP3    H257551   2.909  -0.019   3.206  1.1658  0.2162 -0.7318
12046TIP3   OH257552   1.611   1.781  13.061  0.1062 -0.4336  0.3156
12046TIP3    H157553   1.556   1.850  13.098 -0.4768 -1.0471  0.6150
12046TIP3    H257554   1.694   1.787  13.109  0.5494  0.9165 -0.5841
12047TIP3   OH257555   1.097   2.300   5.924  0.3973 -0.3314  0.3759
12047TIP3    H157556   1.065   2.214   5.952  0.4086  0.0082  1.4816
12047TIP3    H257557   1.145   2.283   5.843 -2.3419 -0.8950 -1.1915
12048TIP3   OH257558   2.669   2.685   3.665  0.2187 -0.0024  0.4180
12048TIP3    H157559   2.636   2.632   3.738 -0.8298 -1.0461 -0.7857
12048TIP3    H257560   2.759   2.653   3.652  0.4549  0.2834  1.3422
12049TIP3   OH257561   1.700   0.695   5.866  0.3201 -0.2286 -0.2323
12049TIP3    H157562   1.676   0.776   5.821  1.1421  1.4209  2.1799
12049TIP3    H257563   1.628   0.680   5.927  0.7650 -0.5868  0.2111
12050TIP3   OH257564   2.585   3.262  14.369 -0.2856  0.0678  0.1255
12050TIP3    H157565   2.615   3.224  14.286  0.1746 -0.3727  0.4947
12050TIP3    H257566   2.495   3.232  14.378 -0.5145  0.5482 -0.4736
12051TIP3   OH257567   0.309   4.710   0.393 -0.1535  0.2969  0.1775
12051TIP3    H157568   0.222   4.750   0.384  0.1108  0.6538 -0.8818
12051TIP3    H257569   0.292   4.628   0.439 -1.0123  0.5018  0.2506
12052TIP3   OH257570   1.968   0.460   0.019  0.5383 -0.4111  0.1292
12052TIP3    H157571   2.011   0.398   0.078  1.0729  0.7163  0.9283
12052TIP3    H257572   1.948   0.408  -0.059  0.3960 -1.7503  1.0448
12053TIP3   OH257573   1.025   1.814  12.249  0.1068 -0.2702 -0.1540
12053TIP3    H157574   1.021   1.732  12.200 -1.4409 -0.1494 -0.2535
12053TIP3    H257575   0.933   1.837  12.264  0.5410  0.1765  1.9938
12054TIP3   OH257576   2.544   5.530   1.321 -0.7751  0.0026 -0.0307
12054TIP3    H157577   2.545   5.441   1.355 -2.4978 -0.0604 -0.0976
12054TIP3    H257578   2.456   5.563   1.341  0.4312  2.3368  1.6236
12055TIP3   OH257579   5.212   1.226   0.056  0.1635 -0.3263  0.2676
12055TIP3    H157580   5.281   1.163   0.077  0.6084  0.1622  0.2706
12055TIP3    H257581   5.206   1.224  -0.039 -0.7235 -1.3332  0.3348
12056TIP3   OH257582   4.424   0.786  11.110  0.0178  0.4957  0.6314
12056TIP3    H157583   4.458   0.703  11.143  1.7629 -0.2778 -2.9278
12056TIP3    H257584   4.342   0.763  11.067  0.9111  0.4309 -1.0828
12057TIP3   OH257585   3.623   6.136  16.362 -0.0803  0.4008  0.0966
12057TIP3    H157586   3.715   6.146  16.387  0.0209 -2.3239  0.9843
12057TIP3    H257587   3.626   6.106  16.272 -0.0445 -1.0942  0.5924
12058TIP3   OH257588   4.185   0.759   3.686  0.2437 -0.2285 -0.0810
12058TIP3    H157589   4.153   0.708   3.612 -1.4584  0.6051  0.0583
12058TIP3    H257590   4.255   0.706   3.724  0.0250 -1.4046 -1.3051
12059TIP3   OH257591   0.049   2.240  15.075 -0.2153 -0.0302 -0.7950
12059TIP3    H157592   0.038   2.277  15.162 -0.5996 -1.3614 -0.2625
12059TIP3    H257593   0.131   2.277  15.043 -0.2923  0.7991 -0.0447
12060TIP3   OH257594   4.937   2.809  11.874 -0.0409  0.5195 -0.2008
12060TIP3    H157595   4.843   2.825  11.889 -0.9762 -1.3104 -3.6073
12060TIP3    H257596   4.961   2.873  11.808  0.8304  0.1433 -0.2491
12061TIP3   OH257597   3.401   4.451   2.097  0.0933  0.2617 -0.2920
12061TIP3    H157598   3.455   4.485   2.168 -1.0398  1.6605 -0.0886
12061TIP3    H257599   3.442   4.367   2.074  1.5679  0.6765  0.7366
12062TIP3   OH257600   1.800   0.252   0.269  0.2814 -0.0706 -0.1822
12062TIP3    H157601   1.787   0.205   0.351 -0.6584 -1.3320 -1.0214
12062TIP3    H257602   1.854   0.194   0.216  2.9345  1.7877  0.4013
12063TIP3   OH257603   5.837   4.792   3.753 -0.3592 -0.1450 -0.0131
12063TIP3    H157604   5.865   4.856   3.687  0.1970  0.6063  0.9314
12063TIP3    H257605   5.913   4.737   3.766  0.1588  0.8905  1.3799
12064TIP3   OH257606   0.197   1.417   2.288 -0.9913 -0.1687  0.4662
12064TIP3    H157607   0.248   1.376   2.218 -0.6045  2.6782 -0.9967
12064TIP3    H257608   0.194   1.351   2.358 -0.3035 -2.5819 -1.7247
12065TIP3   OH257609   4.901   3.970  13.087 -0.5516  0.9425  0.3618
12065TIP3    H157610   4.970   4.034  13.069 -0.0518  0.3857  0.3199
12065TIP3    H257611   4.823   4.009  13.046  0.0517  0.8566 -0.9089
12066TIP3   OH257612   0.103   5.512   3.585 -0.2705 -0.1452 -0.5234
12066TIP3    H157613   0.148   5.596   3.583  0.4801 -0.4500  2.2139
12066TIP3    H257614   0.172   5.447   3.572 -0.2823 -0.4933  1.0737
12067TIP3   OH257615   1.984   0.873  12.693  0.2024  0.2373 -0.1260
12067TIP3    H157616   1.908   0.903  12.643  0.2812  0.2289 -0.2507
12067TIP3    H257617   1.988   0.933  12.768  0.0347  0.1979 -0.0862
12068TIP3   OH257618   1.224   0.363  13.557 -0.0570 -0.2219 -0.2489
12068TIP3    H157619   1.168   0.351  13.480 -1.3394 -1.4872  0.8766
12068TIP3    H257620   1.313   0.361  13.522 -0.6692  1.6492 -2.0312
12069TIP3   OH257621   2.474   3.226  16.622 -0.1284  0.3979 -0.1649
12069TIP3    H157622   2.531   3.176  16.681  0.2262 -2.8652 -3.1353
12069TIP3    H257623   2.418   3.277  16.680  0.1397 -2.7492  3.0222
12070TIP3   OH257624   3.844   6.507  16.065  0.3783  0.0535  0.3770
12070TIP3    H157625   3.883   6.441  16.122  0.9858  0.1948  0.1304
12070TIP3    H257626   3.782   6.554  16.121  0.5021 -0.2255  0.7490
12071TIP3   OH257627   4.460   3.090  12.095 -0.2906  0.3706 -0.2993
12071TIP3    H157628   4.459   3.114  12.002  0.1228  0.2330 -0.3425
12071TIP3    H257629   4.489   3.170  12.139  2.0251 -0.2878 -0.5293
12072TIP3   OH257630   4.106   3.947  15.882 -0.0064  0.0551  0.2874
12072TIP3    H157631   4.181   3.979  15.831  2.4741 -1.1235  2.9837
12072TIP3    H257632   4.064   4.026  15.915  1.2032  0.7281  0.2488
12073TIP3   OH257633   4.090   4.368   1.948 -0.1916 -0.3652  0.1027
12073TIP3    H157634   4.111   4.397   2.036  2.2020 -0.8172 -0.2707
12073TIP3    H257635   4.012   4.418   1.924 -0.3993  0.3434  2.1637
12074TIP3   OH257636   5.780   6.570   1.906  0.2570  0.1845  0.5638
12074TIP3    H157637   5.688   6.579   1.882 -0.1848 -1.6672  1.5319
12074TIP3    H257638   5.827   6.619   1.838 -1.4867  2.2108  0.7462
12075TIP3   OH257639   3.508   5.724   4.937  0.0907 -0.0498 -0.3566
12075TIP3    H157640   3.443   5.663   4.902  1.7875 -0.6071 -2.6646
12075TIP3    H257641   3.480   5.810   4.906  1.1400 -0.4473 -2.4942
12076TIP3   OH257642   4.803   2.305  16.805 -0.5552  0.2506 -0.3805
12076TIP3    H157643   4.737   2.279  16.869  0.2038  0.4691  0.5171
12076TIP3    H257644   4.833   2.223  16.766  0.9447 -0.1477  1.5346
12077TIP3   OH257645   1.875   0.960   3.511 -0.4060  0.5567 -0.0844
12077TIP3    H157646   1.841   0.874   3.488  2.9333 -0.6466 -0.8542
12077TIP3    H257647   1.907   0.951   3.601 -1.0549  1.3316  0.2339
12078TIP3   OH257648   2.354   6.281  15.777 -0.0838 -0.0063  0.1109
12078TIP3    H157649   2.277   6.260  15.829  0.8171 -0.1179  1.4445
12078TIP3    H257650   2.426   6.235  15.822  1.0679  1.6671  0.0289
12079TIP3   OH257651   2.537   4.307  13.306 -0.2012  0.0196 -0.1156
12079TIP3    H157652   2.521   4.399  13.285 -0.9136 -0.7455 -3.2188
12079TIP3    H257653   2.584   4.273  13.229  0.4065 -2.1016  1.1628
12080TIP3   OH257654   5.208   0.069  12.796 -0.0883 -0.0514 -0.0800
12080TIP3    H157655   5.291   0.022  12.792  0.9595  1.8705 -1.5110
12080TIP3    H257656   5.204   0.103  12.885 -0.7041 -2.4736  0.8761
12081TIP3   OH257657   2.810   5.402  17.012  0.0859  0.2487 -0.4530
12081TIP3    H157658   2.785   5.470  17.074 -1.0634 -0.0355 -0.6009
12081TIP3    H257659   2.904   5.414  17.000 -0.2106  2.2453 -0.9790
12082TIP3   OH257660   2.464   6.168  15.161  0.2305  0.5871 -0.0667
12082TIP3    H157661   2.555   6.173  15.191  0.5859 -2.7898 -0.3849
12082TIP3    H257662   2.421   6.113  15.227 -1.4531  1.6982 -0.2311
12083TIP3   OH257663   1.896   4.020  12.114  0.3289  0.2702 -0.2088
12083TIP3    H157664   1.802   4.014  12.096  0.4290  0.4046 -0.7879
12083TIP3    H257665   1.914   4.114  12.118  0.4655  0.2464 -0.2486
12084TIP3   OH257666   0.371   6.529  11.315  0.1672  0.4206 -0.0177
12084TIP3    H157667   0.447   6.554  11.367  0.4600 -0.0435 -0.2209
12084TIP3    H257668   0.296   6.566  11.362  0.7380  3.8942 -1.6167
12085TIP3   OH257669   4.860   2.526  16.370  0.0412  0.3195  0.1456
12085TIP3    H157670   4.924   2.475  16.321 -0.9592 -2.5213  1.6198
12085TIP3    H257671   4.839   2.600  16.314  1.8036 -0.7363 -1.9751
12086TIP3   OH257672   2.612   4.023  12.455 -0.1241 -0.3620  0.0841
12086TIP3    H157673   2.549   4.084  12.416 -1.2759 -1.7548 -0.2846
12086TIP3    H257674   2.693   4.074  12.463 -0.8772  1.0143 -0.7966
12087TIP3   OH257675   1.231   3.453  11.869  0.4420 -0.6410 -0.4758
12087TIP3    H157676   1.306   3.512  11.880  0.0161 -0.2586  0.3929
12087TIP3    H257677   1.155   3.512  11.869  0.1139 -1.0642 -0.9952
12088TIP3   OH257678   0.352   1.321  13.826 -0.6650 -0.0579 -0.6855
12088TIP3    H157679   0.270   1.370  13.817  0.1110  1.5351  0.6237
12088TIP3    H257680   0.388   1.320  13.737 -0.5132  2.1213 -0.6875
12089TIP3   OH257681   4.846   3.222  14.523  0.7945  0.0420 -0.0375
12089TIP3    H157682   4.942   3.222  14.527  0.7790 -1.3896  0.7006
12089TIP3    H257683   4.819   3.295  14.578  1.4504  0.1558  0.1334
12090TIP3   OH257684   2.547   5.081   5.425 -0.4359 -0.2678  0.1548
12090TIP3    H157685   2.572   4.999   5.467 -0.2445  0.8312  2.2350
12090TIP3    H257686   2.629   5.130   5.419 -0.6359 -0.0175 -0.6672
12091TIP3   OH257687   5.583   0.209   5.166  0.6238 -0.4159 -0.1798
12091TIP3    H157688   5.493   0.240   5.151  0.3887  1.0179  3.5608
12091TIP3    H257689   5.572   0.125   5.211  1.0082  1.1852  3.0644
12092TIP3   OH257690   0.830   1.896  14.020 -0.0177  0.3845  0.5741
12092TIP3    H157691   0.805   1.983  13.990  0.7265  0.7404  0.9679
12092TIP3    H257692   0.918   1.907  14.057  0.1231 -0.5493  0.5447
12093TIP3   OH257693   6.517   3.395  15.548  0.4086  0.3360 -0.4555
12093TIP3    H157694   6.500   3.465  15.485 -1.1051  0.6274  0.2622
12093TIP3    H257695   6.592   3.426  15.599  0.1927  1.1233 -0.6121
12094TIP3   OH257696   3.239   6.449   3.584 -0.2771  0.1152 -0.4099
12094TIP3    H157697   3.284   6.370   3.614 -1.1292  0.0854  0.7998
12094TIP3    H257698   3.230   6.437   3.489 -2.7382 -2.4531  0.0895
12095TIP3   OH257699   2.498   4.190   3.501  0.4124 -0.1336  0.9799
12095TIP3    H157700   2.417   4.188   3.551  0.3856 -2.9911  0.8724
12095TIP3    H257701   2.529   4.100   3.499  2.4706  0.5339 -0.8349
12096TIP3   OH257702   3.660   1.193  16.138 -0.4476  0.2494 -0.0216
12096TIP3    H157703   3.612   1.235  16.209 -2.9688 -0.2591 -1.3645
12096TIP3    H257704   3.616   1.110  16.124 -0.2299  0.4730 -2.3769
12097TIP3   OH257705   5.242   2.066  13.500  0.2252 -0.0809  0.5358
12097TIP3    H157706   5.157   2.070  13.455  1.0916 -0.3742 -1.1668
12097TIP3    H257707   5.226   2.108  13.585 -1.4841  0.3523  0.0260
12098TIP3   OH257708   2.052   4.393  10.859  0.1571  0.2801  0.2949
12098TIP3    H157709   2.082   4.467  10.806  2.0931  0.9923  2.2993
12098TIP3    H257710   2.103   4.400  10.940 -0.0383 -2.9471  0.7351
12099TIP3   OH257711   6.039   3.041  15.363 -0.1289  0.3590 -0.6654
12099TIP3    H157712   6.056   3.122  15.412  1.9703 -1.5297  1.8795
12099TIP3    H257713   6.001   2.982  15.428  0.4583 -1.4390 -1.9377
12100TIP3   OH257714   0.021   1.669   2.754  0.0002  0.2321  0.1299
12100TIP3    H157715  -0.005   1.696   2.666 -1.0351 -1.2704 -0.0277
12100TIP3    H257716   0.069   1.745   2.788 -0.2847  1.1364 -1.4131
12101TIP3   OH257717   4.616   5.438   3.592  0.7145 -0.3859 -0.2063
12101TIP3    H157718   4.622   5.530   3.617 -2.4150 -0.9093  2.7299
12101TIP3    H257719   4.702   5.419   3.554  0.8667  4.1552 -2.5470
12102TIP3   OH257720   5.094   1.103   1.061  0.2268  0.5536  0.6653
12102TIP3    H157721   5.160   1.074   0.998  1.7878 -1.0005  2.9243
12102TIP3    H257722   5.100   1.040   1.133 -2.8045  1.1760  1.5536
12103TIP3   OH257723   4.409   5.634  12.883  0.0343 -0.0874 -0.1174
12103TIP3    H157724   4.371   5.721  12.894 -1.9352 -0.9715  0.4788
12103TIP3    H257725   4.404   5.618  12.789  2.1781  1.1793 -0.4744
12104TIP3   OH257726   1.775   6.279   2.439 -0.0414  0.3156 -0.0584
12104TIP3    H157727   1.845   6.326   2.484 -0.5750  0.0044  1.1148
12104TIP3    H257728   1.769   6.196   2.485  0.5172 -0.7022 -1.7687
12105TIP3   OH257729   3.549   3.610   0.688  0.1206 -0.3031 -0.3053
12105TIP3    H157730   3.523   3.605   0.780 -1.0221  0.3083 -0.5820
12105TIP3    H257731   3.466   3.616   0.640  0.7421  0.4791 -1.2943
12106TIP3   OH257732   1.015   4.810  11.602  0.3792  0.5691  0.2680
12106TIP3    H157733   1.001   4.735  11.543  3.8226 -0.0642  0.1344
12106TIP3    H257734   1.016   4.771  11.690  2.4777  0.3662  0.1764
12107TIP3   OH257735   1.159   5.521  14.508 -0.0122 -0.5079 -0.3555
12107TIP3    H157736   1.193   5.571  14.581  1.7320  0.8654 -2.0615
12107TIP3    H257737   1.172   5.429  14.533  1.9507 -0.0375  0.4446
12108TIP3   OH257738   3.896   3.170  13.206 -0.0802  0.1358 -0.0199
12108TIP3    H157739   3.890   3.264  13.224 -1.7693  0.5232 -2.3171
12108TIP3    H257740   3.834   3.130  13.267 -0.7095  0.7241 -0.2589
12109TIP3   OH257741   3.998   4.538   1.556 -0.0897  0.0822  0.4843
12109TIP3    H157742   4.094   4.538   1.565 -0.0666  4.8766  1.4338
12109TIP3    H257743   3.966   4.497   1.636  1.1483  0.4258  1.1675
12110TIP3   OH257744   0.224   5.779   0.196 -0.1601  0.1088  0.0735
12110TIP3    H157745   0.231   5.684   0.210  0.0081 -0.2284 -2.1829
12110TIP3    H257746   0.154   5.789   0.131 -0.4346  1.5587  0.5738
12111TIP3   OH257747   5.418   5.119   1.880 -0.1690  0.2748  0.3057
12111TIP3    H157748   5.502   5.109   1.924 -0.4767  1.7742  1.2844
12111TIP3    H257749   5.360   5.155   1.948 -1.0672  1.1310 -0.8967
12112TIP3   OH257750   0.085   2.607   3.811 -0.5331 -0.2147 -0.3621
12112TIP3    H157751   0.010   2.593   3.753 -0.9502  1.0000 -0.1225
12112TIP3    H257752   0.075   2.539   3.878 -1.2795 -0.2214 -0.4711
12113TIP3   OH257753   0.266   6.447  16.467 -0.1330  0.1911  0.3937
12113TIP3    H157754   0.361   6.454  16.470 -0.1960  1.1141  0.5689
12113TIP3    H257755   0.245   6.437  16.374  0.0011  2.5777  0.0634
12114TIP3   OH257756   4.511   6.474  13.914  0.6827 -0.5053  0.2539
12114TIP3    H157757   4.507   6.550  13.856 -0.8067 -1.3575 -0.7772
12114TIP3    H257758   4.586   6.424  13.883  0.6095 -0.3423 -0.1944
12115TIP3   OH257759   1.816   3.424  11.153 -0.6218 -0.4334 -0.1668
12115TIP3    H157760   1.721   3.423  11.168 -0.6786 -1.5384 -0.5575
12115TIP3    H257761   1.851   3.359  11.213 -0.0938  0.0543  0.0554
12116TIP3   OH257762   3.983   1.620   3.056 -0.1764  0.3711  0.3725
12116TIP3    H157763   3.978   1.631   3.150 -2.4224  0.6052  0.2585
12116TIP3    H257764   4.074   1.596   3.039 -0.0036 -0.7299  2.6983
12117TIP3   OH257765   4.842   5.350  13.681  1.0021  0.3639  0.2007
12117TIP3    H157766   4.918   5.350  13.740  0.7973 -0.6861  0.4816
12117TIP3    H257767   4.793   5.271  13.706 -0.1951  1.0510  0.0496
12118TIP3   OH257768   5.890   3.716   6.003 -0.1012  0.7521 -0.0639
12118TIP3    H157769   5.903   3.730   5.909  0.5611 -0.6532 -0.1908
12118TIP3    H257770   5.963   3.762   6.044  1.2035 -1.0073 -0.3937
12119TIP3   OH257771   2.135   1.412  16.157  0.2384 -0.1303  0.0548
12119TIP3    H157772   2.227   1.399  16.135  0.0122 -0.9729 -0.4020
12119TIP3    H257773   2.128   1.505  16.178  1.1497 -0.0226 -0.1146
12120TIP3   OH257774   4.982   5.805  13.362  1.1188 -0.0553 -0.2863
12120TIP3    H157775   5.041   5.766  13.298 -0.8415  1.2006 -2.9789
12120TIP3    H257776   4.920   5.735  13.384  1.0079 -0.1135 -0.7851
12121TIP3   OH257777   6.454   2.167  16.601  0.6850 -0.2748 -0.3853
12121TIP3    H157778   6.497   2.124  16.676 -1.1875 -0.3866  0.6514
12121TIP3    H257779   6.364   2.180  16.630  0.4899  1.6715 -1.8334
12122TIP3   OH257780   5.201   3.376  16.497 -0.6699 -0.1335  0.1146
12122TIP3    H157781   5.207   3.343  16.408  1.9485 -0.0381  0.2090
12122TIP3    H257782   5.125   3.434  16.497 -0.4426  0.1852 -2.1614
12123TIP3   OH257783   5.730   0.422   2.195 -0.0836  0.2434  0.1669
12123TIP3    H157784   5.672   0.439   2.269 -2.5726 -0.8527 -1.4616
12123TIP3    H257785   5.701   0.483   2.127  0.4752 -0.5180 -0.7625
12124TIP3   OH257786   2.048   2.536   2.474 -0.4169 -0.4519  0.2788
12124TIP3    H157787   2.092   2.580   2.401 -1.5537 -0.1137 -0.2009
12124TIP3    H257788   2.051   2.443   2.450 -0.1830 -0.4086  0.1312
12125TIP3   OH257789   5.628   2.396  12.293  0.1492  0.3425 -0.0885
12125TIP3    H157790   5.682   2.325  12.257 -0.3598 -0.4338  0.6591
12125TIP3    H257791   5.661   2.407  12.383 -1.9274 -1.1834  0.9013
12126TIP3   OH257792   4.609   6.103   4.669  0.6162  0.2685 -0.2897
12126TIP3    H157793   4.668   6.039   4.709 -0.3523 -0.7536 -0.4774
12126TIP3    H257794   4.622   6.183   4.720  2.5938  0.2344 -0.6841
12127TIP3   OH257795   2.346   0.457  17.007 -0.4403 -0.0320 -0.2168
12127TIP3    H157796   2.274   0.502  16.963  0.0105  2.2840  1.3139
12127TIP3    H257797   2.409   0.438  16.938 -1.0188  0.9640 -1.0223
12128TIP3   OH257798   6.261   1.221  14.464 -0.0507 -0.0570  0.7191
12128TIP3    H157799   6.247   1.135  14.504 -1.9156  0.4195  1.1635
12128TIP3    H257800   6.180   1.239  14.417  1.3490  0.2851 -1.6630
12129TIP3   OH257801   6.043   5.177   2.657 -0.7340  0.1950 -0.2970
12129TIP3    H157802   5.987   5.139   2.589 -0.1445  0.0497 -0.7008
12129TIP3    H257803   5.992   5.250   2.692 -0.8799  0.5055 -1.1512
12130TIP3   OH257804   1.031   0.461   2.450  0.1110 -0.0970 -0.2373
12130TIP3    H157805   1.024   0.541   2.398  3.2213  0.1790 -0.3408
12130TIP3    H257806   0.962   0.468   2.515  1.3926  3.5419  0.8558
12131TIP3   OH257807   1.786   2.740   1.515 -0.2532 -0.1474 -0.1115
12131TIP3    H157808   1.734   2.798   1.460  0.0900  0.3249  0.0576
12131TIP3    H257809   1.842   2.799   1.566  2.4846 -0.6916 -2.3160
12132TIP3   OH257810   6.572   0.620   6.053  0.3238 -0.9158 -0.4201
12132TIP3    H157811   6.511   0.680   6.009  1.0309  0.0991 -0.0525
12132TIP3    H257812   6.549   0.626   6.145  1.1714 -0.2932 -0.2443
12133TIP3   OH257813   0.691   3.879   5.988 -0.0433  0.3956 -0.3594
12133TIP3    H157814   0.708   3.792   5.952  0.3906  1.0529 -1.8185
12133TIP3    H257815   0.713   3.871   6.081  1.9314 -0.5468 -0.8634
12134TIP3   OH257816   3.727   6.707   0.817  0.0895  0.2533  0.0986
12134TIP3    H157817   3.742   6.623   0.774  1.8057 -0.0613  1.2575
12134TIP3    H257818   3.656   6.690   0.880  0.0440 -0.1846 -0.0753
12135TIP3   OH257819   2.678   5.410   5.581  0.5380 -0.3163  0.0030
12135TIP3    H157820   2.720   5.343   5.635  2.2378  2.1783  1.9025
12135TIP3    H257821   2.751   5.459   5.542 -0.6531  0.5684 -1.1762
12136TIP3   OH257822   1.628   0.782  13.803 -0.1273  0.2150  0.3339
12136TIP3    H157823   1.610   0.847  13.735  1.2637  0.3700  0.1054
12136TIP3    H257824   1.678   0.829  13.869 -1.0018 -0.0801  1.2291
12137TIP3   OH257825   4.835   6.108  16.247  0.3653 -0.6214 -0.1251
12137TIP3    H157826   4.868   6.019  16.234  1.3605 -0.2578 -0.1117
12137TIP3    H257827   4.912   6.158  16.274  0.1511  0.6247 -1.7915
12138TIP3   OH257828   4.073   3.460   0.096 -0.0018  0.7496 -0.2888
12138TIP3    H157829   3.990   3.456   0.144  2.2521  0.1837  3.7172
12138TIP3    H257830   4.066   3.389   0.031 -2.3630  0.3081  0.3898
12139TIP3   OH257831   1.337   4.304  13.417 -0.7024  0.1670 -0.3478
12139TIP3    H157832   1.336   4.348  13.333 -0.0155  3.1835  1.1715
12139TIP3    H257833   1.250   4.320  13.453 -0.6287 -0.1848 -0.0117
12140TIP3   OH257834   6.759   3.174   4.442  0.1576  0.6220  0.0999
12140TIP3    H157835   6.690   3.237   4.461  0.7062  1.4840 -0.7259
12140TIP3    H257836   6.823   3.223   4.391  0.7997 -0.4964 -0.1875
12141TIP3   OH257837   5.625   4.024  12.226  0.0102  0.0523 -0.9090
12141TIP3    H157838   5.583   4.005  12.310  0.6049 -0.1467 -0.6525
12141TIP3    H257839   5.593   3.955  12.167 -0.8607  0.5325 -1.0036
12142TIP3   OH257840   4.796   3.719  13.772  0.2733  0.5575 -0.2255
12142TIP3    H157841   4.749   3.780  13.829  1.4377 -0.2932  1.7224
12142TIP3    H257842   4.738   3.705  13.698 -1.4703  1.3877  0.9566
12143TIP3   OH257843   5.899   6.034  16.606 -0.2877  0.6445 -0.3917
12143TIP3    H157844   5.953   6.073  16.675  1.2319 -1.1532 -0.5083
12143TIP3    H257845   5.950   6.049  16.526  0.0358 -1.0688 -0.5066
12144TIP3   OH257846   5.659   3.442  13.057 -0.1367 -0.4437 -0.2341
12144TIP3    H157847   5.658   3.518  13.114 -0.3356 -0.0993 -0.6921
12144TIP3    H257848   5.638   3.368  13.115 -0.2440 -0.1118  0.1516
12145TIP3   OH257849   3.760   4.739  16.098  0.0783 -0.1754  0.8450
12145TIP3    H157850   3.758   4.646  16.075  0.2237 -0.6876  2.8755
12145TIP3    H257851   3.747   4.784  16.014  1.1274 -1.9936 -0.3267
12146TIP3   OH257852   5.065   1.816   3.314  0.1488 -0.6410 -0.1562
12146TIP3    H157853   5.029   1.827   3.226 -0.7101 -0.8389  0.1599
12146TIP3    H257854   5.007   1.868   3.370  0.1839 -1.1913  0.3967
12147TIP3   OH257855   1.394   2.556   0.469  0.8601  0.4753  0.3133
12147TIP3    H157856   1.465   2.597   0.420 -0.0760 -1.7993 -3.1301
12147TIP3    H257857   1.437   2.514   0.543  2.7653  1.2809 -0.2974
12148TIP3   OH257858   1.958   3.739  16.022  0.4050  0.3037  0.0509
12148TIP3    H157859   1.970   3.800  15.949 -1.8311  0.3114 -0.3285
12148TIP3    H257860   1.949   3.795  16.099  2.3592  0.3046  0.3215
12149TIP3   OH257861   4.921   4.666   0.981 -0.3699 -0.3864 -0.2225
12149TIP3    H157862   4.939   4.599   0.915 -0.3630 -0.2954 -0.3145
12149TIP3    H257863   4.922   4.619   1.064  0.4819 -0.3501 -0.2052
12150TIP3   OH257864   6.456   5.913  11.082 -0.3221 -0.1634  0.2735
12150TIP3    H157865   6.404   5.867  11.016 -0.1282  0.9752 -0.6868
12150TIP3    H257866   6.467   5.849  11.152 -0.1479 -1.5564 -0.9848
12151TIP3   OH257867   1.845   3.379   3.374 -0.3702 -0.3243  0.2327
12151TIP3    H157868   1.863   3.328   3.295  0.1766 -1.9333  1.3628
12151TIP3    H257869   1.904   3.455   3.369 -0.7022 -0.1538 -1.1366
12152TIP3   OH257870   6.588   3.115   0.546  0.3961  0.0158  0.2137
12152TIP3    H157871   6.573   3.138   0.454  0.1263  0.8454  0.4646
12152TIP3    H257872   6.678   3.142   0.563  0.7319 -0.9360 -0.0524
12153TIP3   OH257873   1.415   5.910  13.649 -0.2383  0.1008 -0.1646
12153TIP3    H157874   1.462   5.961  13.583 -1.1795  0.4040 -0.6160
12153TIP3    H257875   1.327   5.948  13.649  0.3791  1.6471  2.9025
12154TIP3   OH257876   3.762   5.295   5.712 -0.0896  0.0133 -0.8293
12154TIP3    H157877   3.841   5.261   5.670 -0.7460  0.7129 -2.6782
12154TIP3    H257878   3.695   5.290   5.644 -1.0524  1.6625 -0.0161
12155TIP3   OH257879   6.184   6.488  11.286  0.1146  0.1331  0.0792
12155TIP3    H157880   6.229   6.408  11.258 -0.3345 -0.3400  0.7054
12155TIP3    H257881   6.168   6.475  11.379  1.1868  1.5055  0.4846
12156TIP3   OH257882   3.117   3.306   4.452  0.1935 -0.7967  0.3020
12156TIP3    H157883   3.079   3.388   4.485  2.1542  0.0127  0.6167
12156TIP3    H257884   3.194   3.333   4.403  0.0905 -2.3743 -0.7537
12157TIP3   OH257885   4.307   5.198   3.687 -0.2794 -0.0610 -0.5088
12157TIP3    H157886   4.343   5.140   3.755 -3.4803 -1.4477  0.0947
12157TIP3    H257887   4.259   5.265   3.736  0.3313  0.9865 -1.3284
12158TIP3   OH257888   3.260   4.191  14.232  0.4255 -0.2269 -0.0908
12158TIP3    H157889   3.241   4.279  14.266  1.6186 -0.0257  0.0803
12158TIP3    H257890   3.331   4.159  14.287  1.2935 -0.5377 -1.3693
12159TIP3   OH257891   3.286   6.300   1.334  0.6810 -0.0391  0.2707
12159TIP3    H157892   3.365   6.342   1.299  1.4975 -0.5829  1.4515
12159TIP3    H257893   3.275   6.338   1.421 -0.7733  0.5539 -0.1529
12160TIP3   OH257894   2.986   5.081   4.615  0.2865 -0.3576  0.2691
12160TIP3    H157895   3.042   5.129   4.555 -0.4391 -1.7461 -1.5568
12160TIP3    H257896   2.905   5.066   4.566 -1.1437  0.3643  2.3540
12161TIP3   OH257897   5.416   5.787  13.153 -0.0404  0.3735 -0.3434
12161TIP3    H157898   5.410   5.780  13.249 -0.4435  1.8767 -0.2398
12161TIP3    H257899   5.447   5.877  13.138  1.5741 -0.3584 -1.5845
12162TIP3   OH257900   2.972   6.528   3.953 -0.0630 -0.2498  0.2440
12162TIP3    H157901   2.958   6.436   3.931 -2.1584  0.1663 -0.2713
12162TIP3    H257902   2.964   6.573   3.869 -0.2433  0.5321  0.6816
12163TIP3   OH257903   1.820   2.488  15.800 -0.0583  0.1174  0.3993
12163TIP3    H157904   1.797   2.396  15.810 -0.6859  0.2378  0.0668
12163TIP3    H257905   1.883   2.504  15.871 -1.1890 -0.1477  1.4884
12164TIP3   OH257906   4.136   2.866   5.721 -0.3678  0.5286  0.3569
12164TIP3    H157907   4.052   2.873   5.767  0.6646 -0.3764  2.3987
12164TIP3    H257908   4.174   2.954   5.727  0.4877  0.0231  2.6587
12165TIP3   OH257909   4.408   0.711  10.580 -0.9534  0.1173 -0.4212
12165TIP3    H157910   4.388   0.792  10.534 -0.2164  0.3622 -0.3213
12165TIP3    H257911   4.503   0.712  10.590 -0.9766 -0.5763 -0.0815
12166TIP3   OH257912   0.631   6.756   4.259 -0.7766 -0.2509  0.2169
12166TIP3    H157913   0.544   6.746   4.298 -1.3609  1.3118 -0.6091
12166TIP3    H257914   0.657   6.846   4.281 -0.9315  0.5350 -2.4987
12167TIP3   OH257915   0.815   2.290  15.723 -0.4434 -0.2103 -0.1985
12167TIP3    H157916   0.842   2.326  15.638  0.0529  2.2245  0.9489
12167TIP3    H257917   0.721   2.275  15.715 -0.4161  0.1225 -1.1318
12168TIP3   OH257918   2.479   4.584  15.517  0.4870  0.2444 -0.9115
12168TIP3    H157919   2.456   4.517  15.453  0.0455  0.6818 -1.2248
12168TIP3    H257920   2.405   4.586  15.577  1.0599 -0.4016 -0.1899
12169TIP3   OH257921   3.012   1.272  14.692  0.3941 -0.0366 -0.8151
12169TIP3    H157922   3.001   1.206  14.760  0.3488  0.0002 -0.7861
12169TIP3    H257923   3.057   1.344  14.736  0.8172 -0.2182 -0.9535
12170TIP3   OH257924   5.576   1.587  14.086 -0.1304 -0.2687  0.4822
12170TIP3    H157925   5.536   1.637  14.158 -2.1605 -0.5456 -0.4321
12170TIP3    H257926   5.502   1.548  14.039  1.2438 -1.2090 -0.9592
12171TIP3   OH257927   6.280   3.278   0.956 -0.0123 -0.3925 -0.1375
12171TIP3    H157928   6.193   3.249   0.984  0.3430 -1.0524  0.2976
12171TIP3    H257929   6.290   3.240   0.868 -0.0989 -0.4530 -0.1213
12172TIP3   OH257930   1.254   4.556   0.013  0.1996  0.2815  0.0855
12172TIP3    H157931   1.176   4.514   0.047  0.8327 -1.3243 -0.3816
12172TIP3    H257932   1.327   4.512   0.057  0.8309  3.2557  2.1925
12173TIP3   OH257933   0.996   6.629  13.017 -0.5549  0.1405  0.1279
12173TIP3    H157934   1.005   6.674  12.933  0.9996  0.7893  0.6370
12173TIP3    H257935   1.081   6.639  13.059 -0.5029 -2.3522  0.7110
12174TIP3   OH257936   0.798   1.288  13.947 -0.1536  0.1712  0.7037
12174TIP3    H157937   0.839   1.322  14.027 -0.3314 -0.3611  1.0207
12174TIP3    H257938   0.749   1.363  13.912  1.1048  0.8112  0.3052
12175TIP3   OH257939   4.707   5.593   4.788 -0.6653 -0.0144 -0.0042
12175TIP3    H157940   4.636   5.532   4.768  2.1240 -2.3450 -3.4150
12175TIP3    H257941   4.776   5.539   4.827  0.8098  1.4182 -0.5623
12176TIP3   OH257942   2.133   2.187   3.524 -0.1827  0.5456 -0.4929
12176TIP3    H157943   2.135   2.092   3.516  0.4056  0.6334 -1.5282
12176TIP3    H257944   2.144   2.204   3.617 -1.7037 -0.4325 -0.1230
12177TIP3   OH257945   4.598   6.764  14.887 -0.2496  0.0035 -0.2769
12177TIP3    H157946   4.644   6.795  14.965 -1.4297  0.0943  0.3964
12177TIP3    H257947   4.639   6.810  14.814  1.0180 -0.2570  0.2731
12178TIP3   OH257948   4.337   5.374  14.377 -0.4902 -0.4442  0.0559
12178TIP3    H157949   4.320   5.408  14.289  0.3536 -0.0606  0.0409
12178TIP3    H257950   4.265   5.408  14.430  0.5350  1.6801  0.1158
12179TIP3   OH257951   0.683   2.936  16.290 -0.2010  0.1987 -0.4029
12179TIP3    H157952   0.626   2.963  16.362 -1.3253 -0.0165 -1.1797
12179TIP3    H257953   0.745   3.008  16.280 -0.8604  0.8287 -0.0588
12180TIP3   OH257954   3.007   3.483   0.412  0.2500 -0.1294  0.7050
12180TIP3    H157955   2.924   3.496   0.458  1.0444  0.0996  2.1027
12180TIP3    H257956   2.984   3.489   0.319 -1.4474 -1.0011  1.0528
12181TIP3   OH257957   2.317   0.493   0.066 -0.0724 -0.2395  0.4959
12181TIP3    H157958   2.336   0.476  -0.027 -2.3763 -2.6481  0.3974
12181TIP3    H257959   2.297   0.406   0.102 -0.7685  0.8807  2.8939
12182TIP3   OH257960   1.897   6.698  16.604 -0.0290  0.4319  0.1328
12182TIP3    H157961   1.802   6.694  16.594  0.0502 -2.3686  0.3012
12182TIP3    H257962   1.929   6.618  16.562  2.3090  1.5866 -0.3652
12183TIP3   OH257963   0.612   3.263  12.588  0.1106  0.2209  0.5727
12183TIP3    H157964   0.590   3.219  12.506  0.4614  1.0775  0.0055
12183TIP3    H257965   0.699   3.231  12.610  0.6718  1.1552 -0.2234
12184TIP3   OH257966   4.827   3.177   1.622 -0.1443 -0.2622  0.3985
12184TIP3    H157967   4.792   3.256   1.579  0.0068 -0.2346  0.3230
12184TIP3    H257968   4.757   3.112   1.613 -0.1753 -0.2085  0.2485
12185TIP3   OH257969   1.044   3.057  13.336 -0.4804  0.4797  0.7086
12185TIP3    H157970   0.973   3.046  13.400  0.1661 -2.0689  1.0386
12185TIP3    H257971   1.041   2.978  13.283  1.2350  0.9937 -0.1975
12186TIP3   OH257972   5.546   5.538  11.763 -0.3753 -0.3110  0.1041
12186TIP3    H157973   5.510   5.481  11.695  0.4608 -2.4060  1.3619
12186TIP3    H257974   5.641   5.535  11.749 -0.1659 -1.0808  1.5648
12187TIP3   OH257975   3.002   2.583   3.291 -0.5805  0.2236  0.0039
12187TIP3    H157976   3.012   2.567   3.385  1.2267  0.3013 -0.1607
12187TIP3    H257977   2.963   2.502   3.258 -1.3980  0.2664  0.8465
12188TIP3   OH257978   4.659   3.863   5.367 -0.1094  0.4982 -0.0719
12188TIP3    H157979   4.639   3.790   5.425 -0.7571  1.1315  0.5129
12188TIP3    H257980   4.732   3.832   5.313 -2.4437 -1.7596 -2.0479
12189TIP3   OH257981   3.979   6.065   4.558 -0.4687  0.6269 -0.3868
12189TIP3    H157982   3.898   6.107   4.529  0.0761 -0.0212 -2.9454
12189TIP3    H257983   4.001   6.004   4.488  1.6914  0.0516  0.7601
12190TIP3   OH257984   4.378   0.246   6.556 -0.3021 -0.4995 -0.2697
12190TIP3    H157985   4.307   0.213   6.610  0.2383  0.3749  1.0046
12190TIP3    H257986   4.350   0.334   6.530  0.1247 -0.2997 -0.0712
12191TIP3   OH257987   5.598   1.551   3.238  0.2040 -0.6361 -0.2026
12191TIP3    H157988   5.507   1.567   3.263  0.1955 -0.7394 -0.1667
12191TIP3    H257989   5.634   1.638   3.221  0.5073 -0.4695  1.2024
12192TIP3   OH257990   3.993   5.659  11.220 -0.3824 -0.6837 -0.0645
12192TIP3    H157991   4.003   5.748  11.253  2.0302 -0.4596 -1.2306
12192TIP3    H257992   3.981   5.605  11.298 -2.1978  0.6700  0.6323
12193TIP3   OH257993   2.075   5.534   0.133 -0.8862  0.3495  0.1880
12193TIP3    H157994   2.031   5.525   0.218  2.7286  0.4617  2.1789
12193TIP3    H257995   2.082   5.629   0.120 -0.2581  0.3500  0.4694
12194TIP3   OH257996   4.722   5.784  15.298  0.0800  0.3333  0.1481
12194TIP3    H157997   4.791   5.767  15.235 -1.0014 -1.5708 -0.5960
12194TIP3    H257998   4.666   5.849  15.256 -0.0927 -0.1869 -0.4317
12195TIP3   OH257999   6.006   4.109  11.068  0.3721  0.4052 -0.1827
12195TIP3    H158000   6.008   4.205  11.069 -0.6168  0.4413 -1.0927
12195TIP3    H258001   5.914   4.086  11.079  0.2385 -0.3730 -2.5886
12196TIP3   OH258002   2.410   2.210   0.723 -0.4633 -0.1061  0.3279
12196TIP3    H158003   2.371   2.126   0.749  1.0097 -0.7448  0.5415
12196TIP3    H258004   2.444   2.246   0.805 -0.6740  0.4881  0.1571
12197TIP3   OH258005   1.671   4.903  15.742 -0.6716 -0.4385  0.4241
12197TIP3    H158006   1.637   4.882  15.655  0.7925 -0.8834 -0.0508
12197TIP3    H258007   1.631   4.988  15.763 -1.6214 -0.6869 -0.3562
12198TIP3   OH258008   3.044   1.187  13.975 -0.7730  0.3090  0.0062
12198TIP3    H158009   3.114   1.233  13.930 -0.7314  2.0757  1.8118
12198TIP3    H258010   2.967   1.199  13.918 -0.4358  1.4039 -0.2307
12199TIP3   OH258011   2.324   3.972  12.866 -0.1724  0.2414  0.0564
12199TIP3    H158012   2.297   4.053  12.909 -1.1220 -0.1660  0.2451
12199TIP3    H258013   2.280   3.903  12.915  0.1702 -0.3499 -0.4593
12200TIP3   OH258014   6.702   3.125   3.466 -0.1763 -0.0929  0.1404
12200TIP3    H158015   6.660   3.203   3.503 -1.1154 -0.3472 -0.3703
12200TIP3    H258016   6.710   3.065   3.539  1.2466  0.7702  0.7091
12201TIP3   OH258017   6.570   0.208  12.191  0.3093 -0.2151  0.3457
12201TIP3    H158018   6.547   0.247  12.276  1.0280  0.4734  0.2317
12201TIP3    H258019   6.497   0.151  12.170 -0.9045  1.3149  0.3673
12202TIP3   OH258020   2.336   1.235  13.638 -0.4183  0.0455 -0.3431
12202TIP3    H158021   2.310   1.150  13.674  0.0130  0.2262  0.4045
12202TIP3    H258022   2.411   1.215  13.582 -0.8520 -0.1824 -0.8486
12203TIP3   OH258023   5.187   6.057   2.578 -0.0882 -0.3526 -0.3953
12203TIP3    H158024   5.205   6.003   2.655 -0.2841  0.5626  0.2914
12203TIP3    H258025   5.093   6.075   2.582 -0.1625 -0.5806 -1.0336
12204TIP3   OH258026   3.173   0.858   2.519  0.2906 -0.1526  0.0797
12204TIP3    H158027   3.234   0.869   2.445  1.4702 -2.1639  0.7014
12204TIP3    H258028   3.200   0.924   2.582  1.3526 -0.5208  0.0272
12205TIP3   OH258029   0.594   6.411  10.942  0.4096 -0.2972  0.3402
12205TIP3    H158030   0.552   6.485  10.987 -0.7379 -0.1430 -0.9632
12205TIP3    H258031   0.544   6.401  10.861  1.9904 -1.0418 -0.5588
12206TIP3   OH258032   5.447   4.711  11.022  0.2553 -0.7738  0.5054
12206TIP3    H158033   5.410   4.782  10.970  1.5605 -0.2665  0.2497
12206TIP3    H258034   5.371   4.660  11.051 -0.4015 -2.8682 -4.3587
12207TIP3   OH258035   1.577   4.205  15.722 -0.1743 -0.0148  0.8015
12207TIP3    H158036   1.639   4.213  15.795  1.0374 -2.3277  0.0622
12207TIP3    H258037   1.498   4.167  15.762  0.2275 -0.5905  1.0511
12208TIP3   OH258038   4.786   3.575   0.855 -0.0045  0.3047  0.2982
12208TIP3    H158039   4.748   3.566   0.767 -0.2025 -1.0408  0.5251
12208TIP3    H258040   4.766   3.493   0.899  1.5970  0.3004  1.0374
12209TIP3   OH258041   2.458   0.445   1.147  0.4077  0.4723  0.7259
12209TIP3    H158042   2.456   0.377   1.215  1.2310  0.1251  0.4047
12209TIP3    H258043   2.544   0.436   1.106  0.6286  1.8727  0.8467
12210TIP3   OH258044   3.393   3.305  12.253 -0.9668  0.2904 -0.4593
12210TIP3    H158045   3.317   3.361  12.272 -0.1555  1.3562 -0.3218
12210TIP3    H258046   3.403   3.310  12.158 -0.2024  1.2838 -0.3243
12211TIP3   OH258047   4.378   4.600   1.493 -0.1839 -0.0873  1.1166
12211TIP3    H158048   4.454   4.654   1.474  0.4348 -1.6247 -1.0186
12211TIP3    H258049   4.369   4.602   1.588  1.4910  1.4754  1.2526
12212TIP3   OH258050   1.080   3.141   5.834 -0.1590  0.3169  0.1773
12212TIP3    H158051   1.081   3.092   5.917  1.8993 -0.0954 -0.0744
12212TIP3    H258052   1.131   3.088   5.774 -3.2795 -0.3644 -1.9988
12213TIP3   OH258053   5.454   3.498   1.001 -0.3795  0.3236  0.4387
12213TIP3    H158054   5.445   3.454   1.085  1.8173  0.2409  0.6615
12213TIP3    H258055   5.376   3.472   0.952  0.2766 -2.9134  0.9973
12214TIP3   OH258056   6.101   4.353  13.182  0.3882 -0.2861 -0.0413
12214TIP3    H158057   6.023   4.394  13.221 -0.3437 -0.4174 -1.3380
12214TIP3    H258058   6.068   4.272  13.143  0.8910  0.3964 -1.9253
12215TIP3   OH258059   0.860   0.558   3.147 -0.0889 -0.3249  0.3308
12215TIP3    H158060   0.917   0.484   3.167 -2.0598 -1.7466  0.7904
12215TIP3    H258061   0.835   0.592   3.232 -0.2713  0.0379  0.1316
12216TIP3   OH258062   3.593   0.753  16.956  0.1727 -0.3045 -0.0003
12216TIP3    H158063   3.603   0.848  16.955  0.1710 -0.3068 -0.4206
12216TIP3    H258064   3.559   0.733  17.044  0.2989  0.0662  0.1325
12217TIP3   OH258065   3.908   3.774   4.800  0.1067  0.0597 -0.7104
12217TIP3    H158066   3.950   3.808   4.880 -0.0803  0.9577 -0.9817
12217TIP3    H258067   3.898   3.852   4.745 -0.8844 -0.3525 -1.1070
12218TIP3   OH258068   5.205   4.342   0.117 -0.2312  0.0851  0.1440
12218TIP3    H158069   5.251   4.395   0.052  1.2141 -0.5100  0.6462
12218TIP3    H258070   5.275   4.306   0.171 -1.4209  0.5046  1.9745
12219TIP3   OH258071   1.537   6.262  11.296  0.5466  0.1078 -0.6727
12219TIP3    H158072   1.491   6.178  11.300  1.2393 -0.2461  0.1715
12219TIP3    H258073   1.511   6.307  11.376  1.0114  0.2455 -0.5982
12220TIP3   OH258074   3.989   1.868  14.262  0.0136  0.3306 -0.0060
12220TIP3    H158075   4.062   1.808  14.279 -0.4526  0.1901  1.5550
12220TIP3    H258076   3.936   1.823  14.196  0.0425 -0.6568  0.6385
12221TIP3   OH258077   2.696   6.154  16.180 -0.1971 -0.5033 -0.2874
12221TIP3    H158078   2.687   6.066  16.217 -2.0085 -0.1256  0.2042
12221TIP3    H258079   2.643   6.152  16.101  0.2465 -0.0274 -0.5981
12222TIP3   OH258080   0.840   5.804   6.116  0.2694  0.2767  0.1430
12222TIP3    H158081   0.909   5.859   6.153 -0.4320 -0.2084  2.2107
12222TIP3    H258082   0.867   5.714   6.138  0.7677 -0.1572 -2.1196
12223TIP3   OH258083   6.664   3.964  14.887  0.2703  0.6164  0.1361
12223TIP3    H158084   6.585   3.975  14.833 -0.2034  2.9286  1.2251
12223TIP3    H258085   6.647   4.018  14.964  1.2793 -2.0164  2.2646
12224TIP3   OH258086   1.328   4.357   4.897 -0.5225 -0.5855 -0.1609
12224TIP3    H158087   1.338   4.356   4.992 -1.9612  0.5410  0.0089
12224TIP3    H258088   1.418   4.357   4.863 -0.0014 -0.1924  1.2096
12225TIP3   OH258089   1.237   5.964  16.445  0.7241 -0.0366  0.8995
12225TIP3    H158090   1.142   5.975  16.451  0.8182  0.9981  0.4952
12225TIP3    H258091   1.273   6.018  16.516  1.0262 -0.2142  0.8865
12226TIP3   OH258092   5.904   6.226  10.778  0.3975 -0.3706  0.2276
12226TIP3    H158093   5.852   6.223  10.858 -0.3766  0.8247 -0.2134
12226TIP3    H258094   5.930   6.318  10.770  1.0329 -0.6072 -0.5418
12227TIP3   OH258095   6.590   1.960  15.553  0.6342 -0.5027 -0.4170
12227TIP3    H158096   6.647   1.996  15.620 -1.0041 -0.6282  1.1018
12227TIP3    H258097   6.592   2.024  15.482 -2.1087  2.6098  2.1409
12228TIP3   OH258098   4.498   4.854  13.383  0.3633  0.3958 -0.0850
12228TIP3    H158099   4.574   4.858  13.325  0.8570 -1.1711  0.4059
12228TIP3    H258100   4.534   4.873  13.470 -0.4817  3.3723 -0.3530
12229TIP3   OH258101   0.065   3.015  11.432 -0.2710 -0.4853 -0.0387
12229TIP3    H158102  -0.029   3.023  11.422 -0.5845 -1.4311  1.9735
12229TIP3    H258103   0.097   2.990  11.345 -1.8162  0.1865 -0.8126
12230TIP3   OH258104   0.265   4.446   6.753  0.1671 -0.2391 -0.3223
12230TIP3    H158105   0.228   4.480   6.671  2.1759  0.7702 -0.8293
12230TIP3    H258106   0.338   4.391   6.725 -0.9316 -2.2287  0.6746
12231TIP3   OH258107   3.562   4.125   4.156 -0.1475 -0.2776  0.3818
12231TIP3    H158108   3.624   4.087   4.218 -0.9357 -0.1146  1.2841
12231TIP3    H258109   3.476   4.094   4.186 -0.7545  1.6555  0.7459
12232TIP3   OH258110   2.270   1.153   2.805 -0.3685 -0.3567  0.2512
12232TIP3    H158111   2.323   1.166   2.726  0.9695  1.5025  1.3964
12232TIP3    H258112   2.334   1.149   2.876 -1.6216 -0.9750  1.3619
12233TIP3   OH258113   0.732   3.846  17.225  0.1863  0.1219  0.2328
12233TIP3    H158114   0.812   3.856  17.276  1.1578 -0.8157 -1.0563
12233TIP3    H258115   0.663   3.835  17.290  0.8172  2.7416  1.4146
12234TIP3   OH258116   5.102   1.003   3.884 -0.0443  0.0392 -0.1262
12234TIP3    H158117   5.120   0.955   3.965 -1.8311  1.6348  1.2585
12234TIP3    H258118   5.106   0.936   3.816  0.8652 -1.4551  1.3359
12235TIP3   OH258119   4.782   0.102   3.643 -0.2160  0.1036 -0.5766
12235TIP3    H158120   4.772   0.196   3.635 -0.0958  0.2154  0.5537
12235TIP3    H258121   4.877   0.089   3.652 -0.3751  0.0210  1.0624
12236TIP3   OH258122   2.248   2.333   4.070  0.5530 -0.0152 -0.1332
12236TIP3    H158123   2.265   2.358   3.979 -0.8524  1.5372  0.0062
12236TIP3    H258124   2.156   2.355   4.084  1.1285  1.1540  2.0919
12237TIP3   OH258125   4.296   4.824   0.332 -0.2295 -0.1906 -0.3955
12237TIP3    H158126   4.321   4.755   0.271 -1.8078 -1.1520  0.0164
12237TIP3    H258127   4.346   4.805   0.411  1.5648  0.8636 -1.2538
12238TIP3   OH258128   5.691   2.657   1.599  0.3117 -0.8727 -0.1248
12238TIP3    H158129   5.700   2.729   1.662  0.8309 -1.8970  1.0010
12238TIP3    H258130   5.769   2.603   1.614 -1.0855 -2.7876  0.5128
12239TIP3   OH258131   6.537   2.978  15.295 -0.7061  1.0805  0.0041
12239TIP3    H158132   6.474   2.938  15.355  0.4229 -0.1769  0.3736
12239TIP3    H258133   6.531   2.926  15.215 -0.5013  1.2692 -0.1372
12240TIP3   OH258134   3.637   3.439   3.261  0.8868  0.1819  0.9030
12240TIP3    H158135   3.637   3.348   3.293  0.1630 -0.3851 -0.6494
12240TIP3    H258136   3.546   3.467   3.267  1.1367  0.8698  1.5337
12241TIP3   OH258137   3.973   5.882   2.775  0.4474 -0.4573  0.2794
12241TIP3    H158138   4.048   5.840   2.818  1.2769  1.1354  0.4174
12241TIP3    H258139   3.917   5.910   2.847  1.1387  0.9258  0.3001
12242TIP3   OH258140   2.444   2.263  16.840  0.3375 -0.7650  0.5316
12242TIP3    H158141   2.358   2.294  16.813 -0.5409 -1.9963  1.8775
12242TIP3    H258142   2.502   2.286  16.767 -1.7930 -3.1425 -2.0235
12243TIP3   OH258143   2.898   1.119  16.689 -0.0827  0.8223  0.0033
12243TIP3    H158144   2.818   1.073  16.662 -0.5289  0.7963  1.3384
12243TIP3    H258145   2.905   1.100  16.783  2.3241 -0.4321 -0.4035
12244TIP3   OH258146   3.561   4.713  16.591 -0.3097 -0.4540  0.4351
12244TIP3    H158147   3.478   4.760  16.595 -1.6393 -2.6546 -0.3426
12244TIP3    H258148   3.590   4.724  16.500 -0.3119 -0.5805  0.4178
12245TIP3   OH258149   6.352   6.296   4.124 -0.3249  0.8472 -0.4582
12245TIP3    H158150   6.400   6.236   4.068 -0.1881  0.6868 -0.1714
12245TIP3    H258151   6.399   6.380   4.117  0.0236  0.6800 -0.1424
12246TIP3   OH258152   5.128   2.584  11.470  0.1307 -0.2742 -0.5456
12246TIP3    H158153   5.136   2.489  11.474 -0.6223 -0.3504 -0.7138
12246TIP3    H258154   5.209   2.617  11.507 -0.3640 -0.9712  1.1954
12247TIP3   OH258155   5.473   3.691   5.290  0.8024 -0.3841 -0.3774
12247TIP3    H158156   5.413   3.720   5.221  1.8221 -1.3578 -1.6889
12247TIP3    H258157   5.506   3.607   5.259  0.7769 -1.1585  1.6139
12248TIP3   OH258158   4.655   2.019  13.821 -0.1374 -0.8854 -0.4476
12248TIP3    H158159   4.700   2.034  13.904 -2.6164 -0.0318  0.7711
12248TIP3    H258160   4.662   2.102  13.774 -1.8083 -0.2570  0.4115
12249TIP3   OH258161   3.398   4.657   5.950  0.7111  0.4179  0.2936
12249TIP3    H158162   3.393   4.624   5.860 -0.9819 -0.3286  0.6292
12249TIP3    H258163   3.461   4.599   5.993  0.1842 -0.3635  0.0369
12250TIP3   OH258164   3.620   4.092   1.836  0.7864  0.1033 -0.3300
12250TIP3    H158165   3.697   4.149   1.848  2.3961 -1.5580 -2.3438
12250TIP3    H258166   3.624   4.066   1.744 -1.2676 -1.3690 -0.0260
12251TIP3   OH258167   2.765   0.060  11.420  0.7442  0.1639 -0.1878
12251TIP3    H158168   2.702   0.095  11.484  0.7796  0.2272 -0.1882
12251TIP3    H258169   2.714  -0.001  11.367  0.9931 -0.8496  0.7113
12252TIP3   OH258170   4.252   3.665   1.964  0.4965 -0.1619 -0.5097
12252TIP3    H158171   4.327   3.721   1.946  1.7676 -1.2011  1.3757
12252TIP3    H258172   4.271   3.584   1.917  0.0508 -0.0472 -0.8875
12253TIP3   OH258173   3.170   2.341   5.624  0.6939  0.0689 -0.8634
12253TIP3    H158174   3.234   2.412   5.629 -1.6100  2.1370  0.8672
12253TIP3    H258175   3.091   2.383   5.589 -0.1544 -2.0658 -1.5348
12254TIP3   OH258176   5.120   0.459   1.490  0.5344  0.0601 -0.0966
12254TIP3    H158177   5.038   0.442   1.537  0.6357  0.5515  0.2581
12254TIP3    H258178   5.121   0.553   1.475  0.0564 -0.1965 -1.9203
12255TIP3   OH258179   5.628   0.939  13.267 -0.2277 -0.3560  0.3320
12255TIP3    H158180   5.554   0.995  13.245 -0.9252 -1.6381 -0.6524
12255TIP3    H258181   5.678   0.989  13.332  0.2440  2.2582 -1.9278
12256TIP3   OH258182   0.168   3.744  17.196 -0.7621  0.0857  0.7085
12256TIP3    H158183   0.095   3.805  17.212  0.3926  1.4316  0.9743
12256TIP3    H258184   0.202   3.771  17.110 -1.0943 -1.0781  0.2127
12257TIP3   OH258185   2.906   1.456   4.756  0.3739 -0.2029  0.1944
12257TIP3    H158186   2.936   1.386   4.698  2.0045  0.6643 -0.0322
12257TIP3    H258187   2.968   1.454   4.830 -0.1665  0.3494  0.6668
12258TIP3   OH258188   6.605   2.337  16.416  0.2357 -0.2879 -0.3369
12258TIP3    H158189   6.563   2.419  16.389  0.5346 -0.5066 -1.4754
12258TIP3    H258190   6.547   2.301  16.483 -1.4461 -0.6313 -1.9435
12259TIP3   OH258191   3.578   4.382   2.846 -0.2351  0.8256 -0.2418
12259TIP3    H158192   3.612   4.393   2.935  0.5729  0.5214 -0.5168
12259TIP3    H258193   3.643   4.329   2.801 -0.7425  0.8075 -0.9637
12260TIP3   OH258194   2.470   0.197  14.830 -0.7173  0.7286 -0.5498
12260TIP3    H158195   2.550   0.180  14.879 -1.0052 -0.9337 -0.6411
12260TIP3    H258196   2.411   0.127  14.855 -3.0015  3.1954  1.2845
12261TIP3   OH258197   5.919   6.761  14.191 -0.1726 -0.4082 -0.3204
12261TIP3    H158198   5.945   6.734  14.103 -2.1412  0.7371 -1.3037
12261TIP3    H258199   5.843   6.707  14.211  0.7339 -1.2002  1.0062
12262TIP3   OH258200   0.001   2.314  13.100 -0.6058 -0.4250  0.2448
12262TIP3    H158201   0.025   2.349  13.014 -0.2726  1.2181  0.9856
12262TIP3    H258202  -0.039   2.228  13.081  0.3648 -0.5209 -1.4570
12263TIP3   OH258203   2.859   5.673  12.483  0.3469  0.4146  0.6914
12263TIP3    H158204   2.839   5.729  12.558  0.2161 -1.1472  1.8555
12263TIP3    H258205   2.803   5.596  12.494 -0.6835  0.7474 -1.7687
12264TIP3   OH258206   1.735   6.222  13.211 -0.4225  0.0270  0.7979
12264TIP3    H158207   1.696   6.164  13.276  1.3997 -2.2198 -0.0090
12264TIP3    H258208   1.764   6.163  13.141  1.1000  1.9575 -0.2597
12265TIP3   OH258209   6.564   1.084  16.056  0.2172  0.0433  0.0708
12265TIP3    H158210   6.629   1.150  16.031  0.6087 -0.7188 -0.9564
12265TIP3    H258211   6.483   1.114  16.015  0.6197 -0.6381 -1.2484
12266TIP3   OH258212   5.022   5.602  15.989  0.1665  0.2470  0.2527
12266TIP3    H158213   5.050   5.575  16.076 -1.9886 -0.6058  0.7107
12266TIP3    H258214   5.013   5.520  15.940 -0.2380  0.5925 -0.2645
12267TIP3   OH258215   0.352   6.526   4.830 -0.2008  0.4345 -0.3358
12267TIP3    H158216   0.390   6.541   4.916  0.2229 -0.7172 -0.3192
12267TIP3    H258217   0.427   6.512   4.772 -0.4602  1.6045 -0.9868
12268TIP3   OH258218   1.930   6.576  15.946  0.2848  1.0526 -0.5753
12268TIP3    H158219   2.013   6.620  15.927  0.8659  0.6498  0.9808
12268TIP3    H258220   1.952   6.483  15.947 -0.3373  0.8987 -0.8647
12269TIP3   OH258221   3.642   4.385  13.187 -0.4812 -0.2312  0.1899
12269TIP3    H158222   3.711   4.405  13.124 -0.8961  3.2164  0.7674
12269TIP3    H258223   3.565   4.367  13.133  0.3701 -2.2712 -0.3932
12270TIP3   OH258224   4.848   2.237  13.225  0.1981  0.4043  0.5251
12270TIP3    H158225   4.812   2.163  13.176  1.8802 -0.3626  0.4001
12270TIP3    H258226   4.771   2.286  13.255 -0.9326 -1.2935  0.4667
12271TIP3   OH258227   4.921   0.875  14.828  0.0486  0.4446 -0.3008
12271TIP3    H158228   4.920   0.873  14.924  1.3988 -1.6125 -0.2881
12271TIP3    H258229   4.903   0.966  14.806  1.3326  1.2996  1.9641
12272TIP3   OH258230   4.155   1.545  15.768 -0.1254 -0.1204 -0.5045
12272TIP3    H158231   4.195   1.627  15.795  0.3993 -0.3001 -0.7313
12272TIP3    H258232   4.147   1.494  15.848 -0.0310 -0.0305 -0.4396
12273TIP3   OH258233   4.656   5.071   5.775  0.5883  0.0589  0.8520
12273TIP3    H158234   4.707   5.084   5.695  0.0954 -1.1229  0.3272
12273TIP3    H258235   4.650   4.976   5.785 -2.1301  0.1281  0.4577
12274TIP3   OH258236   2.267   6.226  11.266  0.2678 -0.4462  0.0953
12274TIP3    H158237   2.311   6.229  11.181  2.0522 -0.2536  0.9997
12274TIP3    H258238   2.287   6.311  11.305 -1.3518 -0.1565  0.3358
12275TIP3   OH258239   3.085   5.831  13.129 -0.3283 -0.5984  0.2761
12275TIP3    H158240   3.002   5.841  13.084  0.1309 -3.3021 -1.2480
12275TIP3    H258241   3.147   5.884  13.078  0.2222 -3.7382 -2.5162
12276TIP3   OH258242   4.662   1.750   5.106 -0.5173  0.6139  0.4416
12276TIP3    H158243   4.601   1.812   5.065 -1.4320  0.5649  1.6959
12276TIP3    H258244   4.708   1.802   5.172  1.0605  0.7281 -0.7171
12277TIP3   OH258245   0.568   5.879  11.540 -0.4070  0.0022 -0.5731
12277TIP3    H158246   0.495   5.871  11.479 -0.0872 -1.2785 -0.8040
12277TIP3    H258247   0.557   5.806  11.600  1.2305 -0.8104 -1.2213
12278TIP3   OH258248   2.341   3.813  15.477  0.0662 -1.1469  0.6414
12278TIP3    H158249   2.352   3.848  15.388 -2.4745  0.0948  0.7460
12278TIP3    H258250   2.372   3.723  15.472  1.0675 -0.7234 -1.2036
12279TIP3   OH258251   3.590   0.665   1.054  0.0883  0.1201 -0.5818
12279TIP3    H158252   3.503   0.631   1.073 -0.8645  2.3118 -0.8134
12279TIP3    H258253   3.606   0.641   0.963 -0.1257 -0.5906 -0.4353
12280TIP3   OH258254   0.516   4.403  13.601 -0.2331 -0.2169  0.1142
12280TIP3    H158255   0.557   4.331  13.551 -0.2419 -1.0381  1.2855
12280TIP3    H258256   0.425   4.377  13.611 -0.1603 -0.2059  0.8331
12281TIP3   OH258257   6.412   6.408   4.711  0.1915  0.1605  0.1450
12281TIP3    H158258   6.460   6.356   4.646  0.6400  1.7563 -0.8220
12281TIP3    H258259   6.460   6.490   4.717 -0.2501  0.3009  2.0045
12282TIP3   OH258260   5.689   4.435   0.468  0.2515 -0.0554 -0.2438
12282TIP3    H158261   5.749   4.362   0.450  0.8603  0.1436  0.8847
12282TIP3    H258262   5.727   4.510   0.421  0.2624 -0.1974 -0.4600
12283TIP3   OH258263   5.506   1.270  14.038  0.6776  0.3256  0.5401
12283TIP3    H158264   5.534   1.191  14.084 -0.0917 -0.0858  0.3144
12283TIP3    H258265   5.546   1.263  13.951  0.3961  0.0485  0.4301
12284TIP3   OH258266   6.139   2.145   5.571  0.1998  0.1160  0.2838
12284TIP3    H158267   6.063   2.145   5.513 -0.6536 -4.1126  1.2156
12284TIP3    H258268   6.209   2.184   5.519 -1.5617  0.2069 -2.1119
12285TIP3   OH258269   1.966   6.738   6.880  0.0839 -0.4053  0.0452
12285TIP3    H158270   2.025   6.770   6.812  0.1534 -1.5690 -0.4593
12285TIP3    H258271   1.881   6.775   6.857  0.5034  0.8395  0.4674
12286TIP3   OH258272   0.301   3.657  13.402  0.5305  0.2455  0.4222
12286TIP3    H158273   0.394   3.653  13.424  0.5682 -0.6423  0.1363
12286TIP3    H258274   0.263   3.582  13.448 -0.0152  0.5151  0.4111
12287TIP3   OH258275   5.473   5.494  11.466  0.3290  0.5903 -0.0981
12287TIP3    H158276   5.387   5.467  11.434  0.7770 -0.3184 -0.5547
12287TIP3    H258277   5.534   5.463  11.399  1.0862  0.5057  0.6296
12288TIP3   OH258278   6.035   1.052   3.944  0.4500  0.1305  0.6144
12288TIP3    H158279   5.959   1.047   4.002 -0.0884 -0.1498 -0.1062
12288TIP3    H258280   6.110   1.048   4.002 -0.0870 -0.3085  1.2806
12289TIP3   OH258281   1.124   0.833  10.748 -0.5807 -0.1135  0.4729
12289TIP3    H158282   1.212   0.839  10.786  0.2520  0.0818 -1.4552
12289TIP3    H258283   1.110   0.739  10.735 -0.8906 -0.1861  1.2646
12290TIP3   OH258284   2.710   5.705   5.282 -0.4605 -0.1448  0.2792
12290TIP3    H158285   2.703   5.773   5.215 -0.7433  1.2030  1.6599
12290TIP3    H258286   2.748   5.630   5.236 -0.2652  0.8921 -1.2871
12291TIP3   OH258287   2.434   4.148  11.739  0.3534 -0.3143 -0.5324
12291TIP3    H158288   2.402   4.223  11.790  0.5371 -0.1616 -0.6421
12291TIP3    H258289   2.529   4.156  11.741  0.3643 -0.3525 -0.8343
12292TIP3   OH258290   5.462   6.190   0.563 -0.0539  0.2353 -0.6876
12292TIP3    H158291   5.368   6.176   0.576  0.0443  0.9165  0.8823
12292TIP3    H258292   5.496   6.208   0.651  1.6242 -0.4180 -1.1830
12293TIP3   OH258293   5.112   4.898  17.041  0.1587  0.2855  0.5992
12293TIP3    H158294   5.028   4.885  16.997  0.1537  1.0678  0.3556
12293TIP3    H258295   5.131   4.815  17.084 -0.4275 -0.0968  0.1165
12294TIP3   OH258296   1.739   4.337   3.856  0.5061  0.5961  0.6587
12294TIP3    H158297   1.667   4.291   3.899  1.1470  1.1274  2.3501
12294TIP3    H258298   1.809   4.272   3.849  0.7875  0.8072  1.4386
12295TIP3   OH258299   0.789   6.241   4.485 -0.8483  0.9212  0.1715
12295TIP3    H158300   0.753   6.329   4.475 -0.7130  1.0809  1.0589
12295TIP3    H258301   0.713   6.183   4.485 -0.8915  0.9525 -1.2307
12296TIP3   OH258302   0.469   0.270  15.496 -0.3039 -0.7624  0.1523
12296TIP3    H158303   0.487   0.342  15.556  0.6668 -1.3354  0.5410
12296TIP3    H258304   0.433   0.201  15.551 -4.5271  0.6105 -0.6865
12297TIP3   OH258305   5.026   5.936  14.051  0.1773  0.2462 -0.8116
12297TIP3    H158306   5.035   5.983  14.134 -0.8781 -1.1692  0.1210
12297TIP3    H258307   4.984   5.853  14.075  0.1413 -0.2992 -2.7201
12298TIP3   OH258308   4.358   4.074   1.889 -0.3219  0.2802 -0.2985
12298TIP3    H158309   4.417   4.141   1.853 -0.6018  1.1918  0.8722
12298TIP3    H258310   4.406   3.992   1.879  2.6385  1.3780  3.5253
12299TIP3   OH258311   3.447   4.485  11.788  0.0102  0.1920 -0.3251
12299TIP3    H158312   3.435   4.390  11.799 -0.0631  0.3073  0.6346
12299TIP3    H258313   3.539   4.495  11.764  0.6494  0.0445  1.9426
12300TIP3   OH258314   5.770   0.529  12.603 -0.4444  0.2098 -0.1964
12300TIP3    H158315   5.815   0.552  12.684 -1.7230 -1.2371  0.9765
12300TIP3    H258316   5.688   0.489  12.633 -0.1483 -1.9619 -2.1717
12301TIP3   OH258317   6.470   5.470  13.191 -0.5740 -0.0756 -0.0429
12301TIP3    H158318   6.494   5.562  13.206 -2.0016  0.0938  1.3398
12301TIP3    H258319   6.445   5.467  13.099  0.1779  0.7658 -0.2855
12302TIP3   OH258320   0.016   5.514   6.272 -0.6405  0.1443  0.3092
12302TIP3    H158321   0.071   5.438   6.286  0.6516  1.1282  0.7224
12302TIP3    H258322   0.064   5.586   6.314 -0.5351  1.6897 -2.3751
12303TIP3   OH258323   1.720   5.670  12.980  0.0726  0.2686  0.0486
12303TIP3    H158324   1.652   5.621  13.027  1.7682 -2.0116  0.2096
12303TIP3    H258325   1.681   5.689  12.895 -0.5401 -1.6393 -0.1310
12304TIP3   OH258326   0.967   6.130   2.251  0.1130  0.1306  0.4607
12304TIP3    H158327   0.925   6.115   2.336 -0.1715 -0.3171  0.2420
12304TIP3    H258328   1.034   6.062   2.245  1.9954  1.8069  1.5159
12305TIP3   OH258329   1.328   4.981   0.492  0.2168  0.3788 -0.2073
12305TIP3    H158330   1.354   4.890   0.475  0.4814  0.4047  0.0533
12305TIP3    H258331   1.233   4.977   0.504 -0.1260  0.4877 -2.5456
12306TIP3   OH258332   2.189   6.352  16.077  0.4245 -0.0046 -0.6899
12306TIP3    H158333   2.209   6.276  16.132 -0.3943 -0.3091 -0.8108
12306TIP3    H258334   2.271   6.403  16.076  1.3572 -1.4951 -1.6015
12307TIP3   OH258335   0.421   1.244  13.583 -0.1494  0.8942  0.0506
12307TIP3    H158336   0.439   1.156  13.552 -0.5372  1.4269 -1.7293
12307TIP3    H258337   0.435   1.300  13.507 -2.6268  2.0771  0.4270
12308TIP3   OH258338   5.120   4.038  16.017  0.2814 -0.1273 -0.6486
12308TIP3    H158339   5.147   3.953  15.984 -0.0648 -0.1580 -0.8501
12308TIP3    H258340   5.179   4.100  15.974 -0.4757 -0.1232 -1.6834
12309TIP3   OH258341   5.259   6.728  12.555 -0.3857 -0.3745 -0.5013
12309TIP3    H158342   5.302   6.701  12.636  1.3241  1.2609 -0.8352
12309TIP3    H258343   5.167   6.740  12.579 -0.5340 -3.1469  0.4063
12310TIP3   OH258344   5.157   0.839   2.323 -0.3645  0.6624 -0.3998
12310TIP3    H158345   5.222   0.827   2.392 -0.0616  1.3940 -0.5525
12310TIP3    H258346   5.117   0.923   2.343 -0.0230  1.0498 -1.3204
12311TIP3   OH258347   4.018   4.243  14.703  0.3188  0.4386 -0.0274
12311TIP3    H158348   4.014   4.165  14.758 -0.3162  0.8166  0.4709
12311TIP3    H258349   3.986   4.214  14.618  2.3799 -0.4351 -0.5592
12312TIP3   OH258350   5.585   3.769  11.781 -0.4695  0.4500  0.3143
12312TIP3    H158351   5.507   3.722  11.810  0.8473 -3.0953 -1.5048
12312TIP3    H258352   5.657   3.725  11.825  0.7649  1.4507 -0.6528
12313TIP3   OH258353   4.281   3.110   5.305 -0.4624  0.3323 -0.5590
12313TIP3    H158354   4.209   3.055   5.337  0.0266 -0.0178 -0.0410
12313TIP3    H258355   4.267   3.195   5.346 -0.6967  0.3232 -0.6196
12314TIP3   OH258356   3.020   0.984  13.680 -0.1691 -0.1798  0.1910
12314TIP3    H158357   3.072   1.027  13.748  0.2613  0.1792 -0.3612
12314TIP3    H258358   3.043   1.030  13.599  0.5963 -1.6972 -0.4658
12315TIP3   OH258359   1.462   4.919  16.048  0.1151 -0.3080 -0.4995
12315TIP3    H158360   1.405   4.986  16.087  1.3224  0.4985 -0.0674
12315TIP3    H258361   1.522   4.969  15.992  1.0120 -1.0137 -0.1871
12316TIP3   OH258362   5.249   1.960  13.944 -0.1953 -0.4442 -0.0158
12316TIP3    H158363   5.169   1.959  13.891 -1.3679 -0.6768  1.7477
12316TIP3    H258364   5.314   1.918  13.888 -1.2780 -0.2102 -1.4943
12317TIP3   OH258365   6.315   6.194   5.206 -0.0909  0.0187  0.3028
12317TIP3    H158366   6.408   6.183   5.183 -0.5902 -2.2901 -0.7757
12317TIP3    H258367   6.271   6.210   5.123 -0.8667 -0.5579  0.5948
12318TIP3   OH258368   2.873   5.927  12.944 -0.0455  0.0805 -0.2664
12318TIP3    H158369   2.832   6.014  12.944 -0.3399 -0.0539  0.2329
12318TIP3    H258370   2.852   5.890  12.859 -1.2443 -0.1182  0.1114
12319TIP3   OH258371   0.119   2.993  11.770 -0.1312 -0.5407 -0.0754
12319TIP3    H158372   0.100   3.036  11.687 -1.2860 -0.4315  0.2337
12319TIP3    H258373   0.120   2.899  11.749  0.6388 -0.4558 -0.4128
12320TIP3   OH258374   0.989   0.984  16.764  0.1884  0.5803 -0.4786
12320TIP3    H158375   1.057   1.046  16.789  1.4788 -0.9474 -0.0873
12320TIP3    H258376   0.946   0.960  16.846  1.9615 -1.6052 -0.1397
12321TIP3   OH258377   0.850   5.701  11.317  0.4391 -0.1674  0.1471
12321TIP3    H158378   0.916   5.636  11.340  0.5839  0.7847  2.5490
12321TIP3    H258379   0.767   5.663  11.346  0.3003 -0.0462 -0.0847
12322TIP3   OH258380   5.376   5.129   5.067 -0.0156  0.0530 -0.2397
12322TIP3    H158381   5.337   5.048   5.034  0.8583 -1.1234  1.5144
12322TIP3    H258382   5.465   5.129   5.030  0.1720 -0.0888  0.2007
12323TIP3   OH258383   1.200   5.329  12.891  0.4032  0.6370 -0.4433
12323TIP3    H158384   1.182   5.421  12.874  0.8163  0.9838  0.9414
12323TIP3    H258385   1.262   5.329  12.963 -0.3028 -0.7407  0.1969
12324TIP3   OH258386   5.967   5.027  15.223  0.4841  0.1785  0.0657
12324TIP3    H158387   5.899   5.089  15.196 -0.2087 -0.5185  0.2200
12324TIP3    H258388   6.047   5.061  15.182  0.2377  1.5420  0.6691
12325TIP3   OH258389   0.486   2.340   4.460  0.4885  0.5103 -0.2193
12325TIP3    H158390   0.435   2.417   4.433  0.7766  1.2317  1.2455
12325TIP3    H258391   0.421   2.272   4.473 -0.1597  1.4504  1.7228
12326TIP3   OH258392   2.122   3.758  16.313  0.6031  0.1678  0.6240
12326TIP3    H158393   2.138   3.699  16.240 -1.1585  0.3254  0.1016
12326TIP3    H258394   2.051   3.815  16.284  0.9245  1.2326  1.8722
12327TIP3   OH258395   3.076   2.363   0.821 -0.8381 -0.0234  0.4264
12327TIP3    H158396   3.035   2.337   0.903  0.9505  0.4144  1.4976
12327TIP3    H258397   3.136   2.433   0.845 -0.6358  0.4475 -1.3393
12328TIP3   OH258398   4.444   3.311  16.970 -0.0697  0.3336 -0.6754
12328TIP3    H158399   4.530   3.354  16.973 -0.0631  0.2991 -0.4158
12328TIP3    H258400   4.465   3.218  16.963 -0.0868  0.1904  1.0076
12329TIP3   OH258401   3.257   0.587  15.696 -0.5471 -0.2101  0.2699
12329TIP3    H158402   3.186   0.627  15.747 -0.4204  1.1438 -0.5981
12329TIP3    H258403   3.213   0.529  15.634 -0.8784  0.2892  0.0327
12330TIP3   OH258404   6.032   1.706  14.632 -0.2625  0.2797 -0.1442
12330TIP3    H158405   5.998   1.626  14.671 -0.0296  0.6391  0.8032
12330TIP3    H258406   6.067   1.678  14.547 -1.2745 -0.4031 -0.3416
12331TIP3   OH258407   3.792   5.355  14.199 -0.0312 -0.0781  0.0467
12331TIP3    H158408   3.711   5.364  14.149 -0.6496  1.2204  1.2547
12331TIP3    H258409   3.855   5.410  14.153  0.9174 -3.0236 -2.3516
12332TIP3   OH258410   3.823   4.731   3.667 -0.3182  0.5445 -0.6310
12332TIP3    H158411   3.796   4.783   3.743  0.2660  0.3241 -0.2719
12332TIP3    H258412   3.839   4.643   3.702 -0.3196  0.3764 -1.0546
12333TIP3   OH258413   3.748   3.154   1.077 -0.6404 -0.2858  0.0051
12333TIP3    H158414   3.804   3.116   1.008 -0.8453 -1.1788  0.3228
12333TIP3    H258415   3.776   3.110   1.157 -1.1315 -0.0137  0.3271
12334TIP3   OH258416   0.314   3.196   3.336  0.3658 -0.1055 -0.1397
12334TIP3    H158417   0.285   3.148   3.414 -1.0161  0.2134 -0.4279
12334TIP3    H258418   0.329   3.128   3.270  3.0082 -0.4963  0.8310
12335TIP3   OH258419   0.961   5.787   1.823 -0.5182 -0.2011 -1.0694
12335TIP3    H158420   1.035   5.742   1.784  0.0455 -0.4489  0.2788
12335TIP3    H258421   0.998   5.839   1.894 -2.0099 -2.7492  1.6504
12336TIP3   OH258422   2.496   1.850  15.823  0.2377 -0.3799 -0.2254
12336TIP3    H158423   2.548   1.921  15.786 -1.2474  1.1690  0.6139
12336TIP3    H258424   2.531   1.838  15.911 -0.4655  0.3227  0.1581
12337TIP3   OH258425   5.524   0.895   4.674  0.2055 -0.0948 -0.2662
12337TIP3    H158426   5.592   0.871   4.611 -0.4311  1.3315 -1.5076
12337TIP3    H258427   5.527   0.990   4.678 -1.5789 -0.0284 -0.1717
12338TIP3   OH258428   0.097   5.411   2.027 -0.0325  0.1754 -0.5526
12338TIP3    H158429   0.137   5.494   2.000 -0.0234 -0.0093 -1.1338
12338TIP3    H258430   0.121   5.401   2.119 -0.6097  1.1499 -0.2886
12339TIP3   OH258431   2.960   5.532  13.768  0.5146  0.5552  0.6355
12339TIP3    H158432   2.950   5.620  13.733 -0.4505 -0.2086 -1.0970
12339TIP3    H258433   2.874   5.509  13.802  0.9638  0.5720  1.8075
12340TIP3   OH258434   2.534   6.745  11.239 -0.2852 -0.0860  0.4161
12340TIP3    H158435   2.574   6.778  11.158 -0.6999  1.2048  0.7231
12340TIP3    H258436   2.449   6.790  11.244 -1.1623 -1.7352  0.5024
12341TIP3   OH258437   2.389   1.860  14.079 -0.0787  0.5763 -0.0442
12341TIP3    H158438   2.350   1.852  14.166 -0.8766  1.4519 -0.3128
12341TIP3    H258439   2.454   1.790  14.075 -0.3836  0.2230  1.0719
12342TIP3   OH258440   3.844   2.887  13.463 -0.5923  0.2891  0.4011
12342TIP3    H158441   3.806   2.975  13.462 -3.6538 -0.9364  1.1165
12342TIP3    H258442   3.809   2.848  13.543  0.5482 -1.6432 -0.0328
12343TIP3   OH258443   1.644   5.064   0.068  0.3140  0.0780 -0.5618
12343TIP3    H158444   1.666   5.102  -0.017 -1.5635  1.8268 -0.3113
12343TIP3    H258445   1.548   5.059   0.068  0.3911 -2.2264  0.4840
12344TIP3   OH258446   4.103   4.866  16.810  0.0585  0.4715  0.2763
12344TIP3    H158447   4.025   4.838  16.858  1.4345 -1.1906  1.5625
12344TIP3    H258448   4.151   4.786  16.792  1.4917  1.4795 -0.5017
12345TIP3   OH258449   5.544   5.742   3.790 -0.5870  0.1291 -0.1965
12345TIP3    H158450   5.577   5.771   3.875  1.0486  0.4099 -0.9155
12345TIP3    H258451   5.576   5.652   3.781  1.1809  0.8681 -1.5004
12346TIP3   OH258452   2.217   1.432  12.642  0.2633 -0.2674 -0.6740
12346TIP3    H158453   2.175   1.381  12.571 -0.5811 -4.0575  2.3697
12346TIP3    H258454   2.145   1.480  12.682  0.7024  1.6825 -2.1354
12347TIP3   OH258455   6.212   2.906  12.116 -0.1680 -0.0754 -0.4468
12347TIP3    H158456   6.178   2.991  12.089  1.0420  0.7026  0.4058
12347TIP3    H258457   6.303   2.906  12.085  0.7540  0.1796  2.1608
12348TIP3   OH258458   2.511   0.232  16.736  0.4686 -0.1296 -0.2084
12348TIP3    H158459   2.507   0.138  16.723 -0.2285 -0.6446  3.1614
12348TIP3    H258460   2.424   0.264  16.709 -0.6337 -1.0077  2.1878
12349TIP3   OH258461   2.710   4.954  15.088  0.2401  0.3612 -0.0789
12349TIP3    H158462   2.702   4.890  15.158  1.0421 -1.5904 -1.7253
12349TIP3    H258463   2.651   5.025  15.113  1.5494  0.3458  3.2324
12350TIP3   OH258464   5.965   2.450  15.120 -0.1941 -0.0887  0.0198
12350TIP3    H158465   6.059   2.466  15.110 -0.1060 -0.2902  0.5101
12350TIP3    H258466   5.943   2.490  15.204 -0.4391 -0.5003  0.1528
12351TIP3   OH258467   3.157   1.422  12.209 -0.0176  0.0397  0.8402
12351TIP3    H158468   3.153   1.469  12.126 -1.3917  0.2104  0.9930
12351TIP3    H258469   3.162   1.330  12.183  1.3916  0.1813  0.5573
12352TIP3   OH258470   2.243   3.016   3.492  0.8405  0.4087  0.3233
12352TIP3    H158471   2.175   3.083   3.500  1.2173  0.7979  0.3199
12352TIP3    H258472   2.248   2.999   3.398  0.1425 -0.2568  0.4041
12353TIP3   OH258473   3.795   4.180  14.248 -0.4081  0.1281  0.8293
12353TIP3    H158474   3.706   4.207  14.225 -0.2210  1.2797  1.4554
12353TIP3    H258475   3.838   4.164  14.164 -1.2941 -0.7621  0.5295
12354TIP3   OH258476   2.658   5.318  16.112 -0.1160  0.1403  0.0236
12354TIP3    H158477   2.653   5.396  16.057  1.6947  0.6131  0.5001
12354TIP3    H258478   2.640   5.349  16.200  2.3575  0.4021  0.4952
12355TIP3   OH258479   0.467   3.190  16.310 -0.3446  0.0405 -0.2795
12355TIP3    H158480   0.509   3.221  16.390  1.1302 -2.2856 -0.1121
12355TIP3    H258481   0.510   3.239  16.240 -0.0274  0.4340  0.1884
12356TIP3   OH258482   2.397   5.203  13.584 -0.2491  0.5934  0.1783
12356TIP3    H158483   2.408   5.292  13.616  0.4077  0.0428  1.5209
12356TIP3    H258484   2.311   5.175  13.616  0.1706  0.2362  0.9993
12357TIP3   OH258485   3.420   4.853   2.320 -0.1948  0.3914 -0.2282
12357TIP3    H158486   3.340   4.806   2.297  0.6740 -1.4855  0.4174
12357TIP3    H258487   3.473   4.851   2.240  0.2019 -0.5209  0.0510
12358TIP3   OH258488   1.940   2.301  10.644 -0.4420  0.3436 -0.0614
12358TIP3    H158489   1.917   2.210  10.661 -0.8473  0.1965 -1.3062
12358TIP3    H258490   1.906   2.318  10.556 -0.5336  1.7533  0.2327
12359TIP3   OH258491   1.973   3.071   0.693  0.5712  0.3824  0.9579
12359TIP3    H158492   1.911   3.144   0.698  0.2887  0.2489 -0.4795
12359TIP3    H258493   2.059   3.111   0.699  0.5473  1.1976 -2.9029
12360TIP3   OH258494   5.663   6.624   2.987 -0.1461  0.9860  0.3490
12360TIP3    H158495   5.632   6.637   3.077 -0.4679  2.7628 -0.0118
12360TIP3    H258496   5.703   6.707   2.963  0.9830  0.1543 -0.7653
12361TIP3   OH258497   1.369   5.923  15.648 -0.3938  0.0459  0.8117
12361TIP3    H158498   1.419   6.005  15.652  0.8536 -0.6991  0.7739
12361TIP3    H258499   1.304   5.938  15.579 -1.3616  1.6403  2.0365
12362TIP3   OH258500   0.973   5.625   2.620  0.2166 -0.1437  0.0257
12362TIP3    H158501   0.914   5.691   2.583  0.3387 -0.2470 -0.3583
12362TIP3    H258502   0.983   5.651   2.711 -0.8338 -0.4271  0.2316
12363TIP3   OH258503   4.898   5.382  16.625 -0.1920  0.2501 -0.3373
12363TIP3    H158504   4.820   5.330  16.645 -0.1752 -0.4851 -2.1118
12363TIP3    H258505   4.971   5.326  16.653 -0.2507  0.2166 -0.2516
12364TIP3   OH258506   4.107   5.975   5.384 -0.2042 -0.2425  0.5004
12364TIP3    H158507   4.145   5.903   5.334 -0.8061  0.2362 -0.6769
12364TIP3    H258508   4.018   5.984   5.349 -0.3416  0.6637  1.0712
12365TIP3   OH258509   6.029   1.333  16.816 -0.4065 -0.1793 -0.7679
12365TIP3    H158510   6.060   1.394  16.749  0.7371  0.1594  0.0600
12365TIP3    H258511   6.073   1.251  16.796  0.6154  0.1497  0.0634
12366TIP3   OH258512   2.214   3.279   5.155 -0.1342 -0.1939 -1.0608
12366TIP3    H158513   2.193   3.348   5.217  0.6909 -1.9974  1.2826
12366TIP3    H258514   2.267   3.323   5.088 -1.8113  1.9579 -1.0061
12367TIP3   OH258515   3.296   5.452  14.571 -0.9073 -0.1782 -0.8197
12367TIP3    H158516   3.255   5.539  14.571 -1.7140 -0.5454 -0.0506
12367TIP3    H258517   3.290   5.422  14.481 -3.1897 -0.6093 -0.5460
12368TIP3   OH258518   3.823   3.679   5.128  0.4610  0.2899  0.0771
12368TIP3    H158519   3.905   3.635   5.151 -0.3347 -0.7301  1.0292
12368TIP3    H258520   3.773   3.613   5.078  0.3476  1.0073 -0.7708
12369TIP3   OH258521   1.509   0.664   0.982  0.1908  0.0802 -0.4341
12369TIP3    H158522   1.564   0.588   0.965 -0.6861 -0.6491 -0.0263
12369TIP3    H258523   1.553   0.736   0.936  0.7416 -0.7720 -1.2559
12370TIP3   OH258524   0.777   3.639   5.921  0.3104  0.0430  0.2768
12370TIP3    H158525   0.804   3.568   5.863  0.9541  0.8278 -0.3905
12370TIP3    H258526   0.785   3.602   6.009 -2.0898 -1.6627 -0.1402
12371TIP3   OH258527   2.598   1.065  12.783 -0.6287  0.3074 -0.4197
12371TIP3    H158528   2.542   1.137  12.812  1.3957  2.3615 -1.4242
12371TIP3    H258529   2.670   1.064  12.847 -0.2888 -0.3680 -0.8089
12372TIP3   OH258530   1.369   3.702  12.533 -0.2393 -0.2631 -0.1263
12372TIP3    H158531   1.377   3.617  12.577 -0.0323 -0.5935 -0.7925
12372TIP3    H258532   1.378   3.766  12.603 -0.1121 -0.7851  0.3412
12373TIP3   OH258533   2.970   4.939  14.981  0.6330  0.2194  0.5016
12373TIP3    H158534   2.885   4.940  15.025 -0.0147 -1.5004 -0.6378
12373TIP3    H258535   2.979   5.026  14.944 -0.5920  0.4644  0.7467
12374TIP3   OH258536   5.337   3.805   2.497 -0.0073 -0.4479 -0.3066
12374TIP3    H158537   5.273   3.835   2.561  0.8472 -3.3633  2.0441
12374TIP3    H258538   5.285   3.779   2.420 -1.3688 -0.0955  0.4960
12375TIP3   OH258539   4.621   1.025   0.783  0.1450 -0.1213  0.6161
12375TIP3    H158540   4.601   1.026   0.690  0.3132  0.7860  0.5894
12375TIP3    H258541   4.564   1.092   0.821 -1.0915 -1.5805  1.4111
12376TIP3   OH258542   0.589   3.740   1.828  0.0921 -0.1396  0.4160
12376TIP3    H158543   0.512   3.689   1.854  0.9742 -1.6965  0.0810
12376TIP3    H258544   0.639   3.750   1.909  1.2629 -2.2250  0.0032
12377TIP3   OH258545   6.743   1.349  14.541  0.0394 -0.5193  0.2320
12377TIP3    H158546   6.655   1.329  14.573 -0.0124 -1.1650 -0.3049
12377TIP3    H258547   6.739   1.441  14.516 -0.9804 -1.0079 -1.4198
12378TIP3   OH258548   1.481   3.881  13.298 -0.0403 -0.3781 -0.2287
12378TIP3    H158549   1.563   3.929  13.302 -0.4515  0.5146 -1.9388
12378TIP3    H258550   1.417   3.945  13.266 -1.4315 -1.0333  1.1328
12379TIP3   OH258551   2.094   6.558   5.556 -0.1086  0.6807 -0.6033
12379TIP3    H158552   2.031   6.486   5.556  0.8122 -0.1466 -1.4565
12379TIP3    H258553   2.176   6.518   5.527  0.2623  2.2181 -1.7486
12380TIP3   OH258554   5.473   6.497  13.982  0.3332  0.0420 -0.0350
12380TIP3    H158555   5.394   6.540  13.951 -0.1193 -1.1617 -0.5854
12380TIP3    H258556   5.448   6.460  14.067  0.7213  0.8454  0.4370
12381TIP3   OH258557   5.753   0.266  13.766 -0.4806  0.0956 -0.4945
12381TIP3    H158558   5.765   0.351  13.809  1.0416  0.0713 -0.8436
12381TIP3    H258559   5.723   0.208  13.836 -2.0015  1.0152 -0.3548
12382TIP3   OH258560   6.507   5.700   2.496  0.8003 -0.5987 -0.5626
12382TIP3    H158561   6.445   5.644   2.543  1.1485 -1.8251 -1.5265
12382TIP3    H258562   6.574   5.721   2.561  1.3766 -2.4406 -0.5217
12383TIP3   OH258563   0.039   6.688  10.676  0.3741  0.6372 -0.2184
12383TIP3    H158564  -0.007   6.724  10.752  1.2393 -0.3939  0.8086
12383TIP3    H258565   0.038   6.593  10.690  0.1697  0.4068 -1.7181
12384TIP3   OH258566   3.478   0.436  11.770  0.5131 -0.0299  0.5821
12384TIP3    H158567   3.549   0.395  11.820  2.0878  3.0293  0.9640
12384TIP3    H258568   3.516   0.517  11.736 -2.4182  1.0139 -0.3603
12385TIP3   OH258569   1.191   6.220  13.433 -0.8288  0.2955  0.2203
12385TIP3    H158570   1.120   6.279  13.409 -0.4476  0.5947 -0.1819
12385TIP3    H258571   1.260   6.278  13.466 -1.0992 -0.0583  1.4403
12386TIP3   OH258572   2.271   6.710   2.384  0.3455  0.4010 -0.1221
12386TIP3    H158573   2.308   6.767   2.316 -1.5048 -2.5113 -3.7410
12386TIP3    H258574   2.182   6.743   2.398 -0.0637 -0.4077 -0.8049
12387TIP3   OH258575   6.533   6.543   3.523  0.8489  0.5437  0.0260
12387TIP3    H158576   6.452   6.493   3.526  1.1077  0.2209  2.1842
12387TIP3    H258577   6.599   6.485   3.559  1.3575  2.0558  1.5761
12388TIP3   OH258578   0.449   1.686  10.840  0.2562  0.0200 -0.1385
12388TIP3    H158579   0.502   1.642  10.773  0.2300 -0.5097  0.1888
12388TIP3    H258580   0.379   1.623  10.860  0.1906  0.2289  0.2927
12389TIP3   OH258581   1.507   4.537  13.702 -0.7154  0.7607  0.2985
12389TIP3    H158582   1.453   4.600  13.654 -0.4530 -0.4631 -1.7058
12389TIP3    H258583   1.484   4.452  13.663 -1.8717 -0.5483  3.6812
12390TIP3   OH258584   2.378   1.768  16.952  0.4502  0.4700  0.4318
12390TIP3    H158585   2.403   1.676  16.951  0.2590  0.4082 -1.4550
12390TIP3    H258586   2.443   1.810  17.008  0.2199 -0.8841  1.7480
12391TIP3   OH258587   2.135   5.614   1.619  0.1996 -0.2623  0.1044
12391TIP3    H158588   2.077   5.665   1.562 -1.1865  0.5211  2.1584
12391TIP3    H258589   2.186   5.680   1.665  0.6452 -0.8502  0.4524
12392TIP3   OH258590   2.938   5.049   0.263  0.2172  0.6259 -0.2786
12392TIP3    H158591   2.912   5.059   0.171 -1.0019 -0.9121 -0.1387
12392TIP3    H258592   3.033   5.061   0.263  0.0476  2.0968 -1.5054
12393TIP3   OH258593   0.535   4.705   1.233  0.1867  0.1209 -0.0529
12393TIP3    H158594   0.596   4.690   1.161  1.1258 -0.6186  0.8931
12393TIP3    H258595   0.586   4.754   1.297 -0.3372 -0.1350  0.5612
12394TIP3   OH258596   4.767   4.351  13.153  0.1392 -0.0660  0.3143
12394TIP3    H158597   4.818   4.326  13.230 -2.0564 -1.2000  1.4419
12394TIP3    H258598   4.828   4.404  13.101  1.3641  1.6918  3.3497
12395TIP3   OH258599   0.896   1.766   5.304 -0.8223  0.0011  0.2809
12395TIP3    H158600   0.833   1.704   5.340 -1.7308 -0.9910 -2.8380
12395TIP3    H258601   0.848   1.813   5.236  1.1830  0.7999 -0.6355
12396TIP3   OH258602   3.109   2.968  13.130 -1.2096 -0.1349  0.4427
12396TIP3    H158603   3.144   2.880  13.115 -2.1220 -0.1502 -1.6492
12396TIP3    H258604   3.039   2.955  13.194 -1.2935 -0.9274  0.1901
12397TIP3   OH258605   1.107   4.250   3.973  0.1170  0.0372 -0.5521
12397TIP3    H158606   1.202   4.251   3.962  0.2695 -0.3576  0.5730
12397TIP3    H258607   1.090   4.316   4.040 -0.4211  0.2697 -0.9185
12398TIP3   OH258608   0.181   5.613  15.783  0.6044 -0.3437  0.0433
12398TIP3    H158609   0.263   5.563  15.792 -0.1148 -1.6407 -0.5044
12398TIP3    H258610   0.166   5.618  15.689  1.0837  1.6358  0.0484
12399TIP3   OH258611   3.271   1.539   2.545  0.2433  0.1618 -0.5657
12399TIP3    H158612   3.213   1.587   2.487  0.7019  1.2933 -0.0961
12399TIP3    H258613   3.245   1.566   2.633 -1.0146 -2.1838 -0.1807
12400TIP3   OH258614   2.604   5.517  15.909 -0.2688  0.1505 -0.4901
12400TIP3    H158615   2.514   5.487  15.898 -1.3685  2.0407  2.6607
12400TIP3    H258616   2.647   5.495  15.826 -3.4054 -1.4597 -1.7746
12401TIP3   OH258617   5.298   0.072  13.823 -0.3195  0.1919  0.4751
12401TIP3    H158618   5.282   0.097  13.915 -1.0964 -0.3789  0.5037
12401TIP3    H258619   5.366   0.133  13.793  1.0626 -0.6275  1.8834
12402TIP3   OH258620   4.304   3.526   3.238  0.6450 -0.2902  0.6643
12402TIP3    H158621   4.307   3.612   3.279  0.5001  0.0426 -0.0051
12402TIP3    H258622   4.237   3.477   3.286 -1.0672  0.8199 -0.5515
12403TIP3   OH258623   4.642   3.907  12.208  0.2898  0.1780  0.7145
12403TIP3    H158624   4.637   3.905  12.304  3.0962  1.4784  0.9478
12403TIP3    H258625   4.596   3.987  12.184 -1.7229 -0.9118  0.8317
12404TIP3   OH258626   0.624   4.236   5.311 -0.0239 -0.4789  0.7957
12404TIP3    H158627   0.699   4.259   5.256  0.6818 -2.5544  0.8161
12404TIP3    H258628   0.550   4.280   5.271  0.9655  0.4173 -0.0982
12405TIP3   OH258629   3.864   6.041   2.977 -0.1618 -0.3403 -0.1451
12405TIP3    H158630   3.891   6.109   2.914 -0.3319 -0.3104 -0.1866
12405TIP3    H258631   3.931   6.044   3.045  0.0165 -0.3616 -0.3181
12406TIP3   OH258632   5.023   6.693  15.854  0.0374  0.2422  0.3316
12406TIP3    H158633   5.100   6.746  15.876 -1.1007  1.2616  2.0167
12406TIP3    H258634   5.000   6.650  15.936 -1.3472  0.1566 -0.0891
12407TIP3   OH258635   6.675   3.143  11.824  0.0159  0.0097  0.4006
12407TIP3    H158636   6.721   3.061  11.838  2.6864  1.2672 -0.6720
12407TIP3    H258637   6.626   3.130  11.743 -0.9507 -1.0968  1.1575
12408TIP3   OH258638   6.738   1.310   0.376 -0.1797 -0.1264  0.4056
12408TIP3    H158639   6.784   1.234   0.413  1.0383 -0.0863 -0.9854
12408TIP3    H258640   6.652   1.308   0.418  1.1271 -0.0669  3.2242
12409TIP3   OH258641   3.487   4.202  10.714 -0.7592  0.0978  0.4677
12409TIP3    H158642   3.412   4.195  10.772 -0.8863  0.7040  0.3772
12409TIP3    H258643   3.515   4.293  10.721 -1.6595  0.5430 -1.5068
12410TIP3   OH258644   6.085   4.805  12.111  0.3267 -0.1008 -0.5585
12410TIP3    H158645   6.051   4.851  12.034  0.3938 -0.1366 -0.6098
12410TIP3    H258646   6.168   4.768  12.081 -1.0462 -2.6494 -1.3537
12411TIP3   OH258647   3.015   2.860   5.858  0.7734  0.0977  0.2943
12411TIP3    H158648   3.101   2.825   5.883  1.7734  1.9719 -0.3848
12411TIP3    H258649   3.031   2.902   5.773 -1.5122 -2.2228 -1.3452
12412TIP3   OH258650   1.134   5.917   5.696  0.2568  0.2007  0.2589
12412TIP3    H158651   1.207   5.870   5.656 -1.2783 -1.1441 -1.0774
12412TIP3    H258652   1.126   5.879   5.783  0.8967  0.0581  0.2579
12413TIP3   OH258653   3.147   2.465   2.438  0.3491 -0.1917 -0.1532
12413TIP3    H158654   3.057   2.431   2.435  0.6781 -1.5450  2.7852
12413TIP3    H258655   3.142   2.538   2.500  1.6283 -1.6789  1.7783
12414TIP3   OH258656   0.542   6.106   4.325  0.3701  0.7805 -0.2039
12414TIP3    H158657   0.459   6.133   4.285  0.9115  1.7134 -0.6961
12414TIP3    H258658   0.609   6.139   4.267  1.1141  0.3759  0.4114
12415TIP3   OH258659   1.770   0.532   5.058 -0.5053 -0.2121  0.3224
12415TIP3    H158660   1.770   0.506   4.966 -0.4259 -1.4773  0.6591
12415TIP3    H258661   1.752   0.626   5.058  0.3306 -0.0429 -1.0263
12416TIP3   OH258662   5.846   0.950   2.553  0.1159 -0.0131  0.1304
12416TIP3    H158663   5.941   0.949   2.568  0.1472 -1.3267 -0.1432
12416TIP3    H258664   5.819   0.859   2.558 -1.6250  0.5835  3.0279
12417TIP3   OH258665   3.068   1.898   4.396  0.1978  0.1478  0.5474
12417TIP3    H158666   3.113   1.952   4.331  0.7752  1.0967  1.6974
12417TIP3    H258667   3.139   1.863   4.450 -0.3047 -0.1456  1.0175
12418TIP3   OH258668   3.137   5.279  15.068  0.1380 -0.6371 -0.3391
12418TIP3    H158669   3.196   5.351  15.048  0.9127 -0.4578  2.3854
12418TIP3    H258670   3.193   5.212  15.106 -1.2799 -0.7859  1.5443
12419TIP3   OH258671   0.268   3.672  11.580  0.5819 -0.0991  0.0800
12419TIP3    H158672   0.271   3.767  11.570 -0.3574  0.1803  2.2222
12419TIP3    H258673   0.198   3.657  11.644 -0.4700 -2.3486 -1.5465
12420TIP3   OH258674   6.428   5.123  15.008 -0.2277 -1.0019  0.5029
12420TIP3    H158675   6.523   5.121  15.012 -0.1592  1.1530  0.3511
12420TIP3    H258676   6.403   5.190  15.072 -1.6281 -1.2994  0.2820
12421TIP3   OH258677   2.466   3.389  12.981  0.4936  0.1368  0.6042
12421TIP3    H158678   2.552   3.349  12.967  0.6203  0.4244  0.5602
12421TIP3    H258679   2.482   3.456  13.048  0.1010 -0.5067  1.3374
12422TIP3   OH258680   2.392   1.461  11.466  0.4875  0.0119  0.6331
12422TIP3    H158681   2.440   1.414  11.398  0.4872  2.9948 -1.5698
12422TIP3    H258682   2.303   1.470  11.432 -0.1777 -0.5713  2.1486
12423TIP3   OH258683   3.860   3.767   6.900  0.1772  0.4963 -0.1241
12423TIP3    H158684   3.766   3.753   6.904  0.3021 -0.5368 -0.5345
12423TIP3    H258685   3.874   3.825   6.825 -0.0580 -0.0488 -0.5894
12424TIP3   OH258686   0.709   2.041   6.543  0.0897 -0.1280  0.6556
12424TIP3    H158687   0.686   1.961   6.591 -1.9872  0.1545  0.1481
12424TIP3    H258688   0.633   2.060   6.489  1.3290  1.1163 -0.7063
12425TIP3   OH258689   2.507   5.647   5.802 -0.2847 -0.5499 -0.1724
12425TIP3    H158690   2.570   5.661   5.872  1.6331  1.5330 -2.2340
12425TIP3    H258691   2.426   5.686   5.834 -0.1190 -1.7820  1.8280
12426TIP3   OH258692   1.941   6.099  16.603  0.6066 -0.0020  0.2722
12426TIP3    H158693   1.905   6.142  16.525 -2.3082 -2.2843  0.3178
12426TIP3    H258694   2.029   6.072  16.576  0.3648  0.9488 -1.5617
12427TIP3   OH258695   6.157   6.071   2.011 -0.5539  0.2466  0.7529
12427TIP3    H158696   6.232   6.125   1.986  0.2974 -1.0488  0.4340
12427TIP3    H258697   6.182   5.982   1.984 -2.1266 -0.2283  0.8174
12428TIP3   OH258698   2.392   4.430   1.755  0.4946 -0.3114  0.2251
12428TIP3    H158699   2.468   4.483   1.732  0.3645 -0.0891  0.3062
12428TIP3    H258700   2.429   4.358   1.807  0.4512  0.7749  1.8086
12429TIP3   OH258701   0.366   5.345  13.259 -0.0435 -0.2029  0.0677
12429TIP3    H158702   0.418   5.425  13.265  0.6900 -0.6445 -0.3623
12429TIP3    H258703   0.307   5.360  13.185  0.3254 -0.1901 -0.2256
12430TIP3   OH258704   5.016   2.669   2.692 -0.6179  0.1762  0.2580
12430TIP3    H158705   4.988   2.606   2.758  3.6264 -0.3415  1.6881
12430TIP3    H258706   5.071   2.619   2.632 -0.0216  1.7748 -0.5673
12431TIP3   OH258707   2.911   2.152  16.480  0.4176  0.0512  0.0135
12431TIP3    H158708   2.869   2.105  16.408 -1.6303 -0.1388  1.2967
12431TIP3    H258709   2.884   2.104  16.559  2.9287  0.0250  0.9109
12432TIP3   OH258710   1.744   2.581   2.105  0.0223 -0.3812 -0.3837
12432TIP3    H158711   1.818   2.527   2.131 -1.2228 -1.8064  0.3058
12432TIP3    H258712   1.700   2.531   2.036  0.5352  1.1463 -1.8506
12433TIP3   OH258713   0.134   0.062  16.847  0.3764 -0.0563  0.8711
12433TIP3    H158714   0.205  -0.002  16.837 -1.1709 -1.2365 -3.6138
12433TIP3    H258715   0.054   0.010  16.844 -0.8403  1.8449 -0.7930
12434TIP3   OH258716   1.651   4.042  12.298 -0.0692  0.7913  0.4037
12434TIP3    H158717   1.625   4.071  12.210 -1.8662  2.0201  1.3207
12434TIP3    H258718   1.594   3.968  12.317 -1.2113  1.9218  1.4159
12435TIP3   OH258719   5.632   0.666  13.211 -0.3740  0.3647  0.2857
12435TIP3    H158720   5.622   0.647  13.118  0.6644  1.8615 -0.1439
12435TIP3    H258721   5.653   0.759  13.215  0.9383  0.0252  1.9227
12436TIP3   OH258722   2.279   6.337  11.562 -0.0234 -0.2490  0.1500
12436TIP3    H158723   2.191   6.336  11.599 -0.5688  1.5884 -1.0640
12436TIP3    H258724   2.271   6.389  11.482  1.9851 -0.7869 -0.4291
12437TIP3   OH258725   0.516   1.840   1.545 -0.2512 -0.0013 -0.5776
12437TIP3    H158726   0.579   1.793   1.600 -2.1465 -0.8352  0.9603
12437TIP3    H258727   0.524   1.931   1.572  2.0855  0.3146 -2.2126
12438TIP3   OH258728   2.082   3.506   1.477  0.1545 -0.4104 -0.4617
12438TIP3    H158729   2.163   3.459   1.498  0.6691  1.1483  1.2073
12438TIP3    H258730   2.094   3.593   1.517 -1.0820  0.8780 -2.7712
12439TIP3   OH258731   5.839   4.396  12.218  0.7675  0.1823  0.2030
12439TIP3    H158732   5.851   4.491  12.218  0.8337  0.1739  0.5986
12439TIP3    H258733   5.921   4.361  12.181  2.0844  0.1181  3.0551
12440TIP3   OH258734   1.404   1.151  11.534  0.1748 -0.5020 -0.0192
12440TIP3    H158735   1.455   1.141  11.454  0.6241 -0.2914  0.2456
12440TIP3    H258736   1.416   1.068  11.580 -1.1188 -1.1323 -0.7661
12441TIP3   OH258737   6.092   2.352   4.897 -0.3108 -0.1469 -0.1157
12441TIP3    H158738   6.024   2.419   4.887 -0.1495  0.0943  0.4139
12441TIP3    H258739   6.154   2.390   4.959 -1.1104 -1.4701  1.5508
12442TIP3   OH258740   4.210   6.218  12.307 -0.0699  0.1680 -0.0081
12442TIP3    H158741   4.194   6.295  12.361  0.3059  1.7054 -2.0662
12442TIP3    H258742   4.305   6.212  12.300  0.0677 -2.2687  2.5933
12443TIP3   OH258743   5.914   4.616  14.266 -0.1374  0.2474 -0.2897
12443TIP3    H158744   5.841   4.593  14.208 -0.5995  0.3404  0.2503
12443TIP3    H258745   5.915   4.712  14.266  0.4719  0.2438 -0.8982
12444TIP3   OH258746   5.580   5.411  13.727  0.0344 -0.8816  0.1845
12444TIP3    H158747   5.504   5.453  13.689  1.5734  0.9354 -0.9814
12444TIP3    H258748   5.625   5.370  13.653  1.2188 -0.2590  0.5374
12445TIP3   OH258749   5.589   6.772  13.728 -0.1233 -0.3245 -0.1132
12445TIP3    H158750   5.602   6.842  13.791 -0.9548 -0.0902 -0.1875
12445TIP3    H258751   5.676   6.756  13.690  0.2594 -0.0578  0.6509
12446TIP3   OH258752   2.548   3.542  15.764  0.1030 -0.1472 -0.5278
12446TIP3    H158753   2.550   3.457  15.808  0.9533  0.1578  0.0451
12446TIP3    H258754   2.538   3.522  15.671 -0.3285 -0.8501 -0.3309
12447TIP3   OH258755   0.673   1.469  15.393 -0.7620  0.1321  1.1555
12447TIP3    H158756   0.641   1.379  15.398 -2.0693  0.5883  1.1534
12447TIP3    H258757   0.633   1.513  15.467 -1.6359  1.1704  0.0752
12448TIP3   OH258758   0.031   4.801   5.667  0.3781 -0.6101 -0.1493
12448TIP3    H158759  -0.007   4.845   5.744 -0.7829  0.6209 -1.4048
12448TIP3    H258760  -0.044   4.785   5.609  1.3898 -0.6779 -1.4474
12449TIP3   OH258761   6.215   4.811   5.396  0.4798  0.2941  0.0813
12449TIP3    H158762   6.216   4.823   5.491 -0.3337 -1.4003  0.3028
12449TIP3    H258763   6.141   4.865   5.366 -0.7969 -1.0943  0.6793
12450TIP3   OH258764   1.850   3.955  15.364  0.0784  0.3974  0.1737
12450TIP3    H158765   1.817   4.044  15.375 -0.9699  0.0490 -0.1371
12450TIP3    H258766   1.945   3.965  15.367  0.0369  1.8040 -1.8427
12451TIP3   OH258767   1.923   0.529   3.179  0.5564  0.3554 -0.3879
12451TIP3    H158768   1.895   0.616   3.149 -0.1373 -0.3094 -1.7422
12451TIP3    H258769   2.015   0.523   3.151  0.7633  0.8535  0.1765
12452TIP3   OH258770   6.204   4.152  16.895  0.8357  0.0831  0.1143
12452TIP3    H158771   6.147   4.076  16.894  0.6770  0.1529  2.2826
12452TIP3    H258772   6.145   4.227  16.895  0.9734  0.1940 -0.2743
12453TIP3   OH258773   0.455   4.397   5.192 -0.0596 -0.4558 -0.1626
12453TIP3    H158774   0.436   4.439   5.108  1.4754  1.7472  0.5367
12453TIP3    H258775   0.426   4.462   5.257  1.6518 -0.7998  0.9537
12454TIP3   OH258776   1.995   3.592   3.298  0.3377  0.0608  0.7558
12454TIP3    H158777   2.046   3.535   3.242  0.1569 -0.0036  0.6552
12454TIP3    H258778   2.015   3.680   3.267  0.7920  0.0610  1.0617
12455TIP3   OH258779   4.108   4.106   4.993  0.3303  0.2785 -0.3722
12455TIP3    H158780   4.138   4.100   5.084 -1.4999 -0.9139  0.1822
12455TIP3    H258781   4.053   4.185   4.992 -0.4959 -0.2937 -0.1865
12456TIP3   OH258782   4.183   4.021  13.634  0.7325 -0.6513 -0.7891
12456TIP3    H158783   4.126   3.947  13.656  0.5130 -0.5721 -1.0823
12456TIP3    H258784   4.145   4.095  13.681  2.0045 -1.0909  0.9590
12457TIP3   OH258785   1.580   2.436   5.460 -0.2093  0.4332 -0.2951
12457TIP3    H158786   1.531   2.354   5.473  3.3430 -1.7607 -0.2189
12457TIP3    H258787   1.577   2.479   5.546 -2.0362  0.3762 -0.3114
12458TIP3   OH258788   1.302   3.078  13.742 -0.1741 -0.3302 -0.0291
12458TIP3    H158789   1.330   3.017  13.811 -1.1659 -0.2427  0.4513
12458TIP3    H258790   1.299   3.163  13.785 -2.0201 -0.4739  0.1528
12459TIP3   OH258791   3.241   2.028   5.886  0.2114 -0.0569 -0.2311
12459TIP3    H158792   3.271   2.039   5.976  0.6183 -0.9446 -0.2571
12459TIP3    H258793   3.261   1.937   5.865  0.5991  0.3016 -1.4005
12460TIP3   OH258794   2.460   1.180   4.917  0.0279  0.2286  0.9578
12460TIP3    H158795   2.457   1.111   4.984 -0.8585 -0.4483  0.2413
12460TIP3    H258796   2.546   1.171   4.877 -0.1755 -0.6336  0.7019
12461TIP3   OH258797   5.700   3.236   5.233  0.3673  0.3385 -0.2945
12461TIP3    H158798   5.702   3.142   5.251  0.8077  0.4355  0.1757
12461TIP3    H258799   5.785   3.268   5.262  0.3057  0.8477 -0.6660
12462TIP3   OH258800   3.845   4.620  11.108  0.0658  0.5170  0.4654
12462TIP3    H158801   3.750   4.624  11.099 -0.0879 -2.3486  0.2423
12462TIP3    H258802   3.872   4.554  11.045  1.9261 -0.5663  2.3207
12463TIP3   OH258803   0.502   5.051   1.325 -0.1485 -0.5829 -0.0567
12463TIP3    H158804   0.510   5.129   1.380  0.1928  0.6759 -1.8457
12463TIP3    H258805   0.428   5.002   1.363  0.1675  0.1849  1.5752
12464TIP3   OH258806   0.189   1.861   1.699  0.2628  0.2188 -0.0301
12464TIP3    H158807   0.236   1.816   1.629 -1.7493 -1.2320 -0.4936
12464TIP3    H258808   0.202   1.954   1.681  1.3981 -0.1607 -1.2047
12465TIP3   OH258809   1.603   1.553   2.505  0.3387 -0.9674  0.1865
12465TIP3    H158810   1.598   1.595   2.591  0.5833 -1.5137  0.4711
12465TIP3    H258811   1.624   1.462   2.524 -0.5620 -1.3035 -0.4027
12466TIP3   OH258812   4.814   2.245  14.611 -0.5194 -0.4421 -0.0727
12466TIP3    H158813   4.796   2.178  14.676  0.9614 -0.3283  0.4733
12466TIP3    H258814   4.770   2.323  14.643 -1.9712 -1.0543 -0.5430
12467TIP3   OH258815   0.162   5.883  11.122  0.9418 -0.0578 -0.1311
12467TIP3    H158816   0.133   5.936  11.047 -0.0252 -0.9749 -0.4212
12467TIP3    H258817   0.224   5.821  11.084  0.4831 -0.4956 -0.1692
12468TIP3   OH258818   1.494   0.597   5.633  0.4063  0.5196  0.1253
12468TIP3    H158819   1.408   0.597   5.674  0.3277 -1.2554  0.0090
12468TIP3    H258820   1.528   0.685   5.649 -1.3893  1.2231  0.2292
12469TIP3   OH258821   5.537   6.590   5.740  0.2268 -0.0428  0.6299
12469TIP3    H158822   5.487   6.638   5.806 -1.2535 -0.8089  0.0823
12469TIP3    H258823   5.618   6.640   5.730 -1.5834  2.7857 -0.5001
12470TIP3   OH258824   5.099   6.056  16.021  0.4627 -0.7536  0.2114
12470TIP3    H158825   5.105   6.102  16.105 -0.2430  1.6334 -1.0176
12470TIP3    H258826   5.018   6.005  16.027 -1.0232  1.5232 -0.0176
12471TIP3   OH258827   5.243   2.873  11.781 -0.4563 -0.4107  0.1418
12471TIP3    H158828   5.163   2.906  11.740 -0.2377 -0.3233 -0.2234
12471TIP3    H258829   5.308   2.874  11.710 -0.0611 -0.2187  0.5016
12472TIP3   OH258830   6.174   3.143   0.702  0.1731  0.1390  0.3788
12472TIP3    H158831   6.080   3.135   0.718  0.3763 -0.9354  1.0402
12472TIP3    H258832   6.205   3.054   0.690  0.8702  0.5856 -1.3434
12473TIP3   OH258833   1.484   5.987  11.317  0.2232  0.1058  0.4196
12473TIP3    H158834   1.578   5.972  11.306  0.1885  1.3340 -1.7969
12473TIP3    H258835   1.464   5.953  11.404  2.4869 -1.2907  0.4268
12474TIP3   OH258836   1.793   5.779  14.449 -0.0097  0.5138  0.0298
12474TIP3    H158837   1.726   5.777  14.380  0.8177 -0.2768 -0.7736
12474TIP3    H258838   1.799   5.871  14.474 -1.0062  0.6714 -0.2719
12475TIP3   OH258839   2.372   3.748   4.280  0.6882 -0.0411  0.4383
12475TIP3    H158840   2.439   3.710   4.224 -0.4155 -0.4587 -0.6164
12475TIP3    H258841   2.306   3.783   4.220  0.1093  0.6589  1.4460
12476TIP3   OH258842   0.108   2.930   4.419 -0.1981  0.0804  0.2894
12476TIP3    H158843   0.046   2.873   4.373  0.8831  0.9550 -2.3727
12476TIP3    H258844   0.061   3.013   4.429 -0.3170 -0.0044  0.4292
12477TIP3   OH258845   4.116   4.996   3.175  0.3597  0.7965 -0.1670
12477TIP3    H158846   4.128   4.953   3.090  1.9114 -0.0267  0.4464
12477TIP3    H258847   4.021   4.996   3.189  0.1307  0.4550 -1.6573
12478TIP3   OH258848   6.326   6.603  10.143 -0.2596  0.0924  0.0751
12478TIP3    H158849   6.271   6.626  10.218  0.5024  1.7669  0.1411
12478TIP3    H258850   6.285   6.649  10.069  0.7668  0.9871  0.0440
12479TIP3   OH258851   0.528   6.589   4.582  0.8381 -0.0718 -0.0089
12479TIP3    H158852   0.463   6.629   4.525  1.0821 -0.0148 -0.2494
12479TIP3    H258853   0.570   6.664   4.626  1.2011 -0.0738 -0.3566
12480TIP3   OH258854   4.818   5.951   5.553 -0.3636  0.5787 -0.2262
12480TIP3    H158855   4.763   5.911   5.620 -0.5519  1.3048  0.0526
12480TIP3    H258856   4.791   6.043   5.550  0.8022  0.9402 -0.0967
12481TIP3   OH258857   0.937   4.428  13.208  0.4535  0.4846  0.2270
12481TIP3    H158858   0.936   4.486  13.132 -0.8005 -0.2870 -0.3535
12481TIP3    H258859   0.926   4.340  13.172  1.7536 -0.0778  1.1545
12482TIP3   OH258860   3.157   5.323   4.095 -0.0608  0.1090  0.1832
12482TIP3    H158861   3.237   5.342   4.047 -0.4100  0.3790 -0.3050
12482TIP3    H258862   3.098   5.287   4.029 -0.8881  1.4147  0.1781
12483TIP3   OH258863   1.793   5.362   5.485  0.0641 -0.2298 -0.5246
12483TIP3    H158864   1.868   5.406   5.523  1.5466 -0.7937 -2.6996
12483TIP3    H258865   1.718   5.416   5.511  0.9155 -0.7787  3.3644
12484TIP3   OH258866   0.706   2.531  12.530  0.3003 -0.0780 -0.7935
12484TIP3    H158867   0.691   2.450  12.480  2.0749 -0.1540 -1.2320
12484TIP3    H258868   0.796   2.523  12.561 -0.1839  0.8174  0.8883
12485TIP3   OH258869   4.844   3.344  11.172  0.0542  0.0523  0.3783
12485TIP3    H158870   4.796   3.264  11.154  1.9093 -0.9836 -0.1027
12485TIP3    H258871   4.901   3.356  11.095  0.0470  1.6463  0.5907
12486TIP3   OH258872   5.491   5.801   5.061  0.0353 -0.4065 -0.4282
12486TIP3    H158873   5.450   5.884   5.085  0.8316  0.3696 -1.6794
12486TIP3    H258874   5.509   5.759   5.145  1.7122  1.7277  0.3404
12487TIP3   OH258875   1.470   6.009   1.800 -0.3452 -0.5188  0.1332
12487TIP3    H158876   1.444   6.062   1.724 -1.3683 -2.0731 -0.6101
12487TIP3    H258877   1.543   6.058   1.838  0.5636  0.0014 -2.1848
12488TIP3   OH258878   2.583   2.479   1.415 -0.2251  0.1390  0.4528
12488TIP3    H158879   2.488   2.478   1.404 -0.2640  1.6244  0.6189
12488TIP3    H258880   2.614   2.543   1.351  0.9517 -2.3927 -1.6154
12489TIP3   OH258881   5.764   1.766   3.462  0.1064  0.0791 -0.5529
12489TIP3    H158882   5.766   1.679   3.501 -0.1597  0.9479  1.4968
12489TIP3    H258883   5.692   1.811   3.508  0.7662  1.6200 -0.9917
12490TIP3   OH258884   2.306   0.325  14.426  0.4181 -0.7330  0.4743
12490TIP3    H158885   2.289   0.244  14.377 -0.3944 -1.0186  1.2203
12490TIP3    H258886   2.260   0.393  14.376 -0.1623 -0.9781  0.6616
12491TIP3   OH258887   0.483   5.220   2.582  0.3859  0.2729  0.0135
12491TIP3    H158888   0.396   5.224   2.543  0.9250  0.1433 -1.2285
12491TIP3    H258889   0.521   5.138   2.549  0.8673  0.1957  0.7589
12492TIP3   OH258890   0.288   0.595   2.311 -0.0603  0.0522 -0.8765
12492TIP3    H158891   0.233   0.660   2.267 -0.3372 -0.0286 -0.6567
12492TIP3    H258892   0.342   0.558   2.242 -0.6549 -0.2412 -1.1872
12493TIP3   OH258893   3.876   5.103   1.993 -0.3158 -0.3454  0.2507
12493TIP3    H158894   3.865   5.174   2.057 -1.7364 -0.7504  0.4540
12493TIP3    H258895   3.788   5.083   1.963  0.1244 -1.7550 -0.1188
12494TIP3   OH258896   6.156   5.621  14.107 -0.5464 -0.0552  0.2143
12494TIP3    H158897   6.130   5.664  14.188 -0.5550 -1.0063  0.7174
12494TIP3    H258898   6.193   5.537  14.134  0.6230  0.1478 -0.6717
12495TIP3   OH258899   6.361   1.125   5.253 -0.3635  0.0940  0.2844
12495TIP3    H158900   6.366   1.135   5.157  0.7565 -0.4460  0.2798
12495TIP3    H258901   6.312   1.044   5.266  0.3033 -0.3397  0.1429
12496TIP3   OH258902   4.723   3.420   4.609  0.3814  0.0512  0.6540
12496TIP3    H158903   4.692   3.489   4.668  1.2538 -0.3745  1.6302
12496TIP3    H258904   4.733   3.343   4.666 -1.5342 -1.1598 -0.6039
12497TIP3   OH258905   1.333   5.463  15.146 -0.3133 -0.0391 -0.1402
12497TIP3    H158906   1.269   5.514  15.095  0.7868 -1.4779 -3.0405
12497TIP3    H258907   1.307   5.372  15.133  1.1373 -0.5289  0.3143
12498TIP3   OH258908   0.870   1.239  10.878  0.5039 -0.3868 -0.5644
12498TIP3    H158909   0.816   1.307  10.837  1.6194  0.5216 -0.5397
12498TIP3    H258910   0.813   1.162  10.879 -0.8900  0.6035 -0.3549
12499TIP3   OH258911   1.527   1.433  13.953 -0.3805 -0.5316 -0.1356
12499TIP3    H158912   1.615   1.451  13.920 -0.0239 -0.7304  0.7088
12499TIP3    H258913   1.470   1.456  13.880  0.3440 -0.0239 -0.5564
12500TIP3   OH258914   1.021   1.438   3.967  0.4681  0.7552  0.8019
12500TIP3    H158915   1.025   1.423   3.872  2.4557  1.5609  0.7181
12500TIP3    H258916   1.084   1.376   4.003 -1.6234 -0.8349  1.7988
12501TIP3   OH258917   2.518   6.215   3.242  0.1620 -0.2638  0.2853
12501TIP3    H158918   2.461   6.276   3.193 -0.4069 -1.6518 -0.7984
12501TIP3    H258919   2.601   6.262   3.251 -0.5508  1.0440  0.2697
12502TIP3   OH258920   4.042   0.306  16.190 -0.0529  0.1008  0.5838
12502TIP3    H158921   4.023   0.345  16.275  0.6454 -0.2027  0.8867
12502TIP3    H258922   4.013   0.215  16.199 -0.9333  0.3382  0.1457
12503TIP3   OH258923   0.186   6.592   4.619  0.0954  0.2956 -0.1238
12503TIP3    H158924   0.231   6.546   4.690  1.9421  2.2870  0.0583
12503TIP3    H258925   0.187   6.531   4.546  0.2734 -0.8860  0.8515
12504TIP3   OH258926   5.606   2.852  11.996  0.8016  0.6061  0.3581
12504TIP3    H158927   5.686   2.824  12.041  0.4072  0.0016  0.6948
12504TIP3    H258928   5.599   2.792  11.921 -0.6636 -0.9688  1.7215
12505TIP3   OH258929   0.199   1.641   3.446 -0.0735 -0.3001 -0.2942
12505TIP3    H158930   0.126   1.703   3.446 -0.3927 -0.6660  1.2169
12505TIP3    H258931   0.271   1.687   3.487 -0.8307 -1.4781  2.4997
12506TIP3   OH258932   6.599   4.441   1.707  0.0458  0.0794 -0.6260
12506TIP3    H158933   6.613   4.348   1.725 -1.9342 -0.6121 -2.5464
12506TIP3    H258934   6.603   4.482   1.793  0.7516 -1.7932  0.2696
12507TIP3   OH258935   6.705   1.478   4.010  0.0854  0.1666  0.1670
12507TIP3    H158936   6.735   1.556   4.058 -0.8526 -0.9365  2.6543
12507TIP3    H258937   6.786   1.435   3.983  0.8741 -1.4158  4.5607
12508TIP3   OH258938   1.088   6.444  10.774  0.1894 -0.3381 -0.3522
12508TIP3    H158939   0.994   6.429  10.765  0.2106 -0.6808 -0.0070
12508TIP3    H258940   1.095   6.535  10.802 -0.0004 -0.0643 -1.1736
12509TIP3   OH258941   4.324   5.862   3.264  0.2856  0.0728  0.3473
12509TIP3    H158942   4.365   5.824   3.342  0.4996 -0.4616 -0.0256
12509TIP3    H258943   4.291   5.787   3.215  0.2695  0.3995 -0.1443
12510TIP3   OH258944   0.443   4.079  16.878  0.5155 -0.3403 -0.5987
12510TIP3    H158945   0.403   4.136  16.813 -1.4896  0.5869  1.3682
12510TIP3    H258946   0.497   4.137  16.931  1.5093 -0.9556 -0.9086
12511TIP3   OH258947   0.099   5.228  12.165 -0.1817  0.0687 -0.0204
12511TIP3    H158948   0.070   5.313  12.132 -1.1923 -0.2815 -0.0723
12511TIP3    H258949   0.193   5.225  12.147 -0.2090  1.0300 -0.3311
12512TIP3   OH258950   5.605   4.951  11.199  0.4161 -0.4472 -0.0181
12512TIP3    H158951   5.561   5.033  11.179 -0.9374 -1.3516 -0.8750
12512TIP3    H258952   5.689   4.956  11.153 -0.2853 -0.1492 -1.2666
12513TIP3   OH258953   5.939   2.639   2.137  0.0692  0.2426  0.3231
12513TIP3    H158954   5.989   2.574   2.187  2.0631  0.1943 -1.6572
12513TIP3    H258955   5.849   2.606   2.139  0.5386 -1.0167  1.8229
12514TIP3   OH258956   5.848   4.626   0.352  0.3451 -0.3665 -0.2428
12514TIP3    H158957   5.908   4.636   0.278  0.8242  1.5967  0.3972
12514TIP3    H258958   5.904   4.616   0.428 -0.1208  0.9799  0.2958
12515TIP3   OH258959   3.055   3.766  14.941  0.2588  0.0039  0.0863
12515TIP3    H158960   3.033   3.779  14.848  0.6726  0.3125  0.0295
12515TIP3    H258961   3.041   3.851  14.981 -3.2970 -0.9524  1.0207
12516TIP3   OH258962   3.057   6.194  12.774  0.4553  1.0421  0.4791
12516TIP3    H158963   3.116   6.264  12.749  1.4104 -0.9705 -3.2881
12516TIP3    H258964   3.000   6.182  12.697 -0.5555 -1.3816  1.5598
12517TIP3   OH258965   6.031   0.335   2.196 -0.1104 -0.2984 -0.2395
12517TIP3    H158966   6.048   0.332   2.102  0.8562  0.1976 -0.0881
12517TIP3    H258967   5.942   0.370   2.203  0.2318  0.7500 -0.9458
12518TIP3   OH258968   4.273   5.447  14.115 -0.0159  0.3163 -0.4286
12518TIP3    H158969   4.228   5.528  14.089 -1.0192  0.4875  1.7796
12518TIP3    H258970   4.214   5.377  14.088 -1.2848  0.5118  1.7481
12519TIP3   OH258971   5.850   1.623   0.895 -0.2936  0.2600  0.2808
12519TIP3    H158972   5.818   1.555   0.837 -0.1790  1.3894 -1.1170
12519TIP3    H258973   5.836   1.588   0.983 -2.1331 -0.6938 -0.3737
12520TIP3   OH258974   5.430   6.277  16.850  0.4124 -0.4952 -0.4815
12520TIP3    H158975   5.520   6.281  16.818  0.8049 -1.9684  0.3751
12520TIP3    H258976   5.439   6.272  16.945 -0.5388 -1.9326 -0.4646
12521TIP3   OH258977   2.786   4.390  16.770 -0.3179 -0.5648  0.7447
12521TIP3    H158978   2.831   4.466  16.809  0.8662 -1.0212  0.2621
12521TIP3    H258979   2.778   4.328  16.843  2.6488 -1.7587  0.0777
12522TIP3   OH258980   0.197   2.779  15.549 -0.3911 -0.6865 -0.0614
12522TIP3    H158981   0.170   2.870  15.534 -0.1624 -0.4654  0.8327
12522TIP3    H258982   0.181   2.735  15.465 -2.0760 -0.1972 -0.0188
12523TIP3   OH258983   2.575   4.269   1.891  0.4843 -0.1470 -0.3412
12523TIP3    H158984   2.487   4.235   1.909  0.0861  0.2081 -1.5617
12523TIP3    H258985   2.615   4.202   1.835  0.9429 -0.2314  0.0820
12524TIP3   OH258986   0.123   6.593   3.034 -0.3812 -0.2000  0.2781
12524TIP3    H158987   0.189   6.643   3.081 -0.7997 -0.1250  0.7804
12524TIP3    H258988   0.040   6.620   3.072 -0.7600  0.2447 -0.8550
12525TIP3   OH258989   1.835   5.311  16.302 -0.1103 -0.5101 -0.2803
12525TIP3    H158990   1.859   5.397  16.268  0.1559 -0.3206  0.3836
12525TIP3    H258991   1.739   5.311  16.302 -0.1362  0.3235  1.0262
12526TIP3   OH258992   0.874   4.333  13.617 -0.5277  0.0050  0.1667
12526TIP3    H158993   0.796   4.329  13.562  0.5520 -0.6507 -1.3551
12526TIP3    H258994   0.846   4.380  13.696 -2.0815  1.0366 -0.9749
12527TIP3   OH258995   6.701   1.473  11.620  0.0810  0.1378 -0.8105
12527TIP3    H158996   6.758   1.519  11.558  1.6198 -1.1197 -0.3651
12527TIP3    H258997   6.624   1.449  11.569 -0.5114  2.6963 -1.1813
12528TIP3   OH258998   4.900   6.045  17.134 -0.0918 -0.4048  0.3627
12528TIP3    H158999   4.837   6.098  17.084 -0.5169 -1.9227 -0.7432
12528TIP3    H259000   4.868   6.049  17.224 -0.7787  0.2657  0.0917
12529TIP3   OH259001   1.533   3.281  12.297 -0.5744 -0.1281 -0.0430
12529TIP3    H159002   1.478   3.224  12.350  0.0155  0.2259  0.9452
12529TIP3    H259003   1.615   3.232  12.285 -0.6458 -0.1430 -0.5044
12530TIP3   OH259004   4.600   6.171  12.969  0.1490  0.3138 -0.2577
12530TIP3    H159005   4.627   6.235  12.904 -0.8281  0.6706 -0.3214
12530TIP3    H259006   4.678   6.155  13.021  0.0271  2.6695  0.6975
12531TIP3   OH259007   6.595   1.784  15.216  0.0339 -0.0664  0.5151
12531TIP3    H159008   6.526   1.848  15.204  0.5025  0.6809  1.7279
12531TIP3    H259009   6.549   1.703  15.239 -0.4634  0.3437  0.9808
12532TIP3   OH259010   3.270   3.661  12.550 -0.3542  0.6646 -0.1709
12532TIP3    H159011   3.194   3.714  12.575  0.2563  1.0076  0.9971
12532TIP3    H259012   3.344   3.708  12.587  0.2307 -0.8363  0.5856
12533TIP3   OH259013   4.414   3.866  15.121  0.3769 -0.5419  0.2863
12533TIP3    H159014   4.485   3.903  15.068 -0.2318 -0.5315 -0.5305
12533TIP3    H259015   4.405   3.926  15.195  1.9168 -1.1070  0.9496
12534TIP3   OH259016   0.030   4.587   4.806 -0.2981  0.4322  0.4145
12534TIP3    H159017   0.111   4.607   4.759 -1.1491 -0.3242 -1.4534
12534TIP3    H259018   0.014   4.494   4.788 -1.3289  0.4547  1.1534
12535TIP3   OH259019   2.718   0.385   3.601  0.1160  0.2175 -0.1080
12535TIP3    H159020   2.686   0.459   3.549  1.5452 -0.3490 -1.8556
12535TIP3    H259021   2.748   0.321   3.536  0.7019 -1.0879  1.4063
12536TIP3   OH259022   1.342   1.364   5.383 -0.1419  0.5907 -0.0816
12536TIP3    H159023   1.291   1.386   5.461  1.6198  0.2380  1.2033
12536TIP3    H259024   1.350   1.269   5.385  0.3534  0.6184 -0.4004
12537TIP3   OH259025   6.092   6.606  15.220 -0.2169 -0.0839  0.3272
12537TIP3    H159026   6.088   6.691  15.264  1.1551  0.0781  0.1547
12537TIP3    H259027   6.178   6.572  15.242 -0.1251 -0.6994 -0.9555
12538TIP3   OH259028   5.028   2.193   1.274  0.0712  1.0460  0.1116
12538TIP3    H159029   5.024   2.281   1.238 -2.3610  1.7201  1.8775
12538TIP3    H259030   4.996   2.136   1.204  3.2147  1.3231 -1.6103
12539TIP3   OH259031   0.897   0.698  16.509 -0.3041 -0.1846 -0.0979
12539TIP3    H159032   0.855   0.691  16.423  2.3274  0.9756 -1.5363
12539TIP3    H259033   0.873   0.786  16.540  0.8652  0.4119 -0.8421
12540TIP3   OH259034   5.364   0.496  12.423 -0.4612  0.1963 -0.2467
12540TIP3    H159035   5.409   0.546  12.356  0.6867 -0.9287 -0.3404
12540TIP3    H259036   5.349   0.410  12.383 -1.1354  0.0108  0.3914
12541TIP3   OH259037   4.398   0.539   0.141 -0.1913 -0.3147  0.8760
12541TIP3    H159038   4.386   0.502   0.228  0.2468 -1.0039  0.6530
12541TIP3    H259039   4.317   0.585   0.122 -0.0536  0.3396  1.8892
12542TIP3   OH259040   4.799   0.022  13.838 -0.0031 -0.2249  0.4084
12542TIP3    H159041   4.772   0.021  13.930 -1.1325 -1.5205  0.0677
12542TIP3    H259042   4.771  -0.062  13.803  1.7854 -0.3668 -0.7414
12543TIP3   OH259043   5.123   4.802  14.363 -0.6855  0.6899  0.4153
12543TIP3    H159044   5.045   4.845  14.397  0.0030  0.4088  2.3787
12543TIP3    H259045   5.105   4.708  14.371  0.6682  0.5977  2.8809
12544TIP3   OH259046   2.144   2.577   0.909  0.0692 -0.2622 -0.1648
12544TIP3    H159047   2.179   2.636   0.976 -1.1326  0.1114  0.1399
12544TIP3    H259048   2.127   2.634   0.834  0.1644 -0.4575 -0.3353
12545TIP3   OH259049   3.293   5.989   1.590  0.3675 -0.1022  0.4311
12545TIP3    H159050   3.285   5.895   1.604  1.7405 -0.4169 -0.7689
12545TIP3    H259051   3.377   6.000   1.546 -0.2412  1.5801 -0.3776
12546TIP3   OH259052   6.131   1.477   6.359  0.3753 -0.0108 -0.3359
12546TIP3    H159053   6.193   1.420   6.405  0.4997  1.2317  1.1153
12546TIP3    H259054   6.045   1.451   6.393  0.3738  0.1827 -0.1878
12547TIP3   OH259055   0.438   6.462   6.063 -0.2390 -0.9142 -0.0400
12547TIP3    H159056   0.357   6.509   6.085 -0.2674 -0.8167 -0.3437
12547TIP3    H259057   0.457   6.409   6.140  0.1420  0.0745  0.5601
12548TIP3   OH259058   5.978   4.819   3.333 -0.2741 -0.2770  0.4688
12548TIP3    H159059   6.009   4.860   3.253 -0.3965 -2.0571 -0.5314
12548TIP3    H259060   5.925   4.885   3.376 -1.0227  0.3718 -1.4232
12549TIP3   OH259061   1.676   2.501   4.413  0.1366  0.4510  0.4936
12549TIP3    H159062   1.583   2.479   4.406  0.0841  0.8329 -0.0167
12549TIP3    H259063   1.697   2.545   4.330  0.8283  0.1529  0.5024
12550TIP3   OH259064   1.944   4.269  11.765 -0.1398 -0.2414  0.3577
12550TIP3    H159065   1.850   4.252  11.753  0.1891 -1.4103 -0.7557
12550TIP3    H259066   1.981   4.183  11.787  0.7033  0.1666  0.5469
12551TIP3   OH259067   1.072   0.985  14.740 -0.1864 -0.7247  0.3756
12551TIP3    H159068   1.067   0.910  14.681  1.5886 -0.5146 -0.0749
12551TIP3    H259069   0.982   1.014  14.750 -0.4820 -0.5481 -2.5160
12552TIP3   OH259070   4.149   4.947  15.379  0.3307 -0.1148  0.6178
12552TIP3    H159071   4.081   4.952  15.312  0.9754 -1.7390 -0.1997
12552TIP3    H259072   4.228   4.981  15.335  0.1560  1.3926  1.4348
12553TIP3   OH259073   5.015   5.975  11.374  0.1923  0.0434  0.7258
12553TIP3    H159074   5.034   6.009  11.461  0.2303 -0.0042  0.7369
12553TIP3    H259075   4.999   5.881  11.388 -0.7835  0.2193  0.8213
12554TIP3   OH259076   5.283   4.102  13.894  0.3235 -0.4417 -0.0552
12554TIP3    H159077   5.316   4.013  13.898  0.5348 -0.4236 -1.2703
12554TIP3    H259078   5.316   4.136  13.810 -3.6379 -0.7502 -1.8299
12555TIP3   OH259079   3.781   1.408  13.555  0.6799  0.2042  0.5548
12555TIP3    H159080   3.841   1.341  13.587  3.3351  2.2068 -0.0133
12555TIP3    H259081   3.727   1.431  13.630  2.0479 -0.1834  1.6653
12556TIP3   OH259082   4.824   3.097  13.158 -0.3175 -0.0827  0.0987
12556TIP3    H159083   4.852   3.110  13.067  0.1952 -3.7263 -0.3356
12556TIP3    H259084   4.849   3.178  13.202  1.0105  1.0738 -2.6311
12557TIP3   OH259085   1.725   3.615   1.889 -0.4865  0.1196  0.7229
12557TIP3    H159086   1.817   3.621   1.912 -0.9634  1.8814  2.3159
12557TIP3    H259087   1.725   3.592   1.796  1.5406 -0.5974  0.8838
12558TIP3   OH259088   1.400   0.799  11.357 -0.3047 -0.4956 -0.3572
12558TIP3    H159089   1.311   0.767  11.376 -0.4359  0.1078  0.0351
12558TIP3    H259090   1.387   0.872  11.297 -0.2706  1.5628  2.0955
12559TIP3   OH259091   2.216   0.185  10.993 -0.3236  0.4322  0.2509
12559TIP3    H159092   2.286   0.251  10.993  0.3122 -0.2344 -0.2599
12559TIP3    H259093   2.147   0.223  10.939  0.4977  0.2070 -0.9748
12560TIP3   OH259094   3.413   4.116  12.294  0.0419  0.0272  0.1735
12560TIP3    H159095   3.485   4.066  12.333  0.0785 -0.1440 -0.1135
12560TIP3    H259096   3.371   4.055  12.233  0.2667  0.4372 -0.3967
12561TIP3   OH259097   2.027   0.562  16.612  0.2743  0.2158 -0.1105
12561TIP3    H159098   2.047   0.529  16.700  0.5703  0.7836  0.0363
12561TIP3    H259099   2.024   0.483  16.558 -0.0580 -0.1535  0.4315
12562TIP3   OH259100   0.936   4.297  16.507 -0.4731  0.5416  0.0118
12562TIP3    H159101   0.943   4.213  16.461 -0.8151 -0.1223  1.1487
12562TIP3    H259102   0.998   4.290  16.580  1.5106  2.3502 -1.4605
12563TIP3   OH259103   1.694   3.815  11.628  0.3794  0.5372  0.5233
12563TIP3    H159104   1.674   3.845  11.717  0.6762  0.6689  0.5487
12563TIP3    H259105   1.790   3.806  11.627  0.3136 -0.1731  0.4366
12564TIP3   OH259106   0.719   6.271  14.319 -0.4510  0.0435 -0.0379
12564TIP3    H159107   0.638   6.221  14.307  0.4631 -1.0422 -1.9293
12564TIP3    H259108   0.787   6.205  14.328  0.7949  0.8954 -2.6619
12565TIP3   OH259109   5.755   3.196   5.757 -0.3381  0.1249  0.5874
12565TIP3    H159110   5.724   3.272   5.807 -1.3995 -0.1802  0.4016
12565TIP3    H259111   5.792   3.137   5.823 -0.2332  0.4509  0.8212
12566TIP3   OH259112   1.605   2.489   1.904  0.6244  0.1584  0.4292
12566TIP3    H159113   1.666   2.510   1.833 -0.2327  0.3028 -0.2862
12566TIP3    H259114   1.552   2.417   1.868 -0.8832  1.3094  0.2981
12567TIP3   OH259115   3.723   2.028  12.088 -0.4571  0.3581 -0.4363
12567TIP3    H159116   3.771   1.980  12.021 -1.0144 -2.5691  1.1710
12567TIP3    H259117   3.779   2.024  12.165 -0.5845  2.2312 -0.2052
12568TIP3   OH259118   5.127   6.221  17.173  0.4606 -0.7833 -0.4237
12568TIP3    H159119   5.149   6.183  17.258 -0.7050 -0.4264  0.0545
12568TIP3    H259120   5.050   6.170  17.144  0.2234 -0.2224 -0.7792
12569TIP3   OH259121   6.341   5.263   4.144  0.1654  0.0228 -0.2151
12569TIP3    H159122   6.346   5.201   4.071 -2.1338  0.6262 -0.9240
12569TIP3    H259123   6.330   5.348   4.101 -2.3835  0.2523  0.8382
12570TIP3   OH259124   0.241   4.491   6.441 -0.6461 -0.3501 -0.3361
12570TIP3    H159125   0.234   4.568   6.385 -1.8474 -1.2481 -1.4492
12570TIP3    H259126   0.333   4.467   6.438 -0.4485  0.4527 -0.7690
12571TIP3   OH259127   4.711   0.313  13.773 -0.2188  0.4684 -0.1537
12571TIP3    H159128   4.752   0.233  13.739 -3.3731 -0.9240 -0.7694
12571TIP3    H259129   4.671   0.286  13.856 -1.0328  1.4698 -0.2168
12572TIP3   OH259130   6.675   1.629   3.746  0.4111 -0.0166  0.7994
12572TIP3    H159131   6.710   1.544   3.770  1.2538  0.6233  1.8941
12572TIP3    H259132   6.692   1.685   3.822 -1.2941  0.8031  0.6108
12573TIP3   OH259133   6.159   5.730   5.196  0.1392 -0.0909  0.3992
12573TIP3    H159134   6.195   5.761   5.113 -1.2198 -0.3318 -0.3032
12573TIP3    H259135   6.165   5.805   5.255  1.0684  0.0987  0.0695
12574TIP3   OH259136   2.762   3.161   3.254 -0.2703  0.0017  0.1760
12574TIP3    H159137   2.742   3.073   3.287 -0.7260  0.0854  0.1200
12574TIP3    H259138   2.688   3.215   3.281  0.2120  0.4686  0.5881
12575TIP3   OH259139   3.993   1.913   5.910  0.1815  0.9387 -0.4489
12575TIP3    H159140   4.058   1.982   5.922  1.5713 -0.3098 -0.6611
12575TIP3    H259141   3.913   1.948   5.949  0.9851  2.4774 -0.1473
12576TIP3   OH259142   2.773   1.426  13.582 -0.2906  0.6157  0.0482
12576TIP3    H159143   2.747   1.366  13.512 -0.5032  1.0428 -0.2365
12576TIP3    H259144   2.745   1.512  13.552  0.3346  0.9091  0.3029
12577TIP3   OH259145   2.822   6.759  12.476  0.4284 -0.1107 -0.1027
12577TIP3    H159146   2.916   6.774  12.464  0.3200  0.1231 -0.6505
12577TIP3    H259147   2.817   6.702  12.553  1.0780 -1.0120 -0.7194
12578TIP3   OH259148   1.918   2.668  13.873  0.3508  0.2396 -0.2232
12578TIP3    H159149   1.952   2.744  13.921  1.4374 -0.1652 -0.3475
12578TIP3    H259150   1.893   2.606  13.942  1.8128 -0.2978 -0.1493
12579TIP3   OH259151   1.521   6.753   5.979  0.4915 -0.3566 -0.5858
12579TIP3    H159152   1.530   6.667   6.019 -0.8688 -0.8611 -1.3397
12579TIP3    H259153   1.548   6.815   6.047 -0.0750 -1.2890  0.4782
12580TIP3   OH259154   1.578   6.770   3.028 -0.0521  0.3969 -0.1054
12580TIP3    H159155   1.554   6.823   3.104  0.9268  1.6440 -0.6392
12580TIP3    H259156   1.533   6.812   2.955  0.4687  0.2993 -0.4853
12581TIP3   OH259157   5.849   0.411  11.539 -0.1550 -0.3212  0.2949
12581TIP3    H159158   5.844   0.325  11.498 -0.2603  0.0147 -0.3990
12581TIP3    H259159   5.846   0.473  11.466  2.6598  0.2366  0.5955
12582TIP3   OH259160   0.579   2.849  11.381 -0.2626 -0.3482  0.3377
12582TIP3    H159161   0.533   2.773  11.347 -0.5590 -0.5226  1.1243
12582TIP3    H259162   0.510   2.910  11.407 -0.0333 -0.0497  0.2581
12583TIP3   OH259163   2.837   3.036  14.035 -0.3017 -0.0505  0.4606
12583TIP3    H159164   2.778   3.102  14.071  2.0965  1.8489  1.0241
12583TIP3    H259165   2.820   3.036  13.941 -0.7622  0.9326  0.5423
12584TIP3   OH259166   3.924   0.072   2.707  0.7407 -0.0554 -0.1425
12584TIP3    H159167   4.007   0.076   2.756  0.7304  1.8326 -0.2224
12584TIP3    H259168   3.949   0.092   2.617  0.0181  2.1625  0.1121
12585TIP3   OH259169   3.263   1.264   2.754 -0.0332 -0.3397 -0.5158
12585TIP3    H159170   3.219   1.218   2.682 -0.9142  0.5850 -0.5749
12585TIP3    H259171   3.294   1.345   2.714  0.5544 -0.3815 -0.1427
12586TIP3   OH259172   0.276   2.599  16.555  0.1484 -0.2422  0.6171
12586TIP3    H159173   0.220   2.671  16.584 -1.7708 -1.6169  0.4356
12586TIP3    H259174   0.290   2.613  16.462  1.2326  0.8214  0.9254
12587TIP3   OH259175   5.765   6.632  11.294  0.7888  0.1646 -0.5418
12587TIP3    H159176   5.801   6.656  11.378  3.1023  0.2846 -1.5438
12587TIP3    H259177   5.720   6.710  11.263 -0.7937 -0.1365  0.9209
12588TIP3   OH259178   3.727   3.959  13.254  0.2786  0.5971 -0.2643
12588TIP3    H159179   3.817   3.991  13.257  0.5462 -0.1846  0.3987
12588TIP3    H259180   3.685   4.009  13.184  1.0165  1.5102 -0.0552
12589TIP3   OH259181   3.412   3.947   2.707  0.5727  0.2058 -0.1411
12589TIP3    H159182   3.397   4.011   2.776  1.6520  1.8157 -1.3746
12589TIP3    H259183   3.507   3.948   2.694  0.4642 -0.7038 -1.0701
12590TIP3   OH259184   6.050   3.640   2.066 -0.2005 -0.3406  0.0886
12590TIP3    H159185   6.077   3.690   2.144 -0.4068 -0.7972  0.4596
12590TIP3    H259186   6.130   3.631   2.015  0.5628 -2.3705  1.5695
12591TIP3   OH259187   2.676   4.363   0.202 -0.2426  0.1269  0.1153
12591TIP3    H159188   2.772   4.361   0.202 -0.2240  0.8620 -0.4742
12591TIP3    H259189   2.654   4.456   0.198 -0.9773  0.1214  2.9325
12592TIP3   OH259190   0.594   5.470   5.992 -0.2361  0.2479 -0.5381
12592TIP3    H159191   0.573   5.405   6.059  0.1077 -0.4877 -1.1303
12592TIP3    H259192   0.588   5.554   6.037 -0.6017 -0.1975  0.2612
12593TIP3   OH259193   3.509   5.873  11.459 -0.0268 -0.0253 -0.2825
12593TIP3    H159194   3.515   5.887  11.364 -0.7774  0.9744 -0.1994
12593TIP3    H259195   3.421   5.904  11.482  0.6867  1.1341  0.9698
12594TIP3   OH259196   0.815   5.850  15.371 -0.1200 -0.0967  0.0918
12594TIP3    H159197   0.857   5.900  15.441 -1.6880  0.3674  0.7482
12594TIP3    H259198   0.787   5.769  15.414 -2.1198  0.6869  0.3228
12595TIP3   OH259199   1.428   1.018  15.430  0.2282 -0.2530 -0.0432
12595TIP3    H159200   1.522   1.031  15.433  0.2983 -0.7235 -0.1031
12595TIP3    H259201   1.392   1.104  15.412  0.5625  0.2153  1.4185
12596TIP3   OH259202   0.467   0.050  12.967 -0.4311 -0.5464  0.1130
12596TIP3    H159203   0.543   0.089  12.923 -0.9730 -1.5812 -1.7954
12596TIP3    H259204   0.489  -0.043  12.974 -0.4167 -0.4315  1.9644
12597TIP3   OH259205   4.075   6.001   3.202  0.0006 -0.1692 -0.3632
12597TIP3    H159206   4.107   6.076   3.253 -0.4059 -0.0609 -0.2607
12597TIP3    H259207   4.093   5.925   3.257 -0.7027 -0.0251  0.0777
12598TIP3   OH259208   4.577   0.121  12.350  0.3760 -0.3935 -0.4795
12598TIP3    H159209   4.643   0.190  12.355  0.4502 -0.3303 -2.0293
12598TIP3    H259210   4.566   0.106  12.256 -0.6958 -1.4777 -0.1851
12599TIP3   OH259211   5.497   3.488   3.135  0.2312 -0.1676  0.0414
12599TIP3    H159212   5.564   3.481   3.203 -0.9631  0.2591  1.2989
12599TIP3    H259213   5.513   3.573   3.094  0.5572 -0.1377  0.2252
12600TIP3   OH259214   2.332   3.981   3.823  0.0548 -0.0547  0.3994
12600TIP3    H159215   2.415   4.014   3.857  0.3926  0.7157 -1.1049
12600TIP3    H259216   2.347   3.888   3.807  0.2006 -0.2024  1.3697
12601TIP3   OH259217   0.819   4.050  14.213  0.2058  0.3717 -0.0580
12601TIP3    H159218   0.816   4.070  14.306  2.3487  0.4952  0.0108
12601TIP3    H259219   0.840   4.133  14.170  1.1204 -0.0617 -0.4716
12602TIP3   OH259220   3.764   2.720  16.299 -0.5543 -0.0669 -0.1161
12602TIP3    H159221   3.857   2.740  16.309 -1.2776  2.3206  2.2717
12602TIP3    H259222   3.734   2.777  16.228 -0.4816  0.1513  0.0279
12603TIP3   OH259223   4.247   2.248   4.387 -0.3606 -0.0527  0.3340
12603TIP3    H159224   4.222   2.305   4.460 -0.0263  1.1180 -0.4475
12603TIP3    H259225   4.306   2.302   4.334  1.7714 -1.8810  0.7539
12604TIP3   OH259226   4.403   5.300  16.843  0.5034 -0.4456 -0.0023
12604TIP3    H159227   4.430   5.300  16.935  0.1992  0.3863  0.0927
12604TIP3    H259228   4.336   5.232  16.838 -0.9628  0.8959  0.8562
12605TIP3   OH259229   3.634   4.881  14.410 -0.2292  0.0896 -0.2517
12605TIP3    H159230   3.589   4.799  14.389  0.1517 -0.2733  0.3459
12605TIP3    H259231   3.580   4.948  14.369 -0.4718 -0.4714 -0.8619
12606TIP3   OH259232   2.668   5.945   5.135 -0.0172 -0.1918  0.2030
12606TIP3    H159233   2.700   6.009   5.073 -0.4697 -1.1755 -1.0794
12606TIP3    H259234   2.636   5.996   5.209  2.7432  0.8674  0.6832
12607TIP3   OH259235   2.543   4.905  12.869 -0.8798  0.3863 -0.6850
12607TIP3    H159236   2.609   4.837  12.875  3.7292  4.8515  3.4082
12607TIP3    H259237   2.480   4.884  12.939  1.7222  1.3875  2.0552
12608TIP3   OH259238   4.301   0.520  12.288  0.2632 -0.6830  0.2679
12608TIP3    H159239   4.392   0.540  12.308  0.3557 -0.6158 -0.2153
12608TIP3    H259240   4.305   0.448  12.225 -0.0118 -0.6028  0.1589
12609TIP3   OH259241   4.149   4.394  13.459  0.1017 -0.4501 -0.2397
12609TIP3    H159242   4.228   4.380  13.406  0.7981  1.5780  0.1969
12609TIP3    H259243   4.077   4.390  13.397  0.6326 -1.3942 -0.7978
12610TIP3   OH259244   4.471   5.958  13.578  0.1515 -0.4567  0.4235
12610TIP3    H159245   4.566   5.963  13.564  0.0428 -0.7842 -0.4695
12610TIP3    H259246   4.440   6.047  13.563  0.2174 -0.5170 -0.0923
12611TIP3   OH259247   0.312   0.250   2.905  0.0611 -0.8392 -0.8994
12611TIP3    H159248   0.325   0.291   2.991  0.1849  1.0023 -1.7670
12611TIP3    H259249   0.217   0.255   2.891 -0.1037 -2.2479 -0.3504
12612TIP3   OH259250   0.375   5.921   6.012 -0.0084 -0.2866  0.2503
12612TIP3    H159251   0.339   6.004   6.045 -0.1477 -0.3319  0.2110
12612TIP3    H259252   0.298   5.865   6.001  0.0656 -0.3509  0.0756
12613TIP3   OH259253   2.534   5.541   0.618  0.1136  0.2544  0.0244
12613TIP3    H159254   2.457   5.598   0.621 -0.3326 -0.3084 -0.6496
12613TIP3    H259255   2.576   5.561   0.534 -0.6830 -1.2289 -0.7472
12614TIP3   OH259256   4.614   5.385   5.798 -0.4043 -0.4920  0.1591
12614TIP3    H159257   4.691   5.382   5.855 -0.3712  0.7037  0.1865
12614TIP3    H259258   4.648   5.364   5.711  0.1313  0.9999 -0.0028
12615TIP3   OH259259   5.797   0.219  16.543 -0.1073  0.5457  0.3714
12615TIP3    H159260   5.738   0.295  16.536 -1.1304 -0.3159 -0.3934
12615TIP3    H259261   5.885   0.256  16.531 -0.5329  1.7307  0.8001
12616TIP3   OH259262   4.851   3.370  15.303  0.4119  0.6745 -0.2703
12616TIP3    H159263   4.832   3.435  15.371 -1.4302  0.4817 -0.5740
12616TIP3    H259264   4.767   3.355  15.260  1.1004 -0.8949 -1.1121
12617TIP3   OH259265   4.601   1.873   2.584 -0.0975  0.6627 -0.1568
12617TIP3    H159266   4.602   1.855   2.678 -0.7948 -0.5862 -0.3954
12617TIP3    H259267   4.668   1.815   2.548  0.3061  1.2790 -0.4205
12618TIP3   OH259268   4.396   5.055  12.800 -0.3343  0.2372 -0.9279
12618TIP3    H159269   4.379   5.057  12.894 -3.5948 -0.2269 -1.4186
12618TIP3    H259270   4.326   5.109  12.762  1.5352  1.2773 -3.0303
12619TIP3   OH259271   6.143   4.425  14.276 -0.2405 -0.4767  0.1605
12619TIP3    H159272   6.095   4.405  14.196 -2.6598  2.2672  0.8140
12619TIP3    H259273   6.125   4.518  14.292  0.7146 -0.8007  3.5280
12620TIP3   OH259274   2.664   1.780  14.107 -0.1551  0.1017 -0.1658
12620TIP3    H159275   2.714   1.700  14.097 -1.2448 -0.5055 -0.8706
12620TIP3    H259276   2.727   1.851  14.091  0.9929 -0.5842  1.2743
12621TIP3   OH259277   0.663   2.560  14.752  0.8228  0.0792  0.1875
12621TIP3    H159278   0.628   2.622  14.817  0.7417 -1.2747  1.4421
12621TIP3    H259279   0.686   2.616  14.677 -3.8732  1.1045 -0.6831
12622TIP3   OH259280   3.136   6.197   3.005  0.2873 -0.2682 -0.0650
12622TIP3    H159281   3.106   6.282   2.971  0.8447  0.0724  0.2768
12622TIP3    H259282   3.093   6.189   3.090  0.7326 -0.0254  0.1878
12623TIP3   OH259283   2.549   6.112  15.934  0.3602 -0.0107 -0.4940
12623TIP3    H159284   2.512   6.024  15.937 -0.6144  0.4376  1.9117
12623TIP3    H259285   2.643   6.099  15.918  0.3878 -1.5372  0.8751
12624TIP3   OH259286   1.034   5.196   1.999  0.9055  0.0746 -0.2426
12624TIP3    H159287   1.062   5.152   2.079  0.5615 -0.4207 -0.3886
12624TIP3    H259288   0.941   5.173   1.991  0.5375  1.3666  0.0320
12625TIP3   OH259289   0.589   5.365   3.528 -0.5753 -0.3820  0.1943
12625TIP3    H159290   0.614   5.273   3.537  1.3298  0.1313  0.3050
12625TIP3    H259291   0.607   5.403   3.613  0.2731  0.4709 -0.3604
12626TIP3   OH259292   3.780   0.628  12.246  0.1068 -0.1234  0.3642
12626TIP3    H159293   3.776   0.702  12.186 -0.2233 -0.0296  0.5025
12626TIP3    H259294   3.874   0.610  12.255  0.2487  0.8963  1.0768
12627TIP3   OH259295   1.293   6.673   5.564  0.2990  0.4620 -0.5019
12627TIP3    H159296   1.267   6.754   5.608 -1.5250  1.1194 -2.6896
12627TIP3    H259297   1.383   6.689   5.534  0.4971  1.0759  0.4088
12628TIP3   OH259298   5.040   1.199   0.260  0.3253  0.1346  0.0379
12628TIP3    H159299   5.101   1.195   0.186 -0.4859 -0.6846 -0.5930
12628TIP3    H259300   4.992   1.117   0.255  0.8863 -0.3337  2.0171
12629TIP3   OH259301   3.654   0.097  13.199  0.1813  0.1832 -0.0339
12629TIP3    H159302   3.646   0.162  13.269  0.5494  0.7296 -0.4970
12629TIP3    H259303   3.646   0.147  13.118 -1.1714 -0.5712 -0.3829
12630TIP3   OH259304   4.773   0.649   4.547 -0.0474 -0.1797 -0.4333
12630TIP3    H159305   4.772   0.596   4.468 -0.6396 -0.8736  0.0337
12630TIP3    H259306   4.720   0.726   4.525 -1.1684 -0.9209 -0.3423
12631TIP3   OH259307   2.624   1.269   4.574  0.0173  0.0987 -0.0580
12631TIP3    H159308   2.688   1.241   4.640  0.2503 -1.1505 -0.7958
12631TIP3    H259309   2.556   1.202   4.577 -0.3292  0.4222 -0.5853
12632TIP3   OH259310   0.352   0.957  15.952 -0.0143  0.1599 -0.1532
12632TIP3    H159311   0.334   0.869  15.920  2.8702 -0.7320  0.4994
12632TIP3    H259312   0.266   0.992  15.975 -1.3226 -2.0686 -1.4431
12633TIP3   OH259313   4.087   0.596  14.501  0.0127  0.1237 -0.6670
12633TIP3    H159314   4.046   0.673  14.540 -1.9967 -0.7632 -0.9535
12633TIP3    H259315   4.023   0.525  14.515  1.8319 -1.4911 -0.3723
12634TIP3   OH259316   6.416   5.775  11.933  0.1383 -0.3494  0.5436
12634TIP3    H159317   6.367   5.755  12.013 -1.0105  1.0923  0.2208
12634TIP3    H259318   6.458   5.692  11.909  0.3689 -0.8286  2.5469
12635TIP3   OH259319   2.274   3.845  13.718 -0.2090  0.0174 -0.5534
12635TIP3    H159320   2.272   3.898  13.638 -0.2541  4.8076  2.4817
12635TIP3    H259321   2.365   3.817  13.726  0.3074  1.5002 -1.0629
12636TIP3   OH259322   1.307   0.376   0.390 -0.3972 -0.3119  0.0066
12636TIP3    H159323   1.340   0.291   0.420 -3.2004 -1.8230 -1.0820
12636TIP3    H259324   1.362   0.398   0.315 -0.9115 -2.1017 -0.8979
12637TIP3   OH259325   5.471   2.536   1.456 -0.7424  0.3984 -0.1415
12637TIP3    H159326   5.525   2.597   1.508  0.2527 -0.9602  0.4546
12637TIP3    H259327   5.482   2.452   1.500 -0.9147 -0.5118 -1.8224
12638TIP3   OH259328   4.722   1.186  12.731  0.4064  0.3204 -0.0156
12638TIP3    H159329   4.774   1.190  12.650 -0.1408  1.8403 -0.3169
12638TIP3    H259330   4.755   1.259  12.784  0.4252 -0.3716  0.9366
12639TIP3   OH259331   1.896   0.824  14.285 -0.5983 -1.2788  0.5273
12639TIP3    H159332   1.939   0.754  14.236 -0.1296 -0.4305 -0.2767
12639TIP3    H259333   1.929   0.813  14.375  1.3665 -0.6048 -0.0844
12640TIP3   OH259334   4.538   6.705  16.131 -0.5976 -0.4292 -0.2284
12640TIP3    H159335   4.605   6.638  16.115 -0.6537 -0.5746  0.1497
12640TIP3    H259336   4.464   6.657  16.168 -0.6646 -0.1665 -0.0237
12641TIP3   OH259337   3.425   0.073  16.615  0.1608 -0.3009  0.2160
12641TIP3    H159338   3.422   0.067  16.520 -0.2841  0.6912  0.1592
12641TIP3    H259339   3.461  -0.011  16.643 -0.0497 -0.7434 -0.8041
12642TIP3   OH259340   3.670   3.662   1.955 -0.0036  0.6608 -0.1050
12642TIP3    H159341   3.759   3.630   1.969 -0.1258  0.7396  0.8655
12642TIP3    H259342   3.667   3.746   2.001 -0.7389  0.4116  0.3133
12643TIP3   OH259343   4.920   3.544   2.200  0.7286  0.3705  0.1118
12643TIP3    H159344   4.864   3.497   2.138  1.3528  0.0834 -0.2345
12643TIP3    H259345   4.928   3.632   2.163  1.3334  0.1164 -0.3631
12644TIP3   OH259346   2.146   4.656  14.260  0.5098 -0.0265 -0.6774
12644TIP3    H159347   2.209   4.720  14.294 -0.2540  0.0844  0.5433
12644TIP3    H259348   2.127   4.687  14.171 -0.5184  1.9621  0.2138
12645TIP3   OH259349   0.281   3.032   2.587 -0.2310  0.1381  0.0005
12645TIP3    H159350   0.290   3.073   2.501 -0.5647  0.1602 -0.0241
12645TIP3    H259351   0.231   3.095   2.639 -3.7515 -1.6674 -1.0420
12646TIP3   OH259352   4.516   1.042   4.396 -0.1404  0.5358 -0.1324
12646TIP3    H159353   4.535   1.008   4.483 -0.3798 -0.3776 -0.4365
12646TIP3    H259354   4.420   1.046   4.393 -0.1594 -0.3367 -0.7005
12647TIP3   OH259355   3.847   0.805  14.545 -0.7077  0.3443 -0.4022
12647TIP3    H159356   3.764   0.834  14.583  0.0462  2.2289 -0.1230
12647TIP3    H259357   3.911   0.868  14.578  0.9243 -1.3981 -0.1806
12648TIP3   OH259358   0.007   1.879   3.223  0.3131  0.6346 -0.4000
12648TIP3    H159359  -0.043   1.912   3.148  0.1873 -2.4227 -1.7339
12648TIP3    H259360   0.025   1.787   3.202 -0.5238 -0.5852  3.7444
12649TIP3   OH259361   4.711   4.429   0.020  0.1512 -0.2072  0.0218
12649TIP3    H159362   4.620   4.401   0.011 -0.0740  0.6235 -0.4236
12649TIP3    H259363   4.706   4.525   0.016  1.1116 -0.1832 -0.7244
12650TIP3   OH259364   4.161   0.798   5.852  0.1737  0.7766 -0.2112
12650TIP3    H159365   4.145   0.853   5.929 -0.6012 -1.3711  1.1785
12650TIP3    H259366   4.099   0.726   5.860  1.5111 -0.5913 -1.7415
12651TIP3   OH259367   6.656   5.751   0.264  0.0907 -0.0656 -0.1089
12651TIP3    H159368   6.735   5.754   0.317 -0.4398 -2.1383  0.8472
12651TIP3    H259369   6.682   5.790   0.180  1.6022  0.9735  0.8265
12652TIP3   OH259370   4.437   5.211   5.367  0.4182  0.7833  0.5248
12652TIP3    H159371   4.522   5.249   5.346 -0.1096  0.6390 -2.0672
12652TIP3    H259372   4.390   5.281   5.412  2.1627  0.5842  2.7764
12653TIP3   OH259373   3.513   1.502  16.792 -0.3701 -0.5219  0.5490
12653TIP3    H159374   3.576   1.469  16.856 -0.6332  1.5370  1.9142
12653TIP3    H259375   3.563   1.564  16.739 -1.1794  1.1872  1.6935
12654TIP3   OH259376   5.920   4.021  12.788  0.6967  0.1575  0.0122
12654TIP3    H159377   6.000   3.983  12.751  0.9182 -0.7527  1.4223
12654TIP3    H259378   5.908   4.102  12.738  2.7967  0.5840  0.1437
12655TIP3   OH259379   5.902   5.986  15.822  0.1739  0.3167 -0.4722
12655TIP3    H159380   5.839   6.019  15.758 -0.9446  0.4366  0.6774
12655TIP3    H259381   5.936   5.905  15.784 -0.3442  0.4787 -1.2890
12656TIP3   OH259382   2.275   5.067  12.852 -0.0148 -0.5752 -0.0507
12656TIP3    H159383   2.345   5.122  12.817  0.8109  0.4742  3.0829
12656TIP3    H259384   2.306   4.977  12.838  0.1522 -0.1983 -2.1935
12657TIP3   OH259385   6.222   0.524  15.241 -0.5803 -0.0955 -0.1676
12657TIP3    H159386   6.143   0.488  15.200 -1.0265 -0.3484  0.8921
12657TIP3    H259387   6.294   0.495  15.184 -1.2486  0.1809 -1.1622
12658TIP3   OH259388   5.937   2.853  13.209  0.0408 -0.2878 -0.6968
12658TIP3    H159389   5.871   2.837  13.276 -0.2301  0.0549 -0.8745
12658TIP3    H259390   5.936   2.948  13.196  0.0943 -0.3485 -1.1754
12659TIP3   OH259391   0.364   2.670   6.407  0.1085 -0.2831  0.1351
12659TIP3    H159392   0.372   2.740   6.343 -0.1058 -0.6917 -0.3492
12659TIP3    H259393   0.270   2.667   6.427  0.1607 -0.2288  0.3790
12660TIP3   OH259394   6.493   1.292  12.526 -0.3344  0.1823 -0.3722
12660TIP3    H159395   6.512   1.248  12.609  0.1927  0.2665 -0.4449
12660TIP3    H259396   6.404   1.265  12.504 -1.2320  1.7187  1.2261
12661TIP3   OH259397   4.490   3.815   4.471  0.3167 -0.2356  0.1388
12661TIP3    H159398   4.440   3.737   4.448 -0.4618  1.0676 -2.8976
12661TIP3    H259399   4.428   3.873   4.514 -0.7663  1.1240 -3.0674
12662TIP3   OH259400   5.596   1.150   4.599  0.4823 -0.2693  0.2825
12662TIP3    H159401   5.578   1.185   4.511 -0.6700 -2.6198 -0.4643
12662TIP3    H259402   5.687   1.119   4.594  0.0718 -1.3967 -0.4574
12663TIP3   OH259403   1.192   1.308  12.380 -0.5016 -0.1505 -0.2360
12663TIP3    H159404   1.136   1.385  12.372 -0.4947  0.1444  2.1236
12663TIP3    H259405   1.238   1.302  12.296 -0.9227  2.0799 -0.6419
12664TIP3   OH259406   1.353   0.134  11.995 -0.3912 -0.6889 -0.0286
12664TIP3    H159407   1.440   0.143  12.033 -1.4570 -0.8183  2.5380
12664TIP3    H259408   1.301   0.092  12.064 -3.0903  1.6019 -0.5786
12665TIP3   OH259409   3.598   6.668  10.784 -0.1281  0.3182  0.1501
12665TIP3    H159410   3.594   6.759  10.753 -0.1047  0.7604  1.4251
12665TIP3    H259411   3.676   6.665  10.840  0.1432 -0.6132 -0.2731
12666TIP3   OH259412   1.324   0.414  15.307 -0.9955 -0.0408 -0.2842
12666TIP3    H159413   1.265   0.356  15.355  0.1952 -0.3851  0.8025
12666TIP3    H259414   1.277   0.497  15.302 -0.7015  0.3672  2.5716
12667TIP3   OH259415   2.453   0.906   5.032 -0.2817  0.2059  0.2032
12667TIP3    H159416   2.529   0.861   4.995 -0.1457  0.9266 -0.4093
12667TIP3    H259417   2.432   0.858   5.112  0.4036 -0.4030  0.0120
12668TIP3   OH259418   2.335   2.363   5.858  0.2314 -0.7226  0.1942
12668TIP3    H159419   2.315   2.323   5.943 -0.4657 -1.4857 -0.3089
12668TIP3    H259420   2.358   2.288   5.802  1.2109 -0.1711 -0.1437
12669TIP3   OH259421   3.580   6.173   2.457  0.3499  0.1047  0.0471
12669TIP3    H159422   3.488   6.169   2.483  0.7178 -2.3804  1.0995
12669TIP3    H259423   3.593   6.264   2.429 -1.8856  1.0502  1.8940
12670TIP3   OH259424   4.039   4.747   1.346  0.0358  0.2613  0.6460
12670TIP3    H159425   4.130   4.777   1.351 -0.3233  1.7050 -1.0132
12670TIP3    H259426   4.023   4.733   1.253 -1.5239  0.2596  0.8995
12671TIP3   OH259427   4.120   2.140  16.133 -0.0784  0.5441  0.0436
12671TIP3    H159428   4.105   2.175  16.221 -0.4836 -1.2315  0.7102
12671TIP3    H259429   4.043   2.168  16.083  0.5421  2.2608  0.0017
12672TIP3   OH259430   3.239   4.223  12.714 -0.4100 -0.1201  0.4510
12672TIP3    H159431   3.209   4.162  12.646  0.5943 -0.6889  0.4979
12672TIP3    H259432   3.333   4.228  12.700 -0.0959 -0.7858  2.2291
12673TIP3   OH259433   5.470   0.803   4.974  0.0154 -0.4594 -0.4350
12673TIP3    H159434   5.490   0.841   4.888  0.2309 -0.2845 -0.3068
12673TIP3    H259435   5.376   0.815   4.984 -0.2307 -1.6234 -1.2084
12674TIP3   OH259436   0.582   3.096  15.471 -0.1609 -0.3590 -0.1805
12674TIP3    H159437   0.517   3.142  15.523 -0.9130 -0.4192 -1.0682
12674TIP3    H259438   0.569   3.003  15.492 -0.4542 -0.3819 -0.4683
12675TIP3   OH259439   2.736   5.274   3.504 -0.4898 -0.1549 -0.1228
12675TIP3    H159440   2.752   5.324   3.584 -0.7342 -0.0888 -0.1173
12675TIP3    H259441   2.670   5.210   3.528 -0.7090 -0.0079 -0.3217
12676TIP3   OH259442   6.536   4.668   0.722 -0.1043 -0.2936 -0.5382
12676TIP3    H159443   6.478   4.730   0.766 -0.3163 -0.2902 -0.8148
12676TIP3    H259444   6.486   4.586   0.720  0.4092 -0.6288  0.3454
12677TIP3   OH259445   2.932   4.306   2.718 -0.0478  0.3603 -0.4006
12677TIP3    H159446   3.022   4.274   2.707  0.6625  2.3003 -0.3001
12677TIP3    H259447   2.882   4.258   2.652  0.9658 -1.0540 -0.1750
12678TIP3   OH259448   5.414   4.100   2.081 -0.1478 -0.3103  0.2802
12678TIP3    H159449   5.466   4.139   2.012  2.3768  0.2278  2.4102
12678TIP3    H259450   5.438   4.008   2.082 -1.5062 -0.6947 -0.6837
12679TIP3   OH259451   3.051   1.734  12.319  0.2121  0.5555 -0.1683
12679TIP3    H159452   2.995   1.658  12.306  0.8728 -0.2395  1.5292
12679TIP3    H259453   2.998   1.796  12.369 -0.5442  1.4991 -2.0862
12680TIP3   OH259454   1.028   6.669  15.018 -0.1025  0.0030 -0.4847
12680TIP3    H159455   1.065   6.622  14.943  1.2537 -1.0394  0.8280
12680TIP3    H259456   0.933   6.665  15.004 -0.0072 -2.8547 -0.5757
12681TIP3   OH259457   1.493   1.662  11.700 -0.0262 -0.9125  0.2278
12681TIP3    H159458   1.516   1.573  11.675  1.4074 -1.5192  3.4301
12681TIP3    H259459   1.407   1.654  11.743 -0.9908 -0.3664 -1.5523
12682TIP3   OH259460   5.486   1.731   0.261  0.1592 -0.0115  0.3313
12682TIP3    H159461   5.462   1.822   0.240 -2.3265 -0.1407  2.4333
12682TIP3    H259462   5.555   1.739   0.327  0.6399  0.3280 -0.2024
12683TIP3   OH259463   6.449   2.776  12.741 -0.0825  0.2902 -0.1498
12683TIP3    H159464   6.533   2.820  12.759  1.5270 -1.7265 -2.4497
12683TIP3    H259465   6.449   2.700  12.799 -0.9120  0.9342  0.7172
12684TIP3   OH259466   5.484   2.935  11.642  0.2283  0.1243  0.3355
12684TIP3    H159467   5.522   2.859  11.687 -0.2867  0.8473  2.0550
12684TIP3    H259468   5.550   3.003  11.650 -0.6901  0.8778  1.8694
12685TIP3   OH259469   5.420   3.098  10.667 -0.0243  0.0748  0.4788
12685TIP3    H159470   5.487   3.167  10.667 -0.8150  0.8441  0.3020
12685TIP3    H259471   5.457   3.029  10.612  0.8856  0.2362  0.8658
12686TIP3   OH259472   6.138   4.444   3.967  0.2674  0.0196  0.3750
12686TIP3    H159473   6.045   4.464   3.975  0.1936 -0.6351  1.2429
12686TIP3    H259474   6.153   4.436   3.873 -1.0064 -1.9035  0.3060
12687TIP3   OH259475   0.011   2.436   1.885 -0.1484 -0.6759 -0.2686
12687TIP3    H159476  -0.025   2.411   1.799 -0.6863 -0.0546 -0.2248
12687TIP3    H259477   0.102   2.458   1.867 -0.2276 -0.6662 -0.6640
12688TIP3   OH259478   5.095   2.063  17.093 -0.5173 -0.1738 -0.1648
12688TIP3    H159479   5.073   1.970  17.100 -1.8606  0.0574 -1.1494
12688TIP3    H259480   5.089   2.082  17.000 -2.4945  1.4167  0.2538
12689TIP3   OH259481   6.304   0.702   4.132 -0.1979 -0.0547 -0.1093
12689TIP3    H159482   6.299   0.672   4.223 -1.1782 -0.2571 -0.2241
12689TIP3    H259483   6.231   0.657   4.088 -0.3212  0.7961 -0.7811
12690TIP3   OH259484   2.847   5.814   2.621  0.6368  0.2895 -0.2814
12690TIP3    H159485   2.754   5.824   2.639  0.7110  0.9980 -0.2585
12690TIP3    H259486   2.875   5.741   2.677 -0.1694 -0.7896 -1.2856
12691TIP3   OH259487   2.395   0.190   1.644 -0.3370  0.1179 -0.1335
12691TIP3    H159488   2.326   0.176   1.708 -0.2355 -0.0392 -0.0590
12691TIP3    H259489   2.455   0.252   1.687  0.4125 -0.9842  0.4417
12692TIP3   OH259490   0.691   4.081   0.189  0.5989  0.2365 -0.0720
12692TIP3    H159491   0.722   4.124   0.269  0.3580 -0.1189  0.2094
12692TIP3    H259492   0.771   4.065   0.139  0.8511 -0.4485  0.5403
12693TIP3   OH259493   2.090   4.547   3.984 -0.4194  0.5188 -0.3846
12693TIP3    H159494   2.172   4.578   3.945 -0.4831  1.4013  0.1882
12693TIP3    H259495   2.098   4.451   3.981  0.6587  0.5926 -0.2857
12694TIP3   OH259496   6.475   3.088   1.967  0.1635  0.1461  0.2531
12694TIP3    H159497   6.550   3.121   1.917 -1.0922  0.3100 -1.5963
12694TIP3    H259498   6.437   3.020   1.911 -0.8172 -0.2162  1.3383
12695TIP3   OH259499   0.465   5.146  15.609 -0.1207  0.2151 -0.4166
12695TIP3    H159500   0.435   5.079  15.670 -2.1593 -0.5086 -2.1585
12695TIP3    H259501   0.474   5.101  15.525  1.7831  1.3793 -0.8688
12696TIP3   OH259502   6.314   0.431   6.071  0.1652  0.4260  0.4856
12696TIP3    H159503   6.382   0.415   6.006  0.2979  0.7138  0.5569
12696TIP3    H259504   6.246   0.479   6.023  0.2163  0.5465  0.5372
12697TIP3   OH259505   0.306   5.943   2.072  0.3784 -0.0702 -0.3146
12697TIP3    H159506   0.396   5.932   2.043 -0.3927  0.1406 -2.9088
12697TIP3    H259507   0.281   5.857   2.106  1.2453 -0.3963 -0.5069
12698TIP3   OH259508   3.674   1.295   4.850 -0.0424  0.2950 -0.1716
12698TIP3    H159509   3.622   1.338   4.781 -2.9134  0.5212  2.0268
12698TIP3    H259510   3.671   1.202   4.827 -0.2213  0.4533 -0.8214
12699TIP3   OH259511   6.645   3.147  15.046 -0.1895  0.1437 -0.1593
12699TIP3    H159512   6.659   3.071  14.989  1.3026  0.3677 -0.1001
12699TIP3    H259513   6.726   3.156  15.095 -0.1069  2.1852 -0.6310
12700TIP3   OH259514   4.301   1.557  15.523  0.6006 -0.4917 -0.1462
12700TIP3    H159515   4.272   1.511  15.602  0.0320 -0.9434 -0.6209
12700TIP3    H259516   4.392   1.529  15.512  0.6636 -0.4792  0.3065
12701TIP3   OH259517   3.307   0.920  14.754 -0.1513  0.3560  0.2131
12701TIP3    H159518   3.219   0.957  14.748 -0.3436 -0.1294 -0.0037
12701TIP3    H259519   3.300   0.850  14.819  0.6619  1.9585  2.0862
12702TIP3   OH259520   5.225   5.936   0.710  0.5513 -0.2757  0.5918
12702TIP3    H159521   5.145   5.910   0.665 -0.9348 -0.7311  3.3736
12702TIP3    H259522   5.225   6.031   0.707  0.4701 -0.3049 -0.3550
12703TIP3   OH259523   1.527   4.744  16.667 -0.0580  1.1005 -0.9448
12703TIP3    H159524   1.461   4.708  16.726 -0.4446 -0.7624 -2.4539
12703TIP3    H259525   1.601   4.683  16.674 -0.0888  0.8909 -2.3160
12704TIP3   OH259526   4.287   1.249   4.656 -0.3078 -0.0715  0.2177
12704TIP3    H159527   4.368   1.221   4.700  0.0579 -0.0047 -0.4106
12704TIP3    H259528   4.220   1.191   4.691  0.3086 -1.2587 -0.5281
12705TIP3   OH259529   3.250   3.281   2.598 -0.1870  0.9057  0.0418
12705TIP3    H159530   3.337   3.247   2.580 -0.3578 -1.3516  3.0627
12705TIP3    H259531   3.266   3.366   2.640  0.7313 -0.5969  2.8734
12706TIP3   OH259532   5.000   6.348   5.306 -0.1381 -0.5276  0.2908
12706TIP3    H159533   5.053   6.291   5.360  0.9242 -1.4025 -1.6313
12706TIP3    H259534   4.987   6.299   5.224 -1.2053  0.9929 -0.4804
12707TIP3   OH259535   1.539   3.666  16.041  0.5464  0.0629 -0.3642
12707TIP3    H159536   1.559   3.760  16.043  1.6311 -0.1586 -0.5575
12707TIP3    H259537   1.570   3.633  16.125 -1.1740  0.1209  0.3280
12708TIP3   OH259538   3.084   4.489   4.297  0.1399 -0.6769 -0.2455
12708TIP3    H159539   3.046   4.499   4.384 -1.1917 -0.9601 -0.7866
12708TIP3    H259540   3.157   4.428   4.310 -0.2583 -0.9839  0.6122
12709TIP3   OH259541   1.120   1.249   4.544 -0.0531  0.3688  0.2754
12709TIP3    H159542   1.114   1.267   4.450 -0.8706 -1.6745 -0.0952
12709TIP3    H259543   1.031   1.225   4.570  0.6550 -1.6018  0.9931
12710TIP3   OH259544   5.120   4.083  12.057  0.1514 -0.4349  0.4841
12710TIP3    H159545   5.059   4.010  12.061 -2.1304  1.3497 -0.5015
12710TIP3    H259546   5.168   4.070  11.975 -0.6694 -0.4896  0.0162
12711TIP3   OH259547   4.872   4.633  14.976  0.6959 -0.0707 -0.0925
12711TIP3    H159548   4.876   4.693  14.901  1.0346 -0.3972 -0.3353
12711TIP3    H259549   4.779   4.619  14.990  0.6112  0.6720  0.0887
12712TIP3   OH259550   0.503   0.551   2.621  0.8431 -0.2631  0.4321
12712TIP3    H159551   0.463   0.478   2.668  1.3044 -1.5426 -1.1016
12712TIP3    H259552   0.534   0.512   2.540  0.4373  1.8157 -0.7449
12713TIP3   OH259553   5.967   0.840  14.890  0.0385  0.8526 -0.4258
12713TIP3    H159554   6.037   0.899  14.863  0.5235 -0.0119 -1.0670
12713TIP3    H259555   6.004   0.753  14.880 -0.5425  0.4486  0.8911
12714TIP3   OH259556   4.288   5.155  11.076  0.6241 -0.1222  0.2116
12714TIP3    H159557   4.239   5.218  11.024 -0.1641 -0.9895 -0.1222
12714TIP3    H259558   4.376   5.155  11.037  0.5124  0.4591 -0.0480
12715TIP3   OH259559   3.270   3.070   4.506  0.0820 -0.3807 -0.7076
12715TIP3    H159560   3.292   3.108   4.590 -0.1860 -0.4206 -0.6191
12715TIP3    H259561   3.224   3.140   4.459 -1.3949 -0.9401 -0.1265
12716TIP3   OH259562   6.550   0.307   4.098 -0.3021  0.4754  0.0992
12716TIP3    H159563   6.641   0.335   4.087 -0.6842  0.1808 -5.3112
12716TIP3    H259564   6.499   0.388   4.088 -0.8357 -0.2154 -3.4267
12717TIP3   OH259565   0.923   2.360  15.463  0.0032 -0.0009 -0.1936
12717TIP3    H159566   1.013   2.344  15.436 -0.5139 -0.4960 -1.6804
12717TIP3    H259567   0.872   2.349  15.383 -1.4919 -0.7046  0.8391
12718TIP3   OH259568   4.536   6.150  12.587 -0.1190 -0.1050  1.3082
12718TIP3    H159569   4.480   6.226  12.605  1.1242  1.1562 -0.0302
12718TIP3    H259570   4.498   6.110  12.509  0.2277  0.1548  1.0022
12719TIP3   OH259571   1.517   1.746   0.255  0.1166 -0.4000  0.4489
12719TIP3    H159572   1.442   1.713   0.304 -1.7659 -1.2872 -2.8954
12719TIP3    H259573   1.495   1.837   0.235  0.0920 -0.5533 -0.2237
12720TIP3   OH259574   0.868   3.129   3.395  0.9099 -0.5092  0.5477
12720TIP3    H159575   0.867   3.105   3.488  0.4052 -1.2742  0.3480
12720TIP3    H259576   0.818   3.060   3.352  1.0052 -0.0684 -0.2764
12721TIP3   OH259577   5.998   5.357   4.135 -0.1355 -0.8071  0.0839
12721TIP3    H159578   5.936   5.288   4.109 -1.5660  0.3891  0.2011
12721TIP3    H259579   6.016   5.339   4.227  0.3685 -1.6691 -0.1805
12722TIP3   OH259580   2.668   3.749   2.378 -0.2115 -1.1307  0.2579
12722TIP3    H159581   2.666   3.843   2.357  1.9360 -1.5918 -2.3719
12722TIP3    H259582   2.584   3.716   2.347 -0.5537 -0.2563  0.2348
12723TIP3   OH259583   3.010   4.284  13.137 -0.3476  0.2041  0.7323
12723TIP3    H159584   2.960   4.332  13.202 -2.2173 -0.0126 -0.5089
12723TIP3    H259585   2.945   4.256  13.072  1.2044 -1.0888 -0.3083
12724TIP3   OH259586   4.461   5.506   2.444  0.2550  0.0915  0.3962
12724TIP3    H159587   4.436   5.598   2.441  1.0286  0.2658 -0.7910
12724TIP3    H259588   4.391   5.460   2.398 -1.0068 -0.1313  2.4570
12725TIP3   OH259589   0.689   5.373   3.055 -0.2412 -0.3138  0.0006
12725TIP3    H159590   0.785   5.371   3.061 -0.2186  2.7425  1.7417
12725TIP3    H259591   0.659   5.341   3.141 -0.7011  1.4155  0.5054
12726TIP3   OH259592   1.524   5.478  12.293 -0.4223 -0.0024  0.3192
12726TIP3    H159593   1.464   5.412  12.259  0.5729 -1.6291  1.6722
12726TIP3    H259594   1.492   5.497  12.381  0.0195  0.4246  0.3914
12727TIP3   OH259595   2.487   4.977  16.961  0.2418 -0.2027 -0.4097
12727TIP3    H159596   2.509   5.002  16.872  0.3194 -0.7032 -0.5371
12727TIP3    H259597   2.565   4.932  16.993 -0.1048 -0.8160 -0.4059
12728TIP3   OH259598   0.203   2.729  11.678  0.0815  0.1266 -0.0588
12728TIP3    H159599   0.252   2.713  11.758  0.5731  0.7254 -0.2359
12728TIP3    H259600   0.264   2.706  11.608 -0.6080 -1.1466 -0.2606
12729TIP3   OH259601   2.597   4.466  14.037  0.1185 -0.6869 -0.0246
12729TIP3    H159602   2.631   4.494  13.952  0.2018  1.5518  0.7023
12729TIP3    H259603   2.505   4.449  14.021  0.1714 -0.4532 -0.6099
12730TIP3   OH259604   3.149   6.615   4.933  0.4592 -0.1649  0.2478
12730TIP3    H159605   3.091   6.574   4.869 -0.2121 -1.5391  1.7214
12730TIP3    H259606   3.197   6.542   4.972  1.6441  0.7657  0.5714
12731TIP3   OH259607   3.558   6.620   5.346  0.4256  0.2503  0.3861
12731TIP3    H159608   3.561   6.630   5.251 -2.1712  1.7229  0.4221
12731TIP3    H259609   3.630   6.560   5.366  2.1610  1.3378 -2.3124
12732TIP3   OH259610   1.601   4.171  14.025 -0.3784  0.2826 -0.3806
12732TIP3    H159611   1.667   4.106  14.003 -0.1994 -0.2197  1.5745
12732TIP3    H259612   1.605   4.235  13.953  1.2024 -0.5018 -1.0089
12733TIP3   OH259613   4.506   5.807   5.400  0.6654 -0.0587 -0.2221
12733TIP3    H159614   4.531   5.716   5.385  2.3503  0.7419 -2.5730
12733TIP3    H259615   4.432   5.821   5.341  0.9658  0.3265 -0.5125
12734TIP3   OH259616   0.819   3.626  17.053  0.3778 -0.1907 -0.1932
12734TIP3    H159617   0.799   3.705  17.104  1.0485  0.9479 -1.6426
12734TIP3    H259618   0.911   3.607  17.075 -0.0443 -1.1061  0.8344
12735TIP3   OH259619   6.283   0.998   4.101 -0.3224  0.0605  0.2718
12735TIP3    H159620   6.259   1.013   4.193 -1.8541  0.0840 -0.1076
12735TIP3    H259621   6.311   0.907   4.098  0.9565  0.4239  1.0033
12736TIP3   OH259622   4.650   0.405  15.957  0.1574 -0.3009  0.4570
12736TIP3    H159623   4.631   0.497  15.941  1.6122 -0.0040  0.3471
12736TIP3    H259624   4.731   0.389  15.908  0.3650 -1.4241  1.1571
12737TIP3   OH259625   6.427   6.385  14.610 -0.2327 -0.1781  0.5826
12737TIP3    H159626   6.368   6.444  14.563 -1.4146 -0.4324  1.7472
12737TIP3    H259627   6.469   6.333  14.540 -0.8398  0.4933 -0.2902
12738TIP3   OH259628   4.768   0.568   3.058 -0.1278  0.0045 -0.4264
12738TIP3    H159629   4.808   0.489   3.021 -1.3623 -0.0920 -1.6082
12738TIP3    H259630   4.764   0.551   3.152  1.9554 -0.2665 -0.3634
12739TIP3   OH259631   2.928   1.476  16.765 -0.5598  0.1127  0.0338
12739TIP3    H159632   2.988   1.438  16.701 -1.2259 -0.9671  0.0380
12739TIP3    H259633   2.860   1.410  16.776  0.0890 -0.1612  2.6498
12740TIP3   OH259634   1.267   3.056   0.194  0.4441  0.4013 -0.4136
12740TIP3    H159635   1.258   3.150   0.180 -0.3908 -0.0970 -3.7189
12740TIP3    H259636   1.203   3.017   0.134  0.9791 -2.2765  0.6955
12741TIP3   OH259637   5.856   1.189   1.322 -0.2656 -0.2565  0.2297
12741TIP3    H159638   5.782   1.249   1.320 -0.3010 -0.2350  1.3568
12741TIP3    H259639   5.837   1.124   1.255 -0.9863  0.1142  0.0739
12742TIP3   OH259640   1.620   3.494   6.655 -0.3949  0.5497  0.1271
12742TIP3    H159641   1.709   3.528   6.670 -0.6360  1.0000  0.5381
12742TIP3    H259642   1.633   3.419   6.597  0.2743  0.5118  0.3196
12743TIP3   OH259643   2.927   0.262   0.291 -0.4643  0.1213 -0.0561
12743TIP3    H159644   2.964   0.198   0.352 -1.3808 -0.4417 -0.0915
12743TIP3    H259645   2.988   0.336   0.295  1.2801 -1.2535 -0.9688
12744TIP3   OH259646   4.147   4.634  10.961 -0.1373 -0.1005  0.2777
12744TIP3    H159647   4.098   4.699  11.011 -0.5122 -2.0720  2.5721
12744TIP3    H259648   4.239   4.653  10.979 -0.2803 -1.0530  2.1090
12745TIP3   OH259649   4.154   5.796   1.024  0.2986 -0.0849  0.1451
12745TIP3    H159650   4.144   5.852   0.947  0.7769  0.9296  0.8124
12745TIP3    H259651   4.242   5.815   1.057  0.8740 -2.0238 -0.2328
12746TIP3   OH259652   1.211   4.655  12.923  0.3402 -0.2376  0.8162
12746TIP3    H159653   1.132   4.708  12.926  0.5015  0.0100  0.6596
12746TIP3    H259654   1.281   4.714  12.952  0.7070 -0.0219 -0.4849
12747TIP3   OH259655   5.773   4.295  11.824  0.1868 -0.5099 -0.2636
12747TIP3    H159656   5.694   4.305  11.876 -0.8917 -0.3724 -1.8760
12747TIP3    H259657   5.773   4.371  11.765  0.2862 -1.6796 -1.8188
12748TIP3   OH259658   4.752   1.925  15.736 -0.2225 -0.4953  0.3831
12748TIP3    H159659   4.687   1.868  15.778 -2.1279  1.2955 -0.0075
12748TIP3    H259660   4.794   1.971  15.809  1.3308 -2.3898  0.6963
12749TIP3   OH259661   5.340   3.638  16.253  0.4239  0.0560  0.3876
12749TIP3    H159662   5.353   3.638  16.348  1.4474 -0.0136  0.2567
12749TIP3    H259663   5.365   3.550  16.225  1.5666  0.5258 -0.1241
12750TIP3   OH259664   6.413   2.859   1.825 -0.0401 -0.0023  0.3673
12750TIP3    H159665   6.473   2.817   1.764  0.0886  0.2190  0.3427
12750TIP3    H259666   6.362   2.787   1.861  2.0286 -0.5300  2.3739
12751TIP3   OH259667   2.929   5.070  11.172  0.0713  0.1521  0.2449
12751TIP3    H159668   2.863   5.042  11.108 -0.5664  0.4678  0.7569
12751TIP3    H259669   3.001   5.103  11.119 -0.2154 -0.1189 -0.3216
12752TIP3   OH259670   0.023   4.907   1.025 -0.4906 -0.2468  0.0287
12752TIP3    H159671   0.112   4.941   1.034 -1.3665  1.9490  0.7325
12752TIP3    H259672   0.033   4.824   0.978  1.7175  1.0228 -1.8049
12753TIP3   OH259673   1.653   5.501  12.638  0.1457  0.4457 -0.5938
12753TIP3    H159674   1.582   5.503  12.575 -0.6077 -0.0942  0.2188
12753TIP3    H259675   1.732   5.485  12.585 -0.6987 -1.8945 -1.2389
12754TIP3   OH259676   6.219   4.330   5.071 -0.2504 -0.0096 -1.0431
12754TIP3    H159677   6.210   4.375   5.154  1.9432  0.4235 -1.0099
12754TIP3    H259678   6.226   4.400   5.006  2.7600 -0.2691 -1.0392
12755TIP3   OH259679   6.328   5.635   2.097 -0.2426 -0.1839  0.7112
12755TIP3    H159680   6.261   5.651   2.163 -1.1415  0.3232 -0.3131
12755TIP3    H259681   6.300   5.686   2.021  1.6174  0.5317  0.4637
12756TIP3   OH259682   5.943   5.939   3.029 -0.4556  0.2293  0.1268
12756TIP3    H159683   5.870   5.900   3.077 -1.0462  0.8565 -0.2677
12756TIP3    H259684   6.020   5.891   3.061 -0.7687  0.9759  2.1088
12757TIP3   OH259685   4.317   1.872  13.497 -0.2121 -0.2302  0.1541
12757TIP3    H159686   4.344   1.798  13.442  0.2533 -1.2807  1.7565
12757TIP3    H259687   4.302   1.943  13.436 -1.4420 -1.8765 -1.5200
12758TIP3   OH259688   6.466   3.233  16.643 -0.0146  0.4415 -0.0837
12758TIP3    H159689   6.478   3.155  16.588  1.0058  1.0510 -0.7375
12758TIP3    H259690   6.541   3.233  16.702  0.3157  1.2829 -0.5071
12759TIP3   OH259691   2.537   6.282   2.144  0.2293 -0.3842 -0.3435
12759TIP3    H159692   2.611   6.339   2.121 -0.2231  1.3772  2.3567
12759TIP3    H259693   2.575   6.195   2.151  1.4574  0.0041 -1.8995
12760TIP3   OH259694   2.509   5.195  12.797 -0.3522  0.1716 -0.0416
12760TIP3    H159695   2.577   5.243  12.845 -0.3360  0.1172 -0.0103
12760TIP3    H259696   2.543   5.189  12.708  0.5224 -1.4650  0.3904
12761TIP3   OH259697   1.702   0.955  15.388  0.0921 -0.2316  0.5425
12761TIP3    H159698   1.785   0.972  15.433 -0.4156  0.3896  1.2547
12761TIP3    H259699   1.712   0.996  15.302  0.9308 -1.1104  0.2130
12762TIP3   OH259700   5.700   2.832   3.994 -0.4752  0.3631 -0.0087
12762TIP3    H159701   5.629   2.897   3.994 -1.6916 -0.9024 -1.5239
12762TIP3    H259702   5.695   2.792   3.907  1.5018 -0.4172  0.2204
12763TIP3   OH259703   3.131   4.000  13.051 -0.2925 -0.8229  0.0266
12763TIP3    H159704   3.200   4.049  13.095 -1.6299  1.1439 -0.0258
12763TIP3    H259705   3.109   3.929  13.111  1.3282 -1.0761  0.3174
12764TIP3   OH259706   6.633   5.502   4.957  0.2685  0.2158 -0.3425
12764TIP3    H159707   6.677   5.583   4.982 -1.1280  0.7313  0.4970
12764TIP3    H259708   6.704   5.441   4.940  1.3198  1.1860  0.4520
12765TIP3   OH259709   6.096   6.427   5.741 -0.0953  0.0965 -0.3447
12765TIP3    H159710   6.155   6.408   5.814 -0.6858 -0.2035  0.0519
12765TIP3    H259711   6.009   6.432   5.780 -0.1809  1.8971 -0.7006
12766TIP3   OH259712   3.816   3.735  15.116  0.4655  0.3970 -0.3440
12766TIP3    H159713   3.892   3.725  15.058 -0.4095 -0.4283 -1.3760
12766TIP3    H259714   3.767   3.808  15.078 -0.7486 -0.9262 -1.4038
12767TIP3   OH259715   4.287   5.386   5.547  0.3109  0.0828  0.2061
12767TIP3    H159716   4.309   5.379   5.640  0.8364 -0.2640  0.0564
12767TIP3    H259717   4.289   5.480   5.529 -1.9791  0.3398  1.0647
12768TIP3   OH259718   1.616   3.568   0.038  0.7227 -0.2893  0.6157
12768TIP3    H159719   1.542   3.616   0.075  0.3196 -2.2803  2.4243
12768TIP3    H259720   1.594   3.476   0.051  1.0788 -1.0715 -3.6152
12769TIP3   OH259721   2.010   1.743  12.985  0.2356 -0.2271  0.0052
12769TIP3    H159722   1.947   1.746  12.913  1.0806 -1.0797 -0.7801
12769TIP3    H259723   1.963   1.699  13.056  0.0135 -1.0920 -0.6662
12770TIP3   OH259724   6.185   2.711  10.907 -0.2266 -0.3416  0.5736
12770TIP3    H159725   6.274   2.733  10.931  0.6105 -0.5423 -2.1262
12770TIP3    H259726   6.195   2.654  10.831 -2.6458 -0.7788  0.5476
12771TIP3   OH259727   2.184   2.066  15.984 -0.4680 -0.0444  0.2513
12771TIP3    H159728   2.246   2.095  16.050 -1.1698  0.4985  0.6788
12771TIP3    H259729   2.098   2.078  16.025 -0.8915 -0.0230 -0.6367
12772TIP3   OH259730   4.197   6.614   1.617  0.4756  0.4389 -0.4964
12772TIP3    H159731   4.184   6.683   1.683 -0.7052  3.2148 -3.5285
12772TIP3    H259732   4.142   6.542   1.647  2.4042  0.3789  3.2271
12773TIP3   OH259733   6.158   5.874   0.099  0.2464  0.5752  0.1953
12773TIP3    H159734   6.081   5.858   0.154  0.6828  0.2667  0.7299
12773TIP3    H259735   6.157   5.804   0.035 -0.7991  1.4866 -0.7975
12774TIP3   OH259736   0.086   6.525   0.442 -0.3757  0.1523  0.3918
12774TIP3    H159737   0.107   6.618   0.446  0.0715  0.2736 -3.1512
12774TIP3    H259738   0.016   6.519   0.378 -1.9446 -1.7563  2.2090
12775TIP3   OH259739   3.624   2.826  16.075  0.0408  0.3804 -0.0628
12775TIP3    H159740   3.609   2.910  16.118 -0.0619  0.0773  0.4973
12775TIP3    H259741   3.574   2.763  16.126  2.1244 -0.4288  1.0623
12776TIP3   OH259742   4.347   4.105  15.264  0.5910 -0.6194 -0.2916
12776TIP3    H159743   4.389   4.191  15.275 -0.5615 -0.3874  2.9941
12776TIP3    H259744   4.257   4.126  15.238  0.8759 -0.9018 -1.4979
12777TIP3   OH259745   6.721   5.896   4.537  0.7526  0.0861  0.5712
12777TIP3    H159746   6.709   5.972   4.479 -0.4427 -1.2356 -0.9263
12777TIP3    H259747   6.692   5.927   4.623 -1.6973  0.7325 -0.4487
12778TIP3   OH259748   5.064   2.933   3.009  0.8761 -0.8741 -0.1837
12778TIP3    H159749   5.099   2.894   3.089  1.1993 -1.9050 -0.8179
12778TIP3    H259750   5.140   2.970   2.965  0.6071  0.2364  0.2874
12779TIP3   OH259751   6.420   4.011   1.258  0.5117 -0.1677 -0.7246
12779TIP3    H159752   6.338   4.032   1.214  1.2550  0.8343 -1.6706
12779TIP3    H259753   6.426   4.075   1.329  0.5171 -0.1809 -0.7131
12780TIP3   OH259754   3.751   1.740   5.065  0.6036  0.1489 -0.0815
12780TIP3    H159755   3.704   1.804   5.119  1.2704  0.5346  0.0500
12780TIP3    H259756   3.803   1.690   5.128  1.7888  0.9492 -0.4108
12781TIP3   OH259757   1.024   0.649  17.083 -0.3702 -0.2318  0.5707
12781TIP3    H159758   0.952   0.622  17.025  0.0223 -0.2218  0.0716
12781TIP3    H259759   1.099   0.600  17.050  0.4209  1.6913 -0.5284
12782TIP3   OH259760   2.602   4.714  11.579 -0.9545 -0.1383  0.4018
12782TIP3    H159761   2.678   4.765  11.609  1.4723 -2.0169 -2.2460
12782TIP3    H259762   2.562   4.768  11.511  0.1550 -0.6264 -0.6703
12783TIP3   OH259763   6.708   1.078   3.642  0.0241  0.4530 -0.1316
12783TIP3    H159764   6.639   1.133   3.681  0.4080  0.8857 -0.0574
12783TIP3    H259765   6.742   1.028   3.716 -0.7070 -0.3082 -0.2957
12784TIP3   OH259766   6.720   5.343   2.401 -0.0869 -0.4739 -0.2540
12784TIP3    H159767   6.701   5.415   2.340 -0.4659 -0.2566  0.1185
12784TIP3    H259768   6.635   5.322   2.439  0.2055 -0.3785  0.4544
12785TIP3   OH259769   1.940   0.368   4.676  0.2999 -0.0059  0.1045
12785TIP3    H159770   2.016   0.401   4.723 -0.8289  0.5532  1.6157
12785TIP3    H259771   1.880   0.340   4.745 -0.1530 -2.1093 -1.0827
12786TIP3   OH259772   5.264   1.348  16.303  0.0101  0.0522  0.4100
12786TIP3    H159773   5.293   1.265  16.266 -0.4336  0.2342 -0.3443
12786TIP3    H259774   5.329   1.411  16.274  0.0036  0.0855  0.4706
12787TIP3   OH259775   5.128   4.801  14.721  0.3540  0.3925 -0.0492
12787TIP3    H159776   5.056   4.845  14.676  0.1011 -1.1976 -1.2602
12787TIP3    H259777   5.108   4.707  14.712  1.5337 -0.0211  1.3489
12788TIP3   OH259778   3.257   2.211   5.392 -0.9088 -0.6071  0.0453
12788TIP3    H159779   3.261   2.256   5.475 -4.6649 -1.3415  0.7500
12788TIP3    H259780   3.205   2.268   5.335  1.1982 -0.3275 -1.6705
12789TIP3   OH259781   0.760   1.818  16.944 -0.0315 -0.0074 -0.6287
12789TIP3    H159782   0.793   1.906  16.962 -0.0466 -0.0648 -0.3212
12789TIP3    H259783   0.777   1.805  16.851 -2.9106  1.5600 -1.4554
12790TIP3   OH259784   4.984   0.567   2.027 -0.2463  0.7643  0.6641
12790TIP3    H159785   4.970   0.606   1.941  0.6979 -2.2419 -0.9561
12790TIP3    H259786   5.064   0.607   2.059  0.0467  1.0589 -0.4128
12791TIP3   OH259787   6.742   3.630   3.414  0.5362 -0.3512  0.0787
12791TIP3    H159788   6.681   3.670   3.351  1.9781  0.9169 -0.5446
12791TIP3    H259789   6.772   3.550   3.372  1.9345  0.7845 -1.1241
12792TIP3   OH259790   1.283   0.864   5.980 -0.0334 -0.5501 -0.8209
12792TIP3    H159791   1.297   0.924   5.907 -0.1778  0.0076 -0.3961
12792TIP3    H259792   1.218   0.802   5.947  0.2811 -0.6077 -1.3405
12793TIP3   OH259793   6.045   6.647  16.211 -0.0978  0.1939  0.4408
12793TIP3    H159794   6.008   6.720  16.260  1.2012  1.9273 -1.0887
12793TIP3    H259795   6.039   6.572  16.271 -2.1161  1.3580  1.7668
12794TIP3   OH259796   2.276   4.173  10.795 -0.0513  0.0696  0.0019
12794TIP3    H159797   2.296   4.200  10.885 -1.1254 -1.1512  0.6186
12794TIP3    H259798   2.296   4.079  10.793 -0.7018 -0.0560 -0.8374
12795TIP3   OH259799   1.308   3.490   1.137 -0.2384 -0.5925 -0.3777
12795TIP3    H159800   1.295   3.469   1.045  2.4901 -0.2436 -0.8978
12795TIP3    H259801   1.311   3.586   1.140  0.0597 -0.6087 -0.0057
12796TIP3   OH259802   1.538   4.315  16.418 -0.8244  0.0532 -0.4901
12796TIP3    H159803   1.508   4.338  16.330  0.1876 -0.4228 -0.9655
12796TIP3    H259804   1.527   4.396  16.468 -1.8442  0.1940 -0.9325
12797TIP3   OH259805   4.412   2.976  14.959  0.1849 -0.4212 -0.1991
12797TIP3    H159806   4.412   2.888  14.923  0.2616 -0.5934  0.2106
12797TIP3    H259807   4.395   3.034  14.885  0.1588 -0.7813 -0.4698
12798TIP3   OH259808   3.458   5.606   5.920  0.6713 -0.1843 -0.5811
12798TIP3    H159809   3.412   5.596   6.003  0.2971  1.2696 -0.6104
12798TIP3    H259810   3.543   5.564   5.934  0.6241  0.0944  0.5421
12799TIP3   OH259811   0.990   5.306   6.068 -0.1251 -0.0426 -0.0377
12799TIP3    H159812   1.001   5.247   6.142 -1.0633  3.5602  3.0946
12799TIP3    H259813   0.918   5.268   6.017  0.2768 -2.3495  1.0651
12800TIP3   OH259814   1.181   1.393  15.308 -0.3827 -0.2577 -0.6638
12800TIP3    H159815   1.105   1.446  15.329  0.9217  1.4136 -0.0964
12800TIP3    H259816   1.220   1.371  15.392  0.0296 -0.7240 -0.9695
12801TIP3   OH259817   4.710   2.047  15.318 -0.4583  0.0002 -0.4023
12801TIP3    H159818   4.729   2.125  15.370 -2.0274  0.0601  0.1027
12801TIP3    H259819   4.687   1.980  15.383 -1.8113 -0.1016 -0.9631
12802TIP3   OH259820   2.437   5.246  16.536  0.6983 -0.0637 -0.0888
12802TIP3    H159821   2.481   5.172  16.578  1.1104  0.6903  0.8354
12802TIP3    H259822   2.352   5.251  16.579  0.4290 -0.3725 -0.5769
12803TIP3   OH259823   2.390   1.301  16.521  0.4059 -0.3904  0.0928
12803TIP3    H159824   2.326   1.276  16.454  0.4627  0.2104 -0.1866
12803TIP3    H259825   2.350   1.272  16.603 -0.0404 -0.3895 -0.1188
12804TIP3   OH259826   1.896   3.004   1.669  0.6188  0.4208 -0.3916
12804TIP3    H159827   1.806   3.018   1.638  0.5638 -0.4247 -0.6102
12804TIP3    H259828   1.946   3.077   1.631  0.0182  0.9214 -0.2294
12805TIP3   OH259829   4.099   1.077  15.882  0.8882 -0.9192 -0.3434
12805TIP3    H159830   4.035   1.014  15.915 -0.3988  0.0490 -0.9808
12805TIP3    H259831   4.176   1.063  15.937  0.5695 -2.9327 -0.3505
12806TIP3   OH259832   0.109   4.520  13.716 -0.3893 -0.0242 -0.3770
12806TIP3    H159833   0.128   4.605  13.756 -0.5347 -0.1783  0.0224
12806TIP3    H259834   0.187   4.500  13.665 -0.2362  0.2149 -0.2406
12807TIP3   OH259835   4.586   6.182   2.533 -0.4165 -0.3512 -0.3143
12807TIP3    H159836   4.548   6.253   2.585 -0.8024 -0.3487 -0.6023
12807TIP3    H259837   4.588   6.107   2.592 -0.2175 -0.1643 -0.0795
12808TIP3   OH259838   0.927   5.806  14.991 -0.2248 -0.0476  0.5606
12808TIP3    H159839   0.865   5.776  15.056  0.7613 -1.6264  0.8123
12808TIP3    H259840   0.890   5.777  14.907 -0.2512 -0.2384  0.6387
12809TIP3   OH259841   0.299   6.184  17.044 -0.1011 -0.3329  0.1627
12809TIP3    H159842   0.373   6.245  17.050 -1.3163  1.2493 -0.6964
12809TIP3    H259843   0.228   6.227  17.091 -0.5629 -1.7489  0.7837
12810TIP3   OH259844   5.372   0.631  16.675 -0.6649 -0.1769 -0.4228
12810TIP3    H159845   5.344   0.644  16.766  1.8433 -0.5690  0.4325
12810TIP3    H259846   5.372   0.536  16.663 -0.5548 -0.1439 -0.6854
12811TIP3   OH259847   3.628   1.500  12.070 -0.3603  0.0446 -0.1317
12811TIP3    H159848   3.721   1.515  12.053  0.3096 -3.0344  0.5297
12811TIP3    H259849   3.619   1.513  12.165 -0.5276  0.0257 -0.1444
12812TIP3   OH259850   1.618   4.833   1.500  0.1634 -0.4377  0.8739
12812TIP3    H159851   1.640   4.874   1.584  0.4593 -0.2910  0.7247
12812TIP3    H259852   1.536   4.875   1.474  0.1732 -0.3441  0.9953
12813TIP3   OH259853   0.889   4.197   5.548 -0.1614 -0.1656  0.3409
12813TIP3    H159854   0.980   4.227   5.551  0.3137 -1.3063 -1.5902
12813TIP3    H259855   0.838   4.278   5.540  0.6439  0.5099  1.7828
12814TIP3   OH259856   2.329   3.062  15.772  0.1410  0.0263 -0.1156
12814TIP3    H159857   2.239   3.066  15.739 -0.2167  1.9984  1.0295
12814TIP3    H259858   2.322   3.011  15.852 -0.2224  1.3497  0.7175
12815TIP3   OH259859   1.106   2.172   5.477 -0.0367 -0.2587  0.7222
12815TIP3    H159860   1.115   2.205   5.388 -0.8063  0.1975  0.8072
12815TIP3    H259861   1.081   2.081   5.467  1.2716 -0.5972  0.4830
12816TIP3   OH259862   0.907   4.754  14.043 -0.2610 -0.5514  0.7460
12816TIP3    H159863   0.971   4.807  14.090  0.5744 -0.4222 -0.5196
12816TIP3    H259864   0.959   4.698  13.986 -1.2799 -0.0190 -0.7605
12817TIP3   OH259865   4.126   3.425   1.831 -0.8778  0.0552 -0.2427
12817TIP3    H159866   4.160   3.339   1.857  0.6755  1.2369  1.7745
12817TIP3    H259867   4.073   3.453   1.906  2.0874  2.6805  0.9521
12818TIP3   OH259868   3.750   3.868   5.659 -0.0390  0.7097  0.4427
12818TIP3    H159869   3.763   3.961   5.641  1.6935  0.4725  0.3865
12818TIP3    H259870   3.735   3.863   5.753 -1.3118  1.1654  0.2614
12819TIP3   OH259871   2.883   4.880  11.617 -0.4568 -0.4318  0.2932
12819TIP3    H159872   2.960   4.927  11.650 -0.3503  0.3674 -1.0543
12819TIP3    H259873   2.864   4.921  11.532 -1.3189 -1.7863 -0.1897
12820TIP3   OH259874   1.627   0.755   0.646 -0.1523  0.1184  0.0436
12820TIP3    H159875   1.672   0.672   0.634  1.3810  1.0604 -0.8482
12820TIP3    H259876   1.678   0.801   0.713 -0.2047  0.8989 -0.4517
12821TIP3   OH259877   1.807   4.382   4.372  0.1075 -0.5152  0.7046
12821TIP3    H159878   1.893   4.395   4.332 -0.7268 -1.5241 -1.5157
12821TIP3    H259879   1.819   4.404   4.464  2.3669  0.8199  0.1169
12822TIP3   OH259880   1.513   4.699   3.860 -0.3286 -0.1125 -0.4658
12822TIP3    H159881   1.483   4.639   3.928 -0.7809 -1.5203 -1.8873
12822TIP3    H259882   1.603   4.673   3.843 -0.6899 -0.7150 -1.4469
12823TIP3   OH259883   2.168   1.276  15.279  0.2253  0.1626  0.2417
12823TIP3    H159884   2.169   1.181  15.279  1.7909  0.1676  1.0404
12823TIP3    H259885   2.258   1.302  15.260 -0.0665  1.4738  0.5532
12824TIP3   OH259886   5.020   0.204   4.293 -0.2029 -0.0312  0.3017
12824TIP3    H159887   5.017   0.112   4.266  0.2745 -0.2455  0.9639
12824TIP3    H259888   5.089   0.242   4.239 -0.2161 -0.1238  0.2185
12825TIP3   OH259889   2.341   1.728   1.378  0.7303 -0.3202 -0.2924
12825TIP3    H159890   2.407   1.706   1.444  0.0765 -0.1461  0.4276
12825TIP3    H259891   2.331   1.649   1.326 -0.3888 -1.2100  1.2334
12826TIP3   OH259892   4.061   0.418  12.995  0.2831 -0.0792 -0.0769
12826TIP3    H159893   4.054   0.355  13.067  0.0658  1.3999  1.2376
12826TIP3    H259894   4.043   0.503  13.036 -0.2834  0.7454 -1.9740
12827TIP3   OH259895   4.097   6.608  17.222  0.7170 -0.3667  0.0173
12827TIP3    H159896   4.052   6.595  17.306  0.3255  0.3443 -0.0722
12827TIP3    H259897   4.177   6.556  17.229  1.1325  0.4115  1.1919
12828TIP3   OH259898   5.519   1.034  14.202  0.4860 -0.2733 -1.0151
12828TIP3    H159899   5.457   0.967  14.175  0.0928  0.2621 -1.4707
12828TIP3    H259900   5.599   0.987  14.224  0.2289 -0.8790 -1.3836
12829TIP3   OH259901   1.961   6.165   6.016 -0.5901 -0.0933 -0.1714
12829TIP3    H159902   1.970   6.069   6.020 -0.2335 -0.0267  0.7295
12829TIP3    H259903   1.954   6.192   6.107  1.9644  1.0007 -0.2684
12830TIP3   OH259904   0.333   1.327   1.087  0.1428  0.2572  0.4787
12830TIP3    H159905   0.304   1.301   1.175 -1.3551 -2.1851 -0.6673
12830TIP3    H259906   0.425   1.303   1.084 -0.2686 -1.4990  0.7775
12831TIP3   OH259907   0.458   2.656  13.931 -0.1560 -0.0320  0.6515
12831TIP3    H159908   0.510   2.736  13.923 -0.0826 -0.2279 -0.9564
12831TIP3    H259909   0.497   2.595  13.868 -0.8331 -1.0006  1.1478
12832TIP3   OH259910   3.196   4.694  16.755  0.0126  0.3219 -0.0434
12832TIP3    H159911   3.174   4.610  16.715 -1.6764 -0.1996  1.8769
12832TIP3    H259912   3.195   4.676  16.849  0.5166  2.2907  0.3554
12833TIP3   OH259913   0.129   1.461   1.556  0.0939 -0.4424 -0.0229
12833TIP3    H159914   0.172   1.523   1.497  0.3798  2.1240  2.7530
12833TIP3    H259915   0.068   1.515   1.606 -1.4722 -2.8868  0.7781
12834TIP3   OH259916   3.355   4.714  14.777  0.0577 -0.0600 -0.2905
12834TIP3    H159917   3.437   4.756  14.753 -0.4648  1.0607 -0.1401
12834TIP3    H259918   3.372   4.620  14.767  1.1002  0.2021 -1.0478
12835TIP3   OH259919   2.182   6.610  15.575  0.6490  0.1618 -0.6415
12835TIP3    H159920   2.095   6.651  15.571  0.4701 -0.3511 -2.2607
12835TIP3    H259921   2.165   6.516  15.564  1.4190  0.0796 -1.1733
12836TIP3   OH259922   3.024   1.299  16.551  0.4741 -0.5732 -0.5126
12836TIP3    H159923   3.090   1.242  16.511  0.8080 -0.3211 -0.3244
12836TIP3    H259924   2.953   1.240  16.575  0.2772 -0.7286 -1.4584
12837TIP3   OH259925   3.610   2.634   2.640 -0.2804  0.0940  0.6167
12837TIP3    H159926   3.560   2.574   2.585 -1.2851  1.4889 -0.0054
12837TIP3    H259927   3.545   2.674   2.698  0.2165  1.3712  0.3091
12838TIP3   OH259928   5.702   3.940   4.331  0.2741 -0.3196 -0.6864
12838TIP3    H159929   5.784   3.953   4.283  0.9026  0.3298  0.5333
12838TIP3    H259930   5.726   3.884   4.405 -0.2199  0.5156  0.1106
12839TIP3   OH259931   4.693   2.312   0.809  0.1997 -0.2274 -0.4939
12839TIP3    H159932   4.647   2.283   0.888 -0.4771  0.1474 -0.7476
12839TIP3    H259933   4.723   2.401   0.830  0.0864 -0.1575 -0.6268
12840TIP3   OH259934   4.891   6.464  11.379  0.4714  0.0842  0.7094
12840TIP3    H159935   4.812   6.424  11.342  0.4746 -1.4667  2.2891
12840TIP3    H259936   4.961   6.401  11.360  0.9888  0.6241  0.8210
12841TIP3   OH259937   2.956   3.061  11.831  0.1270 -0.3162  0.4387
12841TIP3    H159938   2.963   3.152  11.801 -2.3417 -0.3375 -0.3387
12841TIP3    H259939   3.031   3.049  11.889  0.0966  2.4652  1.1505
12842TIP3   OH259940   5.034   3.616  11.194  0.4949 -0.0518 -0.5760
12842TIP3    H159941   5.019   3.566  11.114  1.6447 -0.1843 -0.7302
12842TIP3    H259942   5.127   3.601  11.213 -0.4310 -2.4704  2.4488
12843TIP3   OH259943   4.397   4.355   5.094 -0.0867  0.2825 -0.0688
12843TIP3    H159944   4.411   4.320   5.007 -3.3254 -1.6106  0.0720
12843TIP3    H259945   4.327   4.420   5.083  1.2430  1.9064  0.7500
12844TIP3   OH259946   5.545   5.426   0.879  0.7272  0.2052  0.4667
12844TIP3    H159947   5.467   5.476   0.857  0.6024 -0.3230 -0.3141
12844TIP3    H259948   5.618   5.485   0.858  0.5708  0.2070 -0.0877
12845TIP3   OH259949   6.561   4.323  15.372 -0.4286 -0.5853  0.0308
12845TIP3    H159950   6.499   4.281  15.313 -1.0647 -0.6092  0.7091
12845TIP3    H259951   6.639   4.339  15.318 -1.8224  1.5016 -1.4780
12846TIP3   OH259952   5.110   1.155   2.112 -0.1181  0.5445  0.4480
12846TIP3    H159953   5.105   1.245   2.080  2.9407  0.8434  0.7180
12846TIP3    H259954   5.158   1.108   2.044  1.0592 -0.1767  1.7584
12847TIP3   OH259955   3.736   0.548   0.098 -0.0329  0.1979  0.1245
12847TIP3    H159956   3.808   0.485   0.106  0.0999  0.1261 -1.3498
12847TIP3    H259957   3.776   0.627   0.062 -0.5662  0.4021 -0.0340
12848TIP3   OH259958   2.381   1.967   1.586  0.0369  0.2920 -0.4392
12848TIP3    H159959   2.332   2.036   1.542  1.0363  1.6785  0.6078
12848TIP3    H259960   2.349   1.886   1.546 -0.1642  1.4301 -2.6282
12849TIP3   OH259961   3.475   6.399   4.323  0.3913  0.1185 -0.5065
12849TIP3    H159962   3.490   6.398   4.418 -0.3892 -0.0275 -0.3819
12849TIP3    H259963   3.556   6.434   4.287  0.6957  0.1788  0.2173
12850TIP3   OH259964   1.749   6.338   5.653  0.8648 -0.1361  0.1218
12850TIP3    H159965   1.656   6.350   5.632  0.4436 -2.4896  0.5695
12850TIP3    H259966   1.757   6.365   5.744  0.6158  0.0291  0.0941
12851TIP3   OH259967   5.753   4.386   0.805  0.0264  0.2146 -0.2498
12851TIP3    H159968   5.785   4.342   0.725 -0.9640 -0.6124 -0.1917
12851TIP3    H259969   5.817   4.362   0.872 -0.5253 -1.2250 -0.2014
12852TIP3   OH259970   4.006   6.380  15.596 -0.1412  0.3491  0.3863
12852TIP3    H159971   4.008   6.451  15.660 -1.0083  1.8128 -1.1933
12852TIP3    H259972   4.088   6.390  15.547  0.5668 -0.8305  1.2694
12853TIP3   OH259973   6.562   3.603   0.485  0.7092  0.0882  0.1831
12853TIP3    H159974   6.590   3.557   0.564 -0.2666 -0.4407  0.2294
12853TIP3    H259975   6.572   3.696   0.506 -1.5922  0.0069  1.6964
12854TIP3   OH259976   5.720   5.095   2.655 -0.0194 -0.0907 -0.5312
12854TIP3    H159977   5.715   5.190   2.653  0.7150 -0.0134  0.5489
12854TIP3    H259978   5.732   5.074   2.748  4.6336 -0.9374 -1.1991
12855TIP3   OH259979   3.539   6.499  11.524 -0.0020 -0.0962 -0.3826
12855TIP3    H159980   3.469   6.490  11.590  0.2367  0.0247 -0.1125
12855TIP3    H259981   3.511   6.442  11.453 -1.7979  2.0558 -1.4886
12856TIP3   OH259982   5.388   3.508  17.064  0.1493 -0.3126  0.4502
12856TIP3    H159983   5.305   3.556  17.070 -0.0540 -0.7176  0.8998
12856TIP3    H259984   5.371   3.426  17.109  0.7464 -0.4726  0.3830
12857TIP3   OH259985   4.809   5.321   3.865 -0.3734  0.1604  0.4925
12857TIP3    H159986   4.725   5.287   3.836 -0.3976  1.1235 -0.5864
12857TIP3    H259987   4.791   5.411   3.891  0.1378  0.0741  1.1812
12858TIP3   OH259988   6.370   2.855   5.028 -0.2406 -0.0013  0.3794
12858TIP3    H159989   6.336   2.805   4.954  1.4479  0.6911 -0.8915
12858TIP3    H259990   6.459   2.878   5.002  0.3480  0.3159  2.6033
12859TIP3   OH259991   1.340   0.517  16.136 -0.1537 -0.4017  0.7161
12859TIP3    H159992   1.328   0.609  16.111 -3.6201 -0.6735  1.1033
12859TIP3    H259993   1.387   0.478  16.062  0.4206  1.4529  0.0754
12860TIP3   OH259994   4.269   5.803   4.293  0.2837 -0.0475  0.3702
12860TIP3    H159995   4.293   5.734   4.354  0.4062 -0.3362  0.0020
12860TIP3    H259996   4.321   5.785   4.215  0.4225  0.5436  0.3233
12861TIP3   OH259997   5.489   6.594  14.700 -0.0691 -0.2983  0.0304
12861TIP3    H159998   5.394   6.590  14.708  0.1340 -2.8198  1.6121
12861TIP3    H259999   5.522   6.553  14.780  2.3788  1.5842  0.0546
12862TIP3   OH260000   5.117   1.895  12.006  0.4658  0.3669 -0.1552
12862TIP3    H160001   5.211   1.882  12.021  0.4280 -0.9742 -0.9575
12862TIP3    H260002   5.110   1.980  11.963  1.3518  0.3237 -0.3850
12863TIP3   OH260003   1.265   5.240   4.544 -0.0249  0.3639  0.0344
12863TIP3    H160004   1.343   5.243   4.489  0.2811  2.0181  0.5237
12863TIP3    H260005   1.298   5.247   4.633 -0.6558 -0.0924  0.3040
12864TIP3   OH260006   3.285   2.687  12.008  0.4728 -0.0609  0.6633
12864TIP3    H160007   3.290   2.730  12.093 -0.9352 -1.2414  1.3739
12864TIP3    H260008   3.333   2.605  12.020  2.9573  1.1498 -0.6164
12865TIP3   OH260009   4.711   1.478   4.785  0.3403 -0.2945  0.5484
12865TIP3    H160010   4.736   1.547   4.724 -0.5721 -0.0042  0.4889
12865TIP3    H260011   4.776   1.409   4.772  0.1285 -0.2533 -0.7967
12866TIP3   OH260012   5.299   5.742  13.767  0.0861  1.0901  0.2241
12866TIP3    H160013   5.224   5.754  13.709 -1.6352 -0.5584  2.0146
12866TIP3    H260014   5.311   5.827  13.809 -0.3151  1.5656 -0.6086
12867TIP3   OH260015   6.356   0.952   2.879  0.0465  0.5398  0.1239
12867TIP3    H160016   6.350   1.044   2.904 -0.8049  0.5780 -0.2238
12867TIP3    H260017   6.298   0.943   2.803  0.5492 -0.1628 -0.1820
12868TIP3   OH260018   4.690   2.362   0.500  0.3976  0.2047 -0.3652
12868TIP3    H160019   4.688   2.396   0.410  0.5269  0.6418 -0.2054
12868TIP3    H260020   4.649   2.431   0.552  1.1929  0.3704  0.0431
12869TIP3   OH260021   1.962   0.092  11.764 -0.6021 -0.1091  0.1874
12869TIP3    H160022   1.955   0.188  11.762 -0.5751 -0.0505  1.9801
12869TIP3    H260023   1.920   0.067  11.846  2.3672 -1.3531  1.3965
12870TIP3   OH260024   4.097   5.694  12.894 -0.3935  0.2952  0.5816
12870TIP3    H160025   4.022   5.677  12.950 -0.5554 -0.3832  0.1788
12870TIP3    H260026   4.058   5.723  12.811 -0.2082  0.0159  0.3978
12871TIP3   OH260027   1.287   5.662   4.852 -0.1232 -0.3941  0.1691
12871TIP3    H160028   1.283   5.649   4.947 -0.0119 -1.0172  0.0924
12871TIP3    H260029   1.196   5.654   4.822  0.1368 -2.6889 -0.0817
12872TIP3   OH260030   4.171   3.043   3.365  0.1332  0.2130 -0.2452
12872TIP3    H160031   4.259   3.045   3.327  0.9362 -0.5723  1.5086
12872TIP3    H260032   4.115   3.010   3.294  1.6169 -1.3726 -0.7125
12873TIP3   OH260033   2.392   0.945  16.287 -0.3483  0.0477  0.1903
12873TIP3    H160034   2.428   0.886  16.221 -1.0046  0.9732 -1.0175
12873TIP3    H260035   2.317   0.985  16.245 -0.4484  1.0799  1.3196
12874TIP3   OH260036   0.762   3.473   1.371  0.0544  0.2527 -0.5480
12874TIP3    H160037   0.745   3.459   1.464  0.2096  1.5949 -0.3090
12874TIP3    H260038   0.831   3.409   1.350  0.4727  0.3759  0.4058
12875TIP3   OH260039   0.680   6.606  12.030  0.0569  0.2002  0.1527
12875TIP3    H160040   0.681   6.608  11.934  2.0814 -1.7860  0.0922
12875TIP3    H260041   0.617   6.538  12.052  0.4068 -0.1101  0.2004
12876TIP3   OH260042   1.638   6.111  12.333  0.2463  0.3626  0.0941
12876TIP3    H160043   1.554   6.133  12.374  0.2129  0.0383  0.1962
12876TIP3    H260044   1.702   6.165  12.380  0.3402 -0.7143  1.2133
12877TIP3   OH260045   5.810   0.764  16.774  0.3890 -0.3969  0.0188
12877TIP3    H160046   5.841   0.824  16.706 -0.1383 -1.0289 -0.7935
12877TIP3    H260047   5.747   0.815  16.825 -0.0330 -0.2553 -0.6490
12878TIP3   OH260048   5.576   1.087   3.002  0.0080  0.0990  0.1507
12878TIP3    H160049   5.491   1.085   2.957  0.1532 -1.6929 -0.0874
12878TIP3    H260050   5.631   1.142   2.946 -0.9666  1.2336  0.2838
12879TIP3   OH260051   1.576   5.284  12.906 -0.7003  0.1068  0.3830
12879TIP3    H160052   1.518   5.231  12.852  0.7030 -1.8325  0.7319
12879TIP3    H260053   1.587   5.366  12.857 -2.1794 -0.2529 -0.5816
12880TIP3   OH260054   0.455   4.108  12.208  0.0967  0.1405 -0.0289
12880TIP3    H160055   0.404   4.062  12.275 -2.2825 -1.2778 -2.6780
12880TIP3    H260056   0.415   4.195  12.203 -0.2091 -0.0029 -0.1072
12881TIP3   OH260057   2.081   2.099   5.575 -0.2335  0.3961  0.1275
12881TIP3    H160058   2.167   2.135   5.599 -0.7842  1.6799  0.2190
12881TIP3    H260059   2.073   2.115   5.481 -0.9422  1.5090  0.3728
12882TIP3   OH260060   1.573   0.608  14.478  0.0805  0.6977 -0.3425
12882TIP3    H160061   1.608   0.675  14.536  1.1885  1.2284 -1.6065
12882TIP3    H260062   1.590   0.641  14.390  1.8937 -1.8763 -1.0123
12883TIP3   OH260063   4.148   1.646   2.283 -0.2188  0.0693  0.4419
12883TIP3    H160064   4.081   1.706   2.317  1.3629  1.0578  1.9028
12883TIP3    H260065   4.169   1.679   2.196 -0.2786  0.8907  0.7371
12884TIP3   OH260066   3.795   5.354   0.764 -0.1094  0.4288  0.2902
12884TIP3    H160067   3.789   5.379   0.672  0.2537 -2.6575 -0.6470
12884TIP3    H260068   3.874   5.300   0.769 -0.1629  0.4822  2.4057
12885TIP3   OH260069   2.672   1.743  12.083 -0.1439 -0.0220 -0.0000
12885TIP3    H160070   2.756   1.716  12.048  0.6289  1.8271  0.3249
12885TIP3    H260071   2.672   1.839  12.073 -1.6681  0.1209  1.1320
12886TIP3   OH260072   6.235   1.026   0.405  0.3967 -0.1475 -0.2038
12886TIP3    H160073   6.186   1.094   0.451 -0.4037 -0.9750  0.1793
12886TIP3    H260074   6.169   0.961   0.381  0.9503 -0.1623 -1.7256
12887TIP3   OH260075   4.330   3.805   5.755  0.2953  0.4681 -0.4735
12887TIP3    H160076   4.360   3.894   5.773  2.0200 -0.3032  0.6365
12887TIP3    H260077   4.367   3.752   5.825 -1.1340 -1.0671 -0.8179
12888TIP3   OH260078   6.128   2.649  12.114  0.3777 -0.5661 -0.0212
12888TIP3    H160079   6.155   2.740  12.109 -0.1065 -0.3322  1.3104
12888TIP3    H260080   6.196   2.601  12.066 -0.4527  0.6770 -2.5468
12889TIP3   OH260081   1.197   3.366  11.583 -0.1306 -0.0161  0.0693
12889TIP3    H160082   1.196   3.379  11.678 -0.7767 -1.3092  0.2502
12889TIP3    H260083   1.252   3.437  11.550  0.9322 -0.1409  1.5092
12890TIP3   OH260084   2.164   6.008   4.013  0.6201 -0.1429  0.0679
12890TIP3    H160085   2.247   5.960   4.014  0.8566  0.2680  0.1020
12890TIP3    H260086   2.103   5.948   3.969  0.7413 -0.7544  0.7296
12891TIP3   OH260087   3.101   4.996  14.024  0.3262 -0.3102 -0.1267
12891TIP3    H160088   3.179   4.988  14.078 -0.1856 -0.7249  0.5692
12891TIP3    H260089   3.099   5.088  13.997  1.0204 -0.2892 -0.1018
12892TIP3   OH260090   3.680   0.911   3.988  0.5350  0.7322  0.3608
12892TIP3    H160091   3.641   0.874   3.909 -0.6065  0.6774  0.9407
12892TIP3    H260092   3.645   1.000   3.993 -0.1956  0.4002  1.3372
12893TIP3   OH260093   5.212   4.659  13.516 -0.5182  0.0323 -0.1247
12893TIP3    H160094   5.160   4.667  13.595 -0.0244  0.9608  0.1190
12893TIP3    H260095   5.244   4.748  13.499  1.7491 -0.6769  0.2495
12894TIP3   OH260096   1.007   4.231  15.325  0.4751 -0.1493  0.0539
12894TIP3    H160097   1.013   4.136  15.331 -0.9554 -0.1866  1.0088
12894TIP3    H260098   0.913   4.249  15.313  0.6253  1.1706  0.7184
12895TIP3   OH260099   1.288   3.122   3.905  0.4231 -0.0047 -0.3368
12895TIP3    H160100   1.335   3.112   3.822  0.9111  1.4266 -0.2432
12895TIP3    H260101   1.347   3.084   3.970  0.3365 -0.5149 -0.5540
12896TIP3   OH260102   5.892   3.147   2.231 -0.1583  0.3546 -0.4924
12896TIP3    H160103   5.855   3.232   2.256 -0.9058 -0.0308 -0.2738
12896TIP3    H260104   5.914   3.157   2.138  3.1570  1.9826  0.3668
12897TIP3   OH260105   6.151   6.697   4.804 -0.6428  0.7008 -0.2147
12897TIP3    H160106   6.216   6.666   4.867  0.6876  1.8493 -0.9837
12897TIP3    H260107   6.117   6.618   4.763 -1.2402 -0.0386  1.6413
12898TIP3   OH260108   5.442   4.992   2.787 -0.2650 -0.6384 -0.2401
12898TIP3    H160109   5.505   4.920   2.783 -0.1790 -0.5014 -1.5810
12898TIP3    H260110   5.471   5.045   2.861  1.6398 -0.1760 -1.2725
12899TIP3   OH260111   4.187   0.094  11.278  0.0814  0.5520 -0.1114
12899TIP3    H160112   4.195   0.190  11.281 -0.7135  0.6878 -1.8344
12899TIP3    H260113   4.186   0.073  11.184 -1.4642 -1.0035  0.2268
12900TIP3   OH260114   2.612   4.619   4.045  0.0617  0.1290 -0.3331
12900TIP3    H160115   2.619   4.590   4.136 -3.1450 -0.0384 -0.0846
12900TIP3    H260116   2.672   4.562   3.997 -0.5693 -1.8936  1.2134
12901TIP3   OH260117   6.618   6.777  13.003 -0.0391 -0.0681 -0.0231
12901TIP3    H160118   6.710   6.800  13.008 -0.3298  1.2003 -0.3857
12901TIP3    H260119   6.574   6.834  13.066 -0.5364 -0.9024  0.3985
12902TIP3   OH260120   4.720   4.330  15.566  0.0645  0.6161 -0.0811
12902TIP3    H160121   4.807   4.296  15.543  0.6418  1.2394  1.1214
12902TIP3    H260122   4.714   4.414  15.520  0.6790  1.2292  0.9218
12903TIP3   OH260123   1.466   4.346   2.065  0.0694 -0.2759 -0.1732
12903TIP3    H160124   1.454   4.268   2.011 -0.7257 -0.3391  0.0973
12903TIP3    H260125   1.545   4.387   2.030  0.6450 -1.3493 -0.1387
12904TIP3   OH260126   3.921   6.353  15.339 -0.1118  0.1649  0.4604
12904TIP3    H160127   3.995   6.381  15.285  0.6133 -0.2097  1.2485
12904TIP3    H260128   3.950   6.367  15.429 -0.6701 -0.8027  0.7994
12905TIP3   OH260129   4.172   5.993   0.820  0.5183  0.2521 -0.1400
12905TIP3    H160130   4.191   5.931   0.750 -0.0625 -0.1620  0.0675
12905TIP3    H260131   4.207   6.077   0.789 -0.4021  0.2314 -1.2360
12906TIP3   OH260132   2.035   2.506   6.532  0.0890  0.1620 -0.3303
12906TIP3    H160133   1.946   2.488   6.561 -0.3696  0.8089 -1.3151
12906TIP3    H260134   2.082   2.423   6.544 -0.8928 -0.4559 -0.7147
12907TIP3   OH260135   6.668   2.774   0.704 -0.4851  0.5746 -0.5791
12907TIP3    H160136   6.601   2.723   0.750  1.3930 -1.0083  0.4820
12907TIP3    H260137   6.635   2.782   0.615 -2.3056  0.2230  0.0463
12908TIP3   OH260138   2.263   5.457  15.498 -0.1022 -0.3320  0.4252
12908TIP3    H160139   2.343   5.425  15.539  0.6682  0.9264 -0.0434
12908TIP3    H260140   2.273   5.553  15.498 -1.4278 -0.1847  0.0069
12909TIP3   OH260141   0.610   0.470   4.193 -0.2834  0.0656 -0.3622
12909TIP3    H160142   0.636   0.453   4.283  1.7695 -0.7121 -1.0641
12909TIP3    H260143   0.649   0.555   4.172 -2.0405  0.9528 -0.0366
12910TIP3   OH260144   1.089   5.678   3.908  0.0423  0.6195 -0.3613
12910TIP3    H160145   1.080   5.732   3.829  0.2523  0.7506 -0.2947
12910TIP3    H260146   1.091   5.741   3.980  2.4176  0.6545 -0.4287
12911TIP3   OH260147   1.779   2.033   5.495 -0.3002  0.0687  0.1839
12911TIP3    H160148   1.766   2.021   5.401  1.3762 -1.1326  0.0878
12911TIP3    H260149   1.860   2.084   5.502 -0.1011 -0.3491  0.9880
12912TIP3   OH260150   5.763   3.625  13.908  0.0474  0.0165 -0.3575
12912TIP3    H160151   5.726   3.552  13.859  0.1421 -1.5431  1.8061
12912TIP3    H260152   5.777   3.590  13.996  2.4338  1.8935  0.0760
12913TIP3   OH260153   3.917   0.404  16.399  0.7045  0.1408 -0.0426
12913TIP3    H160154   3.905   0.467  16.470 -1.6866 -0.7684  0.4157
12913TIP3    H260155   3.922   0.319  16.442  1.3223 -0.2387 -0.8387
12914TIP3   OH260156   4.357   2.111   6.475 -1.0658  0.2071  0.7764
12914TIP3    H160157   4.413   2.124   6.398 -2.5942  2.0118 -0.0652
12914TIP3    H260158   4.413   2.130   6.550  0.9701 -3.3531  0.2560
12915TIP3   OH260159   6.312   4.235  13.343 -0.2908  0.1161 -0.1267
12915TIP3    H160160   6.337   4.294  13.414  1.5565  0.6251 -1.1779
12915TIP3    H260161   6.254   4.287  13.287  1.4973  1.0283 -1.1615
12916TIP3   OH260162   0.797   0.435   4.672 -0.1714  0.2825  0.3648
12916TIP3    H160163   0.806   0.407   4.764  0.5522 -0.0904  0.1854
12916TIP3    H260164   0.885   0.465   4.648 -0.2659 -0.0064 -0.3301
12917TIP3   OH260165   0.521   1.143  16.943 -0.7734  0.1617  0.1018
12917TIP3    H160166   0.599   1.145  16.999 -1.3313  1.6068  0.8454
12917TIP3    H260167   0.486   1.232  16.947 -2.2217 -0.3642 -0.5869
12918TIP3   OH260168   0.552   6.252  15.120 -0.3532 -0.2917 -0.5946
12918TIP3    H160169   0.510   6.175  15.157 -0.9178  0.0012 -0.6320
12918TIP3    H260170   0.602   6.290  15.192  0.2299 -0.9003 -0.6680
12919TIP3   OH260171   0.009   5.144  11.366  0.3215 -0.2505 -0.8831
12919TIP3    H160172   0.048   5.132  11.280  0.0368 -2.5627 -0.7194
12919TIP3    H260173  -0.070   5.090  11.364  1.0358 -1.4353  1.2618
12920TIP3   OH260174   2.031   2.368  12.954 -0.3657  0.1059  0.5499
12920TIP3    H160175   1.952   2.417  12.977 -0.1785 -0.2508  1.9871
12920TIP3    H260176   2.069   2.342  13.038  1.3207  0.3296 -0.1176
12921TIP3   OH260177   5.247   2.484   0.213 -0.3713  0.4666  0.7196
12921TIP3    H160178   5.322   2.538   0.238  0.6209 -0.0310 -1.0585
12921TIP3    H260179   5.175   2.546   0.204  0.7423  1.5320 -1.2323
12922TIP3   OH260180   5.672   2.006   0.017 -0.0372 -0.1105 -0.0617
12922TIP3    H160181   5.630   2.078   0.065  0.4480 -0.7393  1.3032
12922TIP3    H260182   5.746   2.047  -0.027  0.7440  0.0589  1.4102
12923TIP3   OH260183   5.025   4.032  13.842 -0.1026  0.0378 -0.0294
12923TIP3    H160184   5.109   4.065  13.874 -0.2898  0.0426  0.4659
12923TIP3    H260185   5.042   3.943  13.814  0.2346  0.2932 -0.6291
12924TIP3   OH260186   5.481   3.732  11.539  0.4813 -0.0594 -0.3210
12924TIP3    H160187   5.537   3.666  11.498  0.2204 -0.1903 -0.4678
12924TIP3    H260188   5.537   3.774  11.604  0.6818 -0.3491 -0.3059
12925TIP3   OH260189   2.556   2.269   2.883  0.7046 -0.7478  0.4077
12925TIP3    H160190   2.634   2.240   2.835  0.2410 -0.3113 -0.6289
12925TIP3    H260191   2.521   2.190   2.924  0.5568 -1.3062 -0.7763
12926TIP3   OH260192   3.851   4.707  12.831 -0.0042  0.3036 -0.3826
12926TIP3    H160193   3.868   4.712  12.737 -0.4140 -0.8020 -0.5282
12926TIP3    H260194   3.845   4.798  12.860 -0.1836  0.6461 -1.4843
12927TIP3   OH260195   2.902   4.698   1.522  0.1177  0.2503  0.0126
12927TIP3    H160196   2.923   4.730   1.434 -1.8253  0.6443 -0.3270
12927TIP3    H260197   2.926   4.770   1.580 -0.5767  0.8053 -0.3913
12928TIP3   OH260198   4.733   2.854   2.432 -0.0859 -0.1184 -0.7031
12928TIP3    H160199   4.669   2.924   2.420 -1.8113 -1.2857  1.2208
12928TIP3    H260200   4.680   2.775   2.446  1.7730 -1.2527  0.1952
12929TIP3   OH260201   6.409   1.646  15.931 -0.3820  0.0991  0.4841
12929TIP3    H160202   6.499   1.659  15.959 -0.9237  1.0018  1.8727
12929TIP3    H260203   6.405   1.684  15.843  0.6275 -0.1039  0.3518
12930TIP3   OH260204   2.551   2.311   5.143  0.1980 -0.2949  0.0033
12930TIP3    H160205   2.468   2.334   5.184  0.7317 -1.3541  1.7072
12930TIP3    H260206   2.535   2.321   5.049 -1.9573 -0.8417  0.3000
12931TIP3   OH260207   3.552   6.234  10.544  0.1825  0.0056 -0.3844
12931TIP3    H160208   3.459   6.244  10.524 -0.1813 -0.5197  0.9592
12931TIP3    H260209   3.556   6.157  10.601  1.4049  0.2144 -0.1742
12932TIP3   OH260210   5.954   5.379  14.902  0.4404  0.1523  0.1507
12932TIP3    H160211   5.877   5.377  14.960  0.3665 -0.6174  0.0331
12932TIP3    H260212   5.994   5.465  14.919  0.3627 -0.0178  1.2738
12933TIP3   OH260213   6.173   3.475  17.053  0.4225 -0.2569  0.2505
12933TIP3    H160214   6.191   3.385  17.025  0.4006 -0.3668  0.5906
12933TIP3    H260215   6.249   3.525  17.023  0.4512 -0.3930  0.0927
12934TIP3   OH260216   6.261   0.603   4.386 -0.5821 -0.3581 -0.1510
12934TIP3    H160217   6.176   0.613   4.427 -0.7921 -1.7650 -0.2183
12934TIP3    H260218   6.316   0.564   4.455 -0.2896 -0.4956 -0.4635
12935TIP3   OH260219   4.986   6.501  15.100 -0.1432  0.3872 -0.5038
12935TIP3    H160220   4.924   6.525  15.031 -2.2428 -0.8726  0.9063
12935TIP3    H260221   5.067   6.548  15.077 -1.4955  1.7713 -2.5549
12936TIP3   OH260222   3.352   3.515   0.292  0.2034  0.2945  0.1455
12936TIP3    H160223   3.296   3.439   0.306  0.0963  0.2271 -0.6712
12936TIP3    H260224   3.347   3.532   0.198  1.4220  0.3967  0.1007
12937TIP3   OH260225   3.385   3.801   6.017  0.3697 -1.0299  0.2866
12937TIP3    H160226   3.293   3.820   6.036  0.0722 -1.1676 -0.9834
12937TIP3    H260227   3.432   3.878   6.048 -0.3000 -0.4484 -0.1205
12938TIP3   OH260228   4.427   2.913  14.179 -0.0232  0.6908 -0.0292
12938TIP3    H160229   4.428   3.001  14.216 -0.5013  0.4857  0.4733
12938TIP3    H260230   4.366   2.919  14.105 -1.1462  0.4364  0.8674
12939TIP3   OH260231   1.871   6.387   5.407  0.1854 -0.0075  0.7665
12939TIP3    H160232   1.804   6.439   5.362  0.3328  0.0140  0.5760
12939TIP3    H260233   1.836   6.377   5.496 -1.3472 -2.2839 -0.0639
12940TIP3   OH260234   2.475   2.293   0.996 -0.3422  0.4729 -0.7263
12940TIP3    H160235   2.550   2.234   0.982 -0.6579  0.4630 -2.4595
12940TIP3    H260236   2.515   2.375   1.027  0.2643  0.0210 -0.2962
12941TIP3   OH260237   4.834   4.033   1.337  0.5634 -0.0521 -0.5700
12941TIP3    H160238   4.861   4.123   1.358  1.2970 -0.4138  0.0864
12941TIP3    H260239   4.897   3.978   1.385  0.3650 -0.9086 -1.2885
12942TIP3   OH260240   5.805   6.716   4.101 -0.2008 -0.2801  0.6945
12942TIP3    H160241   5.825   6.630   4.065 -0.4188 -0.1219  0.1897
12942TIP3    H260242   5.710   6.719   4.104 -0.2495  0.7174 -1.1955
12943TIP3   OH260243   6.783   5.180   0.950  0.1570 -0.4885  0.8518
12943TIP3    H160244   6.744   5.101   0.986 -0.1629 -0.3467  0.8135
12943TIP3    H260245   6.876   5.173   0.972  0.3139 -1.3937 -0.0873
12944TIP3   OH260246   5.416   6.236  14.204 -0.1133  0.3418  0.4881
12944TIP3    H160247   5.336   6.194  14.236 -0.4391  0.1955 -0.5032
12944TIP3    H260248   5.439   6.186  14.126 -0.8973  2.4535 -1.1258
12945TIP3   OH260249   6.245   5.300   1.441  0.0527 -0.0552 -0.0546
12945TIP3    H160250   6.161   5.254   1.446 -0.8971  1.7727  2.0402
12945TIP3    H260251   6.247   5.353   1.521  2.0262  1.9186 -1.3725
12946TIP3   OH260252   4.469   1.898  11.917  1.2729 -0.2210 -0.2817
12946TIP3    H160253   4.489   1.976  11.969  3.1187 -0.3579 -0.7601
12946TIP3    H260254   4.497   1.825  11.972 -2.8868 -0.7761  1.3147
12947TIP3   OH260255   4.552   2.264  14.134 -0.3318  0.4346 -0.0333
12947TIP3    H160256   4.488   2.296  14.198 -0.7181 -1.0527  0.3628
12947TIP3    H260257   4.503   2.259  14.052  0.0262  1.8654 -0.3431
12948TIP3   OH260258   6.219   1.775   1.911 -0.6064 -0.1401  0.3138
12948TIP3    H160259   6.187   1.841   1.973 -0.2459  0.5376 -0.2176
12948TIP3    H260260   6.205   1.815   1.825 -0.5608 -0.8403 -0.0172
12949TIP3   OH260261   4.549   3.496   3.426  0.2793  0.1098 -0.2696
12949TIP3    H160262   4.551   3.520   3.334 -0.7547  0.8861 -0.1047
12949TIP3    H260263   4.595   3.413   3.431 -1.3297 -0.8994 -1.7941
12950TIP3   OH260264   1.923   5.669   6.313 -0.0573 -0.2868  0.4911
12950TIP3    H160265   1.893   5.579   6.302 -1.5154  0.2616 -0.0803
12950TIP3    H260266   1.893   5.694   6.401 -1.0450  0.1822  0.0160
12951TIP3   OH260267   4.935   3.300   3.354  0.2999  0.1431  0.4691
12951TIP3    H160268   4.953   3.355   3.278  0.6427 -1.0839 -0.3656
12951TIP3    H260269   4.961   3.212   3.326  1.2851 -0.1795  2.3101
12952TIP3   OH260270   5.137   2.611   4.726 -0.5146  0.0556 -0.2274
12952TIP3    H160271   5.210   2.573   4.775 -1.9551 -1.5649  0.7247
12952TIP3    H260272   5.175   2.686   4.681  1.9231 -1.2059 -0.3774
12953TIP3   OH260273   1.730   3.464  15.484 -0.5989 -0.2916 -0.4993
12953TIP3    H160274   1.825   3.475  15.477 -0.5206 -1.3125 -1.0866
12953TIP3    H260275   1.694   3.540  15.437 -0.0718 -0.2630 -0.8604
12954TIP3   OH260276   3.209   1.494   5.774 -0.4512  0.3896 -0.2241
12954TIP3    H160277   3.299   1.465   5.788 -1.2138 -1.8467  0.2930
12954TIP3    H260278   3.214   1.554   5.700  2.0105  3.3905  2.1913
12955TIP3   OH260279   0.226   5.625   1.880  0.2335  0.2521 -0.2026
12955TIP3    H160280   0.175   5.705   1.870 -0.7531  0.1434  3.1548
12955TIP3    H260281   0.317   5.653   1.882 -0.0161  1.0916 -0.8201
12956TIP3   OH260282   1.658   2.257   1.224 -0.2204  0.3028  0.7517
12956TIP3    H160283   1.680   2.195   1.293 -1.8067 -0.0334  0.9717
12956TIP3    H260284   1.736   2.259   1.167 -0.1288 -1.8276  0.7829
12957TIP3   OH260285   1.214   0.778   2.553  0.1616  0.5214  0.0031
12957TIP3    H160286   1.196   0.856   2.606  0.2072 -0.3292  1.3138
12957TIP3    H260287   1.279   0.729   2.604 -0.4887 -0.7738 -0.3746
12958TIP3   OH260288   1.500   2.901  12.448  0.5556 -0.3589  0.7072
12958TIP3    H160289   1.442   2.947  12.387 -1.0928 -2.4617  0.6618
12958TIP3    H260290   1.452   2.899  12.531  1.5884 -0.0182  1.3218
12959TIP3   OH260291   2.451   5.424   2.286  0.7437  0.9209 -0.0222
12959TIP3    H160292   2.540   5.452   2.265  1.7656 -3.7172 -2.7496
12959TIP3    H260293   2.458   5.386   2.374  0.5334  4.0039  1.3724
12960TIP3   OH260294   5.857   5.276   3.537  0.0483  0.1189 -0.0811
12960TIP3    H160295   5.804   5.257   3.460 -0.8796  1.7052  0.1321
12960TIP3    H260296   5.947   5.277   3.505 -0.1374 -1.4485 -0.6800
12961TIP3   OH260297   4.740   3.204  10.361  0.1232 -0.4342 -0.0637
12961TIP3    H160298   4.813   3.258  10.389 -0.4855  1.5174 -2.0970
12961TIP3    H260299   4.770   3.114  10.374  2.4140  0.3604  0.2495
12962TIP3   OH260300   0.166   0.403  15.797 -0.2594 -0.3064  0.4965
12962TIP3    H160301   0.235   0.398  15.730  0.7690 -0.4449  1.5492
12962TIP3    H260302   0.128   0.315  15.798 -1.6262  0.2482 -1.2994
12963TIP3   OH260303   2.880   5.885   4.557  0.4359 -0.1385 -0.0709
12963TIP3    H160304   2.807   5.840   4.599  2.0241 -1.6909  1.1389
12963TIP3    H260305   2.956   5.863   4.611  1.6770  2.1024 -0.8154
12964TIP3   OH260306   5.403   4.585   1.967 -0.3078 -0.6841 -0.5879
12964TIP3    H160307   5.393   4.626   2.053 -3.5419 -2.1355 -0.1849
12964TIP3    H260308   5.475   4.523   1.979  0.3476  0.2732  0.5900
12965TIP3   OH260309   2.502   3.619   4.490  0.2376 -0.0126  0.1784
12965TIP3    H160310   2.571   3.684   4.505 -1.5276  1.6488  1.2711
12965TIP3    H260311   2.443   3.661   4.428  0.1689 -1.4214 -0.7413
12966TIP3   OH260312   2.616   1.937  13.393 -0.1232  0.5564  0.1579
12966TIP3    H160313   2.697   1.967  13.351 -0.0043 -0.5922 -0.4477
12966TIP3    H260314   2.604   1.998  13.466  1.9026  0.0732  0.9405
12967TIP3   OH260315   0.995   4.035   0.713  0.2367 -0.1265 -0.0053
12967TIP3    H160316   0.951   4.034   0.798  0.9119  3.6253  0.5058
12967TIP3    H260317   0.926   4.061   0.651  0.0533 -1.5233 -0.3898
12968TIP3   OH260318   3.468   1.054   2.017  0.9302  0.3078 -0.4701
12968TIP3    H160319   3.545   1.041   1.961  0.5143  0.5176 -1.1045
12968TIP3    H260320   3.496   1.118   2.082  0.2557  3.1706 -2.8576
12969TIP3   OH260321   3.495   1.256  12.699  0.1368 -0.2433  0.4441
12969TIP3    H160322   3.427   1.320  12.681 -0.5140 -1.2444 -0.6668
12969TIP3    H260323   3.504   1.257  12.795 -0.4968  0.8391  0.4972
12970TIP3   OH260324   5.628   2.337  13.288  0.4184 -0.4238  0.7435
12970TIP3    H160325   5.623   2.270  13.219 -0.8121 -1.4169  1.7707
12970TIP3    H260326   5.585   2.414  13.250  0.0348 -0.8640  0.2800
12971TIP3   OH260327   2.507   2.574  15.600  0.4993 -0.3460 -0.0416
12971TIP3    H160328   2.520   2.622  15.682 -1.1725  1.4768 -0.8252
12971TIP3    H260329   2.594   2.573  15.559  1.0461 -0.0554  1.0821
12972TIP3   OH260330   1.246   0.900   4.254 -0.3835 -0.0636 -0.0459
12972TIP3    H160331   1.272   0.951   4.331 -1.0615  1.5354 -0.8421
12972TIP3    H260332   1.294   0.940   4.182  0.3686 -1.6590 -0.4380
12973TIP3   OH260333   6.617   5.016  11.831 -0.2444  0.0466 -0.3455
12973TIP3    H160334   6.675   5.075  11.783  0.4723  0.6763  1.2481
12973TIP3    H260335   6.591   5.066  11.908 -1.9244 -0.6887 -0.4160
12974TIP3   OH260336   4.455   1.822  11.259 -0.0469 -0.4049 -0.5843
12974TIP3    H160337   4.484   1.903  11.302  2.7404 -1.0257 -1.2485
12974TIP3    H260338   4.363   1.814  11.285 -0.0463  2.3389  0.4696
12975TIP3   OH260339   0.561   6.687  16.593  0.4805 -0.3015  0.5208
12975TIP3    H160340   0.508   6.755  16.634  0.4355 -0.3882  0.6028
12975TIP3    H260341   0.600   6.730  16.517 -2.3957 -1.1644 -1.5114
12976TIP3   OH260342   2.091   4.231  15.959  0.4784 -0.0721 -0.1551
12976TIP3    H160343   2.042   4.303  15.921  0.5879 -0.2414 -0.6191
12976TIP3    H260344   2.183   4.254  15.947  0.5315  0.5404  1.2677
12977TIP3   OH260345   2.731   0.777   2.661  0.4296  0.6107 -0.3882
12977TIP3    H160346   2.821   0.770   2.693 -0.0398 -4.1715  0.3200
12977TIP3    H260347   2.739   0.777   2.566  1.2153 -0.8727 -0.3446
12978TIP3   OH260348   4.986   5.814   0.645 -0.3559 -0.4649  0.0045
12978TIP3    H160349   4.924   5.786   0.578 -0.1660 -3.1992  0.8932
12978TIP3    H260350   5.014   5.732   0.686  4.2725  0.6293 -0.7335
12979TIP3   OH260351   2.210   2.639   3.342 -0.2089 -0.7331 -0.3983
12979TIP3    H160352   2.180   2.630   3.432 -0.0188  0.6851 -0.1784
12979TIP3    H260353   2.245   2.553   3.319 -1.0773 -1.3550  0.5729
12980TIP3   OH260354   5.738   3.445   0.994  0.3477  0.1365  0.6207
12980TIP3    H160355   5.737   3.443   0.899  1.4607  0.2265  0.5968
12980TIP3    H260356   5.647   3.429   1.020  0.1274 -0.3456 -0.4374
12981TIP3   OH260357   0.509   0.073   0.087 -0.0538  0.2513  0.5038
12981TIP3    H160358   0.476   0.162   0.071 -1.1457 -0.4228 -1.0836
12981TIP3    H260359   0.432   0.022   0.111  0.3709 -0.5677  0.1268
12982TIP3   OH260360   3.938   6.363  16.948 -0.3659  0.3368  0.3762
12982TIP3    H160361   3.931   6.274  16.983  0.1139 -0.3685 -1.2765
12982TIP3    H260362   3.848   6.388  16.927 -0.4935  0.2309  0.7916
12983TIP3   OH260363   5.124   0.286  11.544 -0.1729  0.8581  0.4988
12983TIP3    H160364   5.111   0.380  11.528  0.7629  0.8297 -0.4474
12983TIP3    H260365   5.037   0.254  11.566 -0.7719  1.6791 -0.6025
12984TIP3   OH260366   0.108   5.253   6.723  0.3266  0.1739  0.0377
12984TIP3    H160367   0.114   5.193   6.798 -0.2371 -0.1069 -0.1393
12984TIP3    H260368   0.184   5.233   6.670  0.2529 -0.2440  0.0860
12985TIP3   OH260369   1.376   0.434  14.974 -0.0776  0.2839  0.2475
12985TIP3    H160370   1.314   0.476  15.033 -1.8701  1.1615 -2.1834
12985TIP3    H260371   1.371   0.485  14.893  1.7501 -1.3336 -0.9394
12986TIP3   OH260372   6.638   5.831   4.189 -0.3553 -0.8561  0.1143
12986TIP3    H160373   6.617   5.772   4.261  0.2326 -1.9406 -0.5792
12986TIP3    H260374   6.585   5.798   4.116  0.1501 -0.6699 -0.3353
12987TIP3   OH260375   6.317   2.277   3.677  0.4831  0.0015  0.1755
12987TIP3    H160376   6.325   2.369   3.651 -1.1767  0.0152 -0.3572
12987TIP3    H260377   6.270   2.236   3.604 -0.3411 -0.9023  1.2009
12988TIP3   OH260378   6.395   3.777   1.418  0.0099  0.5050 -0.3963
12988TIP3    H160379   6.304   3.748   1.404 -0.1776  0.0369  1.6793
12988TIP3    H260380   6.400   3.861   1.372 -1.4430  0.4895 -0.6118
12989TIP3   OH260381   1.786   4.415  13.651 -0.6561  0.2676 -0.0997
12989TIP3    H160382   1.691   4.422  13.665 -0.8260 -1.6074 -0.1553
12989TIP3    H260383   1.796   4.334  13.601  0.9934  0.4370 -0.0455
12990TIP3   OH260384   5.343   0.457   2.610 -0.5674  0.8041  0.1770
12990TIP3    H160385   5.299   0.543   2.604  0.8201  1.5368  0.2906
12990TIP3    H260386   5.391   0.461   2.693  1.0966  0.6907 -0.7542
12991TIP3   OH260387   2.669   4.601   3.184 -0.4014 -0.0321  0.2190
12991TIP3    H160388   2.611   4.648   3.244 -0.0500 -1.7276  1.9036
12991TIP3    H260389   2.620   4.522   3.161  0.1620 -0.2056 -0.4008
12992TIP3   OH260390   3.785   1.330  15.756 -0.2175 -0.6336  0.1840
12992TIP3    H160391   3.867   1.280  15.762  0.7795  0.7899 -1.1910
12992TIP3    H260392   3.813   1.419  15.735 -2.0586  0.2115  1.2279
12993TIP3   OH260393   1.328   4.838   0.184  0.1622  0.2456  0.1130
12993TIP3    H160394   1.332   4.817   0.277  0.1534 -1.8084 -0.3159
12993TIP3    H260395   1.320   4.752   0.141  1.5538  1.0612 -1.8413
12994TIP3   OH260396   2.907   1.206   5.021 -0.1343 -0.1138 -0.1436
12994TIP3    H160397   3.002   1.221   5.029 -0.2479  0.2774  0.5705
12994TIP3    H260398   2.871   1.243   5.102 -1.0527  1.0528 -1.0763
12995TIP3   OH260399   3.204   5.118   6.567  0.2269  0.0091 -0.0934
12995TIP3    H160400   3.182   5.209   6.548  2.1993  0.9653  1.8830
12995TIP3    H260401   3.148   5.067   6.509 -1.3970  2.4577 -0.7803
12996TIP3   OH260402   2.598   2.734   5.474  0.2997 -0.3337  0.1347
12996TIP3    H160403   2.553   2.809   5.513 -0.9661 -1.0084 -0.0247
12996TIP3    H260404   2.684   2.733   5.517  0.3991  1.3048  0.0149
12997TIP3   OH260405   2.825   2.989   0.226 -0.4288  0.2987  0.7853
12997TIP3    H160406   2.735   3.021   0.221 -0.8577 -1.0143 -0.3412
12997TIP3    H260407   2.816   2.895   0.244  0.7146  0.1684  0.7391
12998TIP3   OH260408   6.334   0.023  15.394  0.2258  0.1168 -0.2887
12998TIP3    H160409   6.332   0.096  15.333 -0.8468  0.6517  0.3714
12998TIP3    H260410   6.254   0.032  15.446  0.7640 -0.7271  0.7256
12999TIP3   OH260411   3.564   5.116  11.443 -0.0256 -0.5353 -0.3924
12999TIP3    H160412   3.470   5.134  11.448 -0.2403 -1.7139 -0.0429
12999TIP3    H260413   3.587   5.132  11.352 -0.6637 -0.6612 -0.5769
13000TIP3   OH260414   3.445   2.923  12.857 -0.3761  0.4024 -0.2269
13000TIP3    H160415   3.406   3.008  12.835 -0.9606  0.7233  1.9372
13000TIP3    H260416   3.370   2.867  12.876  0.0178 -0.5729 -1.4376
13001TIP3   OH260417   1.963   1.528  14.661 -0.1755  0.2076  0.2146
13001TIP3    H160418   1.997   1.439  14.648  1.3636  0.7818  0.1124
13001TIP3    H260419   1.903   1.542  14.588  1.5889  0.1901 -1.2807
13002TIP3   OH260420   1.287   2.723  11.458 -0.0651 -0.0740 -0.0762
13002TIP3    H160421   1.324   2.714  11.370 -1.3760 -2.5816 -0.4243
13002TIP3    H260422   1.361   2.714  11.517  0.4411 -1.0658 -0.8651
13003TIP3   OH260423   5.788   1.609  13.397 -0.0194 -1.0648  0.0161
13003TIP3    H160424   5.882   1.622  13.381  0.1394 -0.9997  0.9699
13003TIP3    H260425   5.746   1.685  13.358  0.6110  0.6002  2.4753
13004TIP3   OH260426   3.039   5.129  16.818  0.5021 -0.1721 -0.5665
13004TIP3    H160427   3.086   5.064  16.766 -0.0550 -0.1811 -1.0569
13004TIP3    H260428   3.022   5.201  16.758 -2.2885 -1.2155 -1.0813
13005TIP3   OH260429   4.169   1.234  13.930 -0.3460 -0.0995 -0.1138
13005TIP3    H160430   4.146   1.326  13.920 -0.7912 -0.4077 -2.1332
13005TIP3    H260431   4.230   1.232  14.004 -0.6141  1.7611  0.1702
13006TIP3   OH260432   1.032   0.749   5.895 -1.2753 -0.1888  0.0173
13006TIP3    H160433   0.972   0.783   5.829  0.1331  1.8795 -0.2651
13006TIP3    H260434   1.024   0.810   5.969  0.1481 -0.1194  0.1333
13007TIP3   OH260435   6.711   5.328  15.456  0.0664 -0.0423 -0.5187
13007TIP3    H160436   6.764   5.311  15.378 -0.4846  0.5067 -1.0132
13007TIP3    H260437   6.624   5.347  15.422  0.2702  2.1127  0.1175
13008TIP3   OH260438   3.504   1.810   5.510  0.0288  0.4150 -0.2484
13008TIP3    H160439   3.430   1.765   5.470  0.1732  0.7736 -0.9255
13008TIP3    H260440   3.571   1.743   5.519  0.2355  0.4773 -1.2351
13009TIP3   OH260441   5.960   1.228   0.983  0.4380  0.3006  0.3155
13009TIP3    H160442   5.983   1.154   0.927 -1.6838 -0.0830 -0.0838
13009TIP3    H260443   5.900   1.191   1.048 -2.1884  2.0033 -1.0525
13010TIP3   OH260444   5.282   3.333  10.709  0.4463 -0.0626  0.2968
13010TIP3    H160445   5.377   3.343  10.717  0.3088 -0.0701  1.9934
13010TIP3    H260446   5.267   3.238  10.714  0.2547  0.0105  1.2944
13011TIP3   OH260447   1.177   0.523   2.949  0.1252  0.0119  0.3879
13011TIP3    H160448   1.119   0.452   2.977 -3.1637  2.5691  0.3123
13011TIP3    H260449   1.180   0.582   3.024  0.2480  1.3804 -0.6748
13012TIP3   OH260450   6.030   6.379  16.965  0.5576 -0.3340 -0.8258
13012TIP3    H160451   5.949   6.429  16.968 -0.1798 -1.4706 -1.5570
13012TIP3    H260452   6.096   6.439  16.999 -0.9366 -0.1366  1.8543
13013TIP3   OH260453   5.677   4.840   1.985 -0.3993 -0.7269  0.0876
13013TIP3    H160454   5.679   4.935   1.977 -0.4939 -0.6315  1.1704
13013TIP3    H260455   5.648   4.809   1.899 -0.7354  0.2417 -0.1475
13014TIP3   OH260456   1.305   0.414   2.464 -0.1250  0.0696 -1.0713
13014TIP3    H160457   1.382   0.470   2.450 -0.1348  0.8296  1.6191
13014TIP3    H260458   1.230   0.472   2.453 -0.1490  0.5123  1.1959
13015TIP3   OH260459   3.026   5.123  16.036  0.2383 -0.6518  0.2507
13015TIP3    H160460   3.075   5.205  16.046  0.4494 -0.5619 -1.3971
13015TIP3    H260461   3.084   5.067  15.985 -1.0497 -0.8081 -1.0711
13016TIP3   OH260462   4.506   4.099   2.716 -0.3727 -0.4903 -0.5141
13016TIP3    H160463   4.411   4.088   2.716 -1.1231  4.7172 -0.2132
13016TIP3    H260464   4.532   4.078   2.805 -1.4845 -0.4315 -0.1602
13017TIP3   OH260465   5.188   0.986   4.480 -0.4669 -0.0577 -0.0103
13017TIP3    H160466   5.110   0.999   4.426 -1.1370 -0.3474  0.8653
13017TIP3    H260467   5.256   1.038   4.438 -1.3776  0.9527 -0.2550
13018TIP3   OH260468   3.237   5.844   4.334  0.5374  0.0686 -0.2390
13018TIP3    H160469   3.268   5.837   4.424  0.5376  0.3045 -0.2194
13018TIP3    H260470   3.218   5.754   4.308 -1.9290  0.2305  0.8769
13019TIP3   OH260471   4.126   4.903  11.120 -0.5351 -0.0038  0.3032
13019TIP3    H160472   4.201   4.943  11.162 -1.8039 -0.5814  3.2516
13019TIP3    H260473   4.100   4.965  11.051  2.5706  0.1900 -0.7534
13020TIP3   OH260474   0.692   1.834  16.287  0.0697 -0.0308  0.0036
13020TIP3    H160475   0.646   1.757  16.252 -0.3038  1.4532 -2.9917
13020TIP3    H260476   0.630   1.873  16.349  0.0944 -1.8784  1.2215
13021TIP3   OH260477   1.014   3.151  16.084  0.0243 -1.0705 -0.7212
13021TIP3    H160478   1.074   3.076  16.086 -0.0543 -1.1164 -0.1251
13021TIP3    H260479   1.000   3.174  16.176 -0.6577 -0.8820 -0.8675
13022TIP3   OH260480   2.824   3.940   5.071 -0.4080  0.2376 -0.2412
13022TIP3    H160481   2.779   4.000   5.012  0.3763  2.2878  1.1893
13022TIP3    H260482   2.895   3.992   5.110  1.2397 -2.0221 -0.0639
13023TIP3   OH260483   5.454   6.100  12.362  0.1094  0.2105  0.6149
13023TIP3    H160484   5.375   6.145  12.330 -1.0960 -1.5901  0.9856
13023TIP3    H260485   5.526   6.144  12.317 -1.1234  1.6294 -0.0354
13024TIP3   OH260486   6.501   0.397   2.916  0.5638  0.4488 -0.1321
13024TIP3    H160487   6.497   0.470   2.855  2.8029  0.6737 -0.0404
13024TIP3    H260488   6.481   0.436   3.001  1.0592  0.8235 -0.1864
13025TIP3   OH260489   3.228   5.545   2.195 -0.4214  0.1998  0.0739
13025TIP3    H160490   3.261   5.535   2.106  1.0967  0.5416  0.5840
13025TIP3    H260491   3.303   5.526   2.251 -1.5579 -0.7803  1.3082
13026TIP3   OH260492   5.988   3.653  15.716  0.3179 -0.0015 -0.6180
13026TIP3    H160493   6.071   3.607  15.705  0.8011  0.3140  1.4150
13026TIP3    H260494   5.958   3.626  15.803 -1.1732  0.7428 -0.8889
13027TIP3   OH260495   3.319   2.933   5.081  0.0549  0.1693  0.3345
13027TIP3    H160496   3.379   2.942   5.008  0.5502  0.2014  0.7440
13027TIP3    H260497   3.252   2.871   5.050  0.7742 -0.5372  0.1989
13028TIP3   OH260498   1.415   5.786  12.924  0.0815 -0.5359 -0.6512
13028TIP3    H160499   1.425   5.704  12.972  1.8472 -0.1691 -0.3738
13028TIP3    H260500   1.375   5.846  12.987  0.4112 -0.6721 -0.3130
13029TIP3   OH260501   5.345   5.431   0.554  0.0079 -0.2492  0.5735
13029TIP3    H160502   5.432   5.469   0.551  0.3263 -1.0148 -0.1832
13029TIP3    H260503   5.321   5.432   0.646  1.3314 -1.1850  0.9435
13030TIP3   OH260504   1.084   4.190  11.144 -0.3344  0.3662 -0.2153
13030TIP3    H160505   1.149   4.162  11.209 -0.9210  0.6149  0.4790
13030TIP3    H260506   1.088   4.286  11.146 -0.4635  0.3766 -0.4381
13031TIP3   OH260507   0.677   6.397   5.925 -0.1315 -0.2142  0.6595
13031TIP3    H160508   0.602   6.394   5.984 -1.3088  3.2547 -0.5221
13031TIP3    H260509   0.734   6.466   5.962  1.5287 -1.4320  0.4401
13032TIP3   OH260510   2.307   0.484  12.782 -0.8432 -0.0056  0.0678
13032TIP3    H160511   2.301   0.400  12.737 -2.6981 -0.2377  0.7248
13032TIP3    H260512   2.367   0.467  12.855  0.5656 -0.1492 -1.1102
13033TIP3   OH260513   1.083   5.921  13.382  0.7684  0.2959 -0.7091
13033TIP3    H160514   1.134   5.923  13.463  0.5160 -0.6174 -0.5287
13033TIP3    H260515   1.036   6.005  13.382 -0.2350 -0.2528  0.7463
13034TIP3   OH260516   3.548   6.000  10.713 -0.0364  0.4763 -0.0902
13034TIP3    H160517   3.615   5.939  10.746  0.2474  0.2340 -1.0717
13034TIP3    H260518   3.467   5.949  10.715 -0.4808  1.2458  2.4812
13035TIP3   OH260519   2.299   6.382   5.438 -0.3484  0.3217 -0.1419
13035TIP3    H160520   2.371   6.444   5.433 -1.5799  2.0041  1.8912
13035TIP3    H260521   2.262   6.382   5.350  0.2771  1.7680 -0.4332
13036TIP3   OH260522   6.711   0.272  13.273  0.2297 -0.4736 -0.1091
13036TIP3    H160523   6.622   0.236  13.273  0.5669 -1.3407 -0.4417
13036TIP3    H260524   6.765   0.201  13.308  0.7252  0.2377  0.5820
13037TIP3   OH260525   6.149   4.941   2.365  0.5403  0.3238 -0.0472
13037TIP3    H160526   6.057   4.949   2.392  0.6420  3.6159 -0.4756
13037TIP3    H260527   6.188   4.882   2.430 -2.0616 -1.8975 -0.4348
13038TIP3   OH260528   4.155   1.173  10.483 -1.2648  0.1386  0.6959
13038TIP3    H160529   4.074   1.123  10.492 -0.3933 -1.3203  0.4620
13038TIP3    H260530   4.128   1.264  10.496 -3.1349 -0.2227 -0.5049
13039TIP3   OH260531   4.633   1.204  14.695 -0.1695  0.2174 -0.5533
13039TIP3    H160532   4.692   1.273  14.665  0.2381  1.6740  3.3151
13039TIP3    H260533   4.552   1.249  14.719 -0.3459 -0.7701  0.8002
13040TIP3   OH260534   1.368   6.613   6.674  0.1264  0.3653 -0.2656
13040TIP3    H160535   1.394   6.562   6.751  0.0046 -0.2049 -0.5950
13040TIP3    H260536   1.411   6.568   6.601 -0.2452  0.5483 -0.5954
13041TIP3   OH260537   5.937   3.315   2.890  0.0579  0.2749 -0.1711
13041TIP3    H160538   5.851   3.276   2.905 -0.3535  0.5196 -1.8487
13041TIP3    H260539   5.986   3.296   2.971 -1.2583 -0.6687  0.4243
13042TIP3   OH260540   6.010   5.782   4.842  0.1268 -0.0855 -0.2140
13042TIP3    H160541   6.063   5.707   4.866  1.3141  0.4323 -1.1911
13042TIP3    H260542   6.069   5.857   4.851 -1.2200  0.8161  1.3807
13043TIP3   OH260543   4.864   2.297   6.171  0.1816  0.3689  0.0460
13043TIP3    H160544   4.774   2.315   6.145 -0.5180  0.1590  2.1689
13043TIP3    H260545   4.881   2.208   6.140  0.8701  1.6165 -3.3536
13044TIP3   OH260546   0.964   2.176  13.212  0.1939  0.2506 -0.3876
13044TIP3    H160547   0.945   2.259  13.167 -1.4490  1.0219  1.6463
13044TIP3    H260548   0.987   2.202  13.301 -0.6349 -1.5054  0.3624
13045TIP3   OH260549   6.201   1.254   1.627  0.2577 -0.0827 -0.6227
13045TIP3    H160550   6.171   1.268   1.537 -0.5452 -1.8883 -0.6649
13045TIP3    H260551   6.147   1.314   1.679 -1.6188 -1.4057 -1.0011
13046TIP3   OH260552   2.610   4.556  13.204 -0.8954 -0.2047 -0.2714
13046TIP3    H160553   2.697   4.531  13.172 -0.7433 -0.0531  0.0263
13046TIP3    H260554   2.623   4.641  13.247 -0.9889 -0.6817  0.7085
13047TIP3   OH260555   2.145   0.934  15.984 -0.8124  0.2724 -0.1801
13047TIP3    H160556   2.199   0.862  15.951  0.0940  0.5789  0.6286
13047TIP3    H260557   2.068   0.891  16.021 -0.4265 -0.2628  0.0002
13048TIP3   OH260558   3.999   0.193  17.138 -0.8691  0.4399 -0.0034
13048TIP3    H160559   4.054   0.177  17.215 -0.4905  3.2952  0.3650
13048TIP3    H260560   3.928   0.129  17.146  0.5774 -1.0468  1.2982
13049TIP3   OH260561   5.341   3.413  13.900  0.1909 -0.9218 -0.2557
13049TIP3    H160562   5.423   3.407  13.948  0.3078 -0.9962 -0.4627
13049TIP3    H260563   5.302   3.326  13.907  1.1709 -1.5401 -1.9881
13050TIP3   OH260564   1.658   2.044  11.173  0.1749  0.4355 -0.5869
13050TIP3    H160565   1.650   2.075  11.082 -2.5632  0.1569 -0.4880
13050TIP3    H260566   1.630   1.953  11.170  3.1917 -0.5870  0.0371
13051TIP3   OH260567   3.447   1.290   1.356  0.2235 -0.0655 -0.2987
13051TIP3    H160568   3.495   1.369   1.333 -0.3391 -0.0796 -1.5547
13051TIP3    H260569   3.355   1.316   1.351 -0.0340 -1.3348 -2.7652
13052TIP3   OH260570   4.647   6.720  12.549  0.2289 -0.1753 -0.2254
13052TIP3    H160571   4.718   6.703  12.487  0.9821  1.6605  0.1162
13052TIP3    H260572   4.607   6.801  12.518  0.9628  1.0723  1.9653
13053TIP3   OH260573   1.014   5.693   2.928 -0.7016 -0.4234  0.3540
13053TIP3    H160574   1.024   5.603   2.959  0.6548  0.1666  1.6826
13053TIP3    H260575   0.927   5.719   2.960 -0.5638 -0.8290  1.0696
13054TIP3   OH260576   3.400   3.114  14.812  0.3197 -0.1416  0.1393
13054TIP3    H160577   3.409   3.198  14.858 -0.4349  0.0520 -0.0742
13054TIP3    H260578   3.314   3.082  14.837  0.8144 -1.1148  0.6427
13055TIP3   OH260579   3.498   5.577  11.474 -0.3891 -0.4011  0.5907
13055TIP3    H160580   3.431   5.642  11.454  0.4451  0.3955  0.3707
13055TIP3    H260581   3.576   5.628  11.493  0.2583 -1.3371  0.4638
13056TIP3   OH260582   3.239   0.799   5.404  0.4382 -0.4236 -0.1654
13056TIP3    H160583   3.165   0.857   5.387  1.3709  0.3350 -1.7428
13056TIP3    H260584   3.284   0.791   5.320  1.4176 -1.9233  0.4658
13057TIP3   OH260585   2.551   6.730  16.202 -0.0093  0.5902  0.3097
13057TIP3    H160586   2.620   6.788  16.236  1.4049 -0.4860 -0.6530
13057TIP3    H260587   2.554   6.743  16.108  0.7111 -1.4244  0.0260
13058TIP3   OH260588   4.741   6.112   5.161 -0.6286  0.1120 -0.3124
13058TIP3    H160589   4.717   6.020   5.160 -0.5757  0.1023 -1.3463
13058TIP3    H260590   4.719   6.142   5.250 -2.8822 -0.3199 -0.6923
13059TIP3   OH260591   6.085   1.542  15.688 -0.1897  0.0318  0.0170
13059TIP3    H160592   6.097   1.603  15.760 -0.1759 -0.8357  0.7583
13059TIP3    H260593   6.174   1.526  15.656 -0.2445  0.8655 -0.5874
13060TIP3   OH260594   4.322   6.209   5.725 -0.0278  0.6571 -0.5051
13060TIP3    H160595   4.353   6.165   5.805  0.0002  0.6776 -0.5048
13060TIP3    H260596   4.303   6.138   5.664 -0.5960  0.6161 -0.2811
13061TIP3   OH260597   3.560   2.557   6.490  0.5164 -0.3642  0.0746
13061TIP3    H160598   3.641   2.507   6.488  0.0953 -1.0466  0.1739
13061TIP3    H260599   3.571   2.623   6.422  0.9240 -0.8138 -0.2941
13062TIP3   OH260600   1.527   5.122  10.564  0.3734  0.0990  0.1819
13062TIP3    H160601   1.569   5.050  10.517  2.1664 -0.3332  2.3395
13062TIP3    H260602   1.437   5.094  10.577  0.9181 -1.5180  0.5316
13063TIP3   OH260603   3.515   0.881   3.374  0.6247 -0.2427  0.4705
13063TIP3    H160604   3.476   0.845   3.453  0.0769  0.8458  0.7004
13063TIP3    H260605   3.602   0.912   3.401  1.0236 -1.2043  0.3126
13064TIP3   OH260606   1.674   1.240  13.610  0.4983 -0.4326 -0.0663
13064TIP3    H160607   1.727   1.187  13.552  0.8724  0.2889 -0.3889
13064TIP3    H260608   1.720   1.324  13.616  0.6630 -0.6250  1.5688
13065TIP3   OH260609   1.380   5.784   5.558 -0.4147 -0.4869 -0.3891
13065TIP3    H160610   1.429   5.795   5.639  1.0131 -0.7724 -1.1968
13065TIP3    H260611   1.425   5.839   5.495 -2.6935  1.2901 -0.5271
13066TIP3   OH260612   0.573   2.581   3.243  0.2016 -0.2308  0.4256
13066TIP3    H160613   0.531   2.525   3.309 -0.0974  0.1861  0.5904
13066TIP3    H260614   0.546   2.543   3.160 -0.7313  0.2018  0.5298
13067TIP3   OH260615   4.770   1.294  17.175 -0.3355  0.2059 -0.2478
13067TIP3    H160616   4.836   1.353  17.212 -0.2057 -0.5227  0.7149
13067TIP3    H260617   4.798   1.279  17.085 -0.5036  1.8145 -0.5864
13068TIP3   OH260618   6.509   6.537  11.364  0.4357 -0.8412 -0.4592
13068TIP3    H160619   6.450   6.481  11.415 -1.8908  0.7406 -1.3403
13068TIP3    H260620   6.493   6.512  11.273  0.0388  0.6210 -0.7995
13069TIP3   OH260621   4.101   1.414   1.154 -0.0468 -0.0187 -0.0669
13069TIP3    H160622   4.078   1.426   1.062  1.5401 -2.5330 -0.8376
13069TIP3    H260623   4.034   1.353   1.187 -0.6323  0.9013  0.4873
13070TIP3   OH260624   5.202   6.441  17.038 -0.1122  0.5201  0.0632
13070TIP3    H160625   5.178   6.365  17.092 -1.2906 -0.5254 -1.8543
13070TIP3    H260626   5.168   6.516  17.086  0.4485 -0.2167  1.6601
13071TIP3   OH260627   2.937   0.387   0.901 -0.4023  0.3607 -0.5696
13071TIP3    H160628   3.006   0.429   0.952 -1.4336  1.5586 -0.1268
13071TIP3    H260629   2.970   0.299   0.883  0.1882  0.0786  1.7551
13072TIP3   OH260630   3.736   4.706   5.929 -0.0347  0.2854 -0.0759
13072TIP3    H160631   3.743   4.801   5.938 -0.6129  0.3880 -0.6258
13072TIP3    H260632   3.809   4.682   5.872  0.1223  0.3978  0.0777
13073TIP3   OH260633   0.775   5.379  10.965 -0.3443  0.1164 -0.0223
13073TIP3    H160634   0.850   5.436  10.950 -1.6740  2.3194  1.5278
13073TIP3    H260635   0.779   5.357  11.058 -0.8706 -0.8656 -0.2175
13074TIP3   OH260636   6.314   0.036  13.893 -0.4263  0.0782 -0.5739
13074TIP3    H160637   6.408   0.049  13.877 -0.5236  0.8385 -0.5599
13074TIP3    H260638   6.278   0.125  13.895 -1.1985 -0.2280 -0.8846
13075TIP3   OH260639   1.213   5.529  13.113  0.0689 -0.4427 -0.3748
13075TIP3    H160640   1.124   5.504  13.089 -0.3935 -1.4604  2.2719
13075TIP3    H260641   1.214   5.529  13.209  3.1532 -1.3690 -0.3205
13076TIP3   OH260642   5.351   6.211  11.508  0.1366  0.1011  0.2104
13076TIP3    H160643   5.331   6.184  11.597 -1.2886 -0.0311 -0.1300
13076TIP3    H260644   5.371   6.304  11.515 -0.6698  0.2524  0.5842
13077TIP3   OH260645   6.334   6.303   3.262  0.2488  0.4722 -0.9296
13077TIP3    H160646   6.307   6.212   3.266  0.2937  0.4620 -0.8703
13077TIP3    H260647   6.252   6.353   3.269  0.2474  0.4407 -0.7066
13078TIP3   OH260648   3.326   6.577   0.255 -0.1208 -0.3905  0.0297
13078TIP3    H160649   3.308   6.508   0.191  0.9407 -0.9708  0.3505
13078TIP3    H260650   3.255   6.641   0.242  1.1491  0.4816 -3.0809
13079TIP3   OH260651   1.973   0.411  14.696 -0.0493  0.5080  0.0342
13079TIP3    H160652   1.896   0.425  14.751 -0.0802 -2.8658  0.9412
13079TIP3    H260653   1.977   0.316  14.683  1.9092  0.9253 -2.9911
13080TIP3   OH260654   0.530   2.907   4.651  0.1694 -0.4401  0.5175
13080TIP3    H160655   0.512   2.938   4.563  0.2289  0.0484  0.6738
13080TIP3    H260656   0.624   2.890   4.652  0.6309  1.9926  1.2289
13081TIP3   OH260657   4.129   0.509  13.364  0.4414 -0.2770  0.3459
13081TIP3    H160658   4.089   0.547  13.443 -1.0764 -0.8282 -0.1386
13081TIP3    H260659   4.065   0.525  13.295  1.7774  0.2256 -0.7989
13082TIP3   OH260660   5.900   1.595   5.287  0.2402  0.2290 -0.1882
13082TIP3    H160661   5.818   1.613   5.333  1.0688  1.0809  0.9943
13082TIP3    H260662   5.961   1.661   5.320  1.0988  0.3250 -1.8952
13083TIP3   OH260663   2.095   5.162   5.754 -0.0202 -0.5363 -0.1458
13083TIP3    H160664   2.178   5.141   5.796 -0.1455  0.3581  0.5661
13083TIP3    H260665   2.065   5.079   5.717  0.1282 -1.3309  1.4707
13084TIP3   OH260666   6.326   3.163  13.646  0.9604 -0.1538  0.1082
13084TIP3    H160667   6.318   3.085  13.701 -3.0290 -1.8734 -2.6705
13084TIP3    H260668   6.361   3.130  13.563  2.3504  1.6088 -0.0421
13085TIP3   OH260669   3.304   1.216  16.740 -0.0188  0.2615  0.0594
13085TIP3    H160670   3.399   1.215  16.753 -0.3219  0.0615  2.3499
13085TIP3    H260671   3.279   1.307  16.756 -0.0210  0.6890 -2.2053
13086TIP3   OH260672   0.577   6.478  14.204 -0.1972 -0.0146  0.3798
13086TIP3    H160673   0.648   6.419  14.231  0.7151  1.2236  0.7334
13086TIP3    H260674   0.521   6.484  14.282 -1.2567 -1.7713 -0.2113
13087TIP3   OH260675   3.747   2.392  13.124  0.2556  0.9495  0.1940
13087TIP3    H160676   3.789   2.377  13.040  0.5682  0.3121  0.4619
13087TIP3    H260677   3.805   2.351  13.189 -0.4398  0.6191  0.6258
13088TIP3   OH260678   5.207   4.238   1.157  0.8661  0.2236 -0.2336
13088TIP3    H160679   5.283   4.296   1.163  3.0046 -2.6870  2.1746
13088TIP3    H260680   5.197   4.203   1.246 -0.0243 -3.4716 -1.7116
13089TIP3   OH260681   6.291   4.325  16.675 -0.1594  0.2202 -0.1100
13089TIP3    H160682   6.335   4.396  16.721  0.6762 -0.5480  0.2787
13089TIP3    H260683   6.243   4.278  16.744 -1.5564  1.0134 -0.5182
13090TIP3   OH260684   6.422   5.599  11.663  0.0441  0.7047 -0.1682
13090TIP3    H160685   6.380   5.666  11.717  0.7899  0.1092  1.1780
13090TIP3    H260686   6.361   5.525  11.666 -0.7010  1.2519 -1.5156
13091TIP3   OH260687   1.728   4.877  12.184 -0.4836  0.0399 -0.2674
13091TIP3    H160688   1.741   4.909  12.274  0.0817  0.4348 -0.4871
13091TIP3    H260689   1.684   4.793  12.195 -0.5274  0.1413  0.3778
13092TIP3   OH260690   2.858   4.936  12.710  0.0620 -0.1902 -0.3577
13092TIP3    H160691   2.953   4.933  12.719  0.3643  0.6990 -2.8579
13092TIP3    H260692   2.834   4.848  12.679 -0.0007 -0.5881  0.8178
13093TIP3   OH260693   4.691   3.670   1.373 -0.2645 -0.9015 -0.2062
13093TIP3    H160694   4.727   3.650   1.459  0.2909  1.0112  0.0336
13093TIP3    H260695   4.619   3.730   1.390  2.2368  2.5741 -1.2606
13094TIP3   OH260696   4.323   2.337   2.830 -0.3233 -0.6221 -0.0535
13094TIP3    H160697   4.362   2.424   2.818  0.8457 -1.3015 -1.4373
13094TIP3    H260698   4.232   2.348   2.805 -0.0322  0.0935 -0.8352
13095TIP3   OH260699   1.865   5.903  13.882 -0.2277 -0.1732  0.5938
13095TIP3    H160700   1.900   5.992  13.884  0.9880 -0.5805 -1.5237
13095TIP3    H260701   1.770   5.915  13.887 -0.0450  1.2055  0.9749
13096TIP3   OH260702   1.560   2.970   3.860 -0.6646  0.1785  0.1913
13096TIP3    H160703   1.615   2.920   3.800  0.8195  0.9490  0.8905
13096TIP3    H260704   1.575   3.061   3.836 -2.1761  0.3755 -0.0558
13097TIP3   OH260705   6.434   4.858  13.648  0.0415 -0.3158  0.4726
13097TIP3    H160706   6.435   4.896  13.560  0.0031  2.4995  1.6380
13097TIP3    H260707   6.362   4.903  13.693  1.2064 -0.4136  2.5045
13098TIP3   OH260708   4.039   3.220   3.076 -0.2236 -0.2202 -0.3067
13098TIP3    H160709   4.001   3.187   3.158  0.5720 -0.7721 -0.1574
13098TIP3    H260710   3.986   3.297   3.055 -1.0846 -0.6612  0.1889
13099TIP3   OH260711   3.197   3.040  11.575 -0.7002 -0.1357  0.3958
13099TIP3    H160712   3.201   3.032  11.671  1.3268 -0.0075  0.3423
13099TIP3    H260713   3.161   3.127  11.560 -1.5906 -0.3840  1.0265
13100TIP3   OH260714   2.052   3.201   0.106 -0.1247 -0.0403  0.1206
13100TIP3    H160715   2.001   3.234   0.032 -1.0740  0.3424  0.9248
13100TIP3    H260716   2.032   3.263   0.177  0.6063 -0.5234  0.7448
13101TIP3   OH260717   5.815   3.747   4.513 -0.2955 -0.5662  0.6387
13101TIP3    H160718   5.909   3.755   4.501 -0.3191 -0.4802  0.5102
13101TIP3    H260719   5.804   3.729   4.607 -0.2181  0.5786  0.8714
13102TIP3   OH260720   0.411   1.429  14.378 -0.2358  0.4406  0.4516
13102TIP3    H160721   0.336   1.372  14.360  0.9817 -0.2423 -2.7799
13102TIP3    H260722   0.373   1.513  14.402 -2.0243 -0.2193 -0.0473
13103TIP3   OH260723   0.726   6.411  11.607 -0.1607  0.7081 -0.4917
13103TIP3    H160724   0.819   6.391  11.618  0.0632  0.5584 -2.4344
13103TIP3    H260725   0.681   6.330  11.632  0.1954  0.8989  0.8099
13104TIP3   OH260726   4.754   0.019  14.106 -0.2159 -0.3958  0.2781
13104TIP3    H160727   4.690  -0.005  14.172  0.3338  0.6312  1.2038
13104TIP3    H260728   4.838   0.012  14.150  0.1313  0.6479 -0.1888
13105TIP3   OH260729   2.006   1.430  15.467  0.5307  0.3178  0.2008
13105TIP3    H160730   2.015   1.476  15.384  0.3466 -0.0722 -0.0401
13105TIP3    H260731   2.063   1.354  15.459 -1.3999 -1.0989 -0.5704
13106TIP3   OH260732   2.466   5.127  16.245 -0.0810  0.1166  0.5812
13106TIP3    H160733   2.427   5.189  16.306 -0.6614  1.8648 -1.5169
13106TIP3    H260734   2.456   5.168  16.159 -1.0716 -3.1972 -0.9397
13107TIP3   OH260735   3.049   1.159  12.045 -0.2535  0.4513 -0.0958
13107TIP3    H160736   3.081   1.071  12.061 -0.5690  0.4802  0.7253
13107TIP3    H260737   2.961   1.147  12.011 -0.4261  0.4576  0.3444
13108TIP3   OH260738   3.566   0.404  10.581 -0.2233  0.0082 -0.1340
13108TIP3    H160739   3.517   0.449  10.513 -2.3306 -0.1421  1.2277
13108TIP3    H260740   3.640   0.462  10.600 -0.2212  0.5531 -1.7671
13109TIP3   OH260741   6.538   5.910   2.307 -0.0075  0.7407  0.0835
13109TIP3    H160742   6.456   5.957   2.318  0.3020  0.9842  1.4799
13109TIP3    H260743   6.538   5.845   2.377  0.6296  0.2220 -0.3927
13110TIP3   OH260744   6.300   0.735  10.942  0.2486 -0.0079 -0.2996
13110TIP3    H160745   6.353   0.665  10.902 -0.8932 -1.2613  0.3366
13110TIP3    H260746   6.314   0.811  10.885  2.2512 -0.4766 -0.4823
13111TIP3   OH260747   5.633   4.094   0.749 -0.2426  0.0756  0.6472
13111TIP3    H160748   5.654   4.142   0.669  1.1394 -1.9602 -0.2772
13111TIP3    H260749   5.578   4.153   0.800 -0.6814  1.6174 -1.5713
13112TIP3   OH260750   6.139   2.902  17.133  0.0761 -0.9130 -0.0644
13112TIP3    H160751   6.132   2.818  17.178 -0.3384 -1.7539 -1.6763
13112TIP3    H260752   6.233   2.921  17.133 -0.0634  0.0972  2.9122
13113TIP3   OH260753   4.067   3.803   5.797 -0.1599 -0.4070  0.0642
13113TIP3    H160754   4.048   3.770   5.710 -0.6061  1.9327 -0.7504
13113TIP3    H260755   4.162   3.811   5.800 -0.1424 -0.5253 -0.1813
13114TIP3   OH260756   5.324   1.434  15.322  0.0777  0.1628  0.6978
13114TIP3    H160757   5.370   1.350  15.316  2.0520  1.1391  1.5567
13114TIP3    H260758   5.333   1.472  15.234  1.9145  0.8193  1.1420
13115TIP3   OH260759   5.339   1.348  12.613 -0.0656 -0.2285  0.5338
13115TIP3    H160760   5.264   1.407  12.605  0.5585  0.5215  0.1627
13115TIP3    H260761   5.379   1.370  12.697  1.4006  1.3418 -0.5518
13116TIP3   OH260762   6.592   4.578   5.396 -0.2407  0.3559 -0.0949
13116TIP3    H160763   6.675   4.579   5.350 -0.6113 -0.9872 -0.8015
13116TIP3    H260764   6.531   4.624   5.338 -0.6769 -1.2248 -0.9244
13117TIP3   OH260765   6.348   1.847  16.761 -0.7331  0.2520 -0.1575
13117TIP3    H160766   6.279   1.796  16.802 -1.1673  0.3170 -0.8059
13117TIP3    H260767   6.424   1.789  16.761 -0.6879  0.3122  0.8775
13118TIP3   OH260768   0.512   2.209   3.572 -0.0451  0.1919 -0.0009
13118TIP3    H160769   0.462   2.127   3.575  0.9121 -0.3692  0.9863
13118TIP3    H260770   0.534   2.227   3.663  0.6311  0.9967 -0.3211
13119TIP3   OH260771   1.489   0.765  14.821  0.1648 -0.3304 -0.0763
13119TIP3    H160772   1.417   0.738  14.764  0.6197 -2.4569  0.3015
13119TIP3    H260773   1.460   0.742  14.909  1.1386 -0.8987  0.1128
13120TIP3   OH260774   3.445   5.759  10.889  0.0193  0.3849  0.1280
13120TIP3    H160775   3.525   5.722  10.852  1.4119  4.0419 -0.6855
13120TIP3    H260776   3.392   5.785  10.814 -1.1665 -0.3758  0.6768
13121TIP3   OH260777   3.588   2.433  11.686 -0.5436 -0.4557 -0.2313
13121TIP3    H160778   3.666   2.478  11.653 -1.1167  0.7053 -0.0022
13121TIP3    H260779   3.515   2.486  11.657 -1.1928 -0.8198  0.7127
13122TIP3   OH260780   1.153   0.277   6.162  0.3832  0.3733  0.3453
13122TIP3    H160781   1.205   0.284   6.081  1.4093  0.0913  0.9638
13122TIP3    H260782   1.216   0.246   6.228 -0.2141  1.5449  1.4820
13123TIP3   OH260783   4.702   6.608   2.871 -0.3577  0.6183 -0.0626
13123TIP3    H160784   4.688   6.514   2.884 -0.0143  0.5935  0.1346
13123TIP3    H260785   4.793   6.615   2.843  0.3548  1.1044  2.2853
13124TIP3   OH260786   0.408   4.590   1.025  0.0402 -0.8383 -0.0777
13124TIP3    H160787   0.424   4.628   1.111  2.1923 -0.4220 -0.6379
13124TIP3    H260788   0.439   4.499   1.033 -1.2470 -1.2663  0.0576
13125TIP3   OH260789   3.585   3.108  11.273  0.4045 -0.9819 -0.0618
13125TIP3    H160790   3.678   3.089  11.271  0.2849 -1.7257  0.9643
13125TIP3    H260791   3.551   3.054  11.344 -1.1564 -2.2479 -1.7193
13126TIP3   OH260792   2.178   4.531  15.661 -0.1269 -0.2311  0.6375
13126TIP3    H160793   2.228   4.572  15.731  1.1235 -1.8618  0.7270
13126TIP3    H260794   2.106   4.592  15.645  1.6311  1.9607  0.7914
13127TIP3   OH260795   4.693   0.841  15.351 -0.0412  0.1270 -0.4913
13127TIP3    H160796   4.632   0.830  15.424 -0.4825  1.0029 -0.7173
13127TIP3    H260797   4.755   0.769  15.360 -0.2063  0.1181  0.6329
13128TIP3   OH260798   5.228   2.529   1.039  0.2527 -0.4812 -0.2140
13128TIP3    H160799   5.147   2.521   1.089  0.1121 -0.4907 -0.4439
13128TIP3    H260800   5.252   2.621   1.048  0.7574 -0.6892  0.6956
13129TIP3   OH260801   6.578   3.804  13.088  0.3799  0.1565 -0.2905
13129TIP3    H160802   6.604   3.717  13.118  2.4417  1.0898  0.7282
13129TIP3    H260803   6.500   3.825  13.139  0.8738 -0.3885  0.7096
13130TIP3   OH260804   1.764   2.751   4.317  0.2065  0.5336 -0.4075
13130TIP3    H160805   1.749   2.793   4.401 -2.1086 -0.8320 -0.0928
13130TIP3    H260806   1.695   2.786   4.260 -1.5015 -2.3532 -0.2609
13131TIP3   OH260807   5.636   5.017  15.109  0.0142 -0.4984 -0.1008
13131TIP3    H160808   5.659   4.934  15.067  2.6870  0.1275  0.0197
13131TIP3    H260809   5.638   5.081  15.038 -0.4443 -0.2661  0.0949
13132TIP3   OH260810   4.874   6.188   1.699  0.1830  0.3517 -0.2259
13132TIP3    H160811   4.907   6.260   1.644 -0.0291 -0.5773 -1.6075
13132TIP3    H260812   4.940   6.178   1.767  1.3346  0.4103 -1.3042
13133TIP3   OH260813   1.787   6.494  17.091  0.0599  0.4227 -0.6317
13133TIP3    H160814   1.741   6.476  17.009 -2.5502  1.4667  0.5378
13133TIP3    H260815   1.852   6.559  17.068 -0.5282  0.5734 -1.9233
13134TIP3   OH260816   1.791   3.708   5.152 -0.2995 -0.5480  0.3311
13134TIP3    H160817   1.823   3.618   5.146  0.7932 -0.2458  1.4206
13134TIP3    H260818   1.849   3.758   5.095  0.7904 -0.1063  1.8014
13135TIP3   OH260819   5.869   1.826  15.116 -0.1431  0.5273 -0.0941
13135TIP3    H160820   5.869   1.878  15.035 -0.7103  0.6096 -0.0375
13135TIP3    H260821   5.917   1.880  15.179 -0.3812  0.8015 -0.1505
13136TIP3   OH260822   1.633   1.879   2.794  0.2291 -0.1369 -0.1497
13136TIP3    H160823   1.597   1.805   2.746 -1.1944  0.8931 -0.6864
13136TIP3    H260824   1.603   1.867   2.884 -0.3363 -0.0069 -0.3194
13137TIP3   OH260825   0.704   0.628   0.194  0.1451 -0.5735  0.2509
13137TIP3    H160826   0.663   0.714   0.195  0.4671 -0.4159  0.0802
13137TIP3    H260827   0.793   0.644   0.162 -0.2425 -1.1655 -1.1598
13138TIP3   OH260828   6.150   0.541   2.584 -0.0686 -0.2060 -0.2828
13138TIP3    H160829   6.242   0.532   2.561 -0.1169  0.4001 -0.7228
13138TIP3    H260830   6.129   0.461   2.633  0.6238 -0.4527 -0.3910
13139TIP3   OH260831   5.419   0.403   1.584  0.3461 -0.0224  0.0390
13139TIP3    H160832   5.457   0.462   1.518  1.5564  1.1031  1.7073
13139TIP3    H260833   5.325   0.419   1.579  0.6358  1.9281  0.3290
13140TIP3   OH260834   2.669   0.464   1.415  0.3278 -0.5063 -0.7248
13140TIP3    H160835   2.721   0.417   1.350 -0.1162  0.4110 -1.7546
13140TIP3    H260836   2.619   0.528   1.364 -0.3436 -0.0677  0.4721
13141TIP3   OH260837   5.790   3.023  12.517 -0.5602  0.3664 -0.1597
13141TIP3    H160838   5.743   2.958  12.464 -1.1672  0.0206  0.7872
13141TIP3    H260839   5.868   3.043  12.466 -0.8092 -0.4471 -0.8793
13142TIP3   OH260840   4.691   4.170   3.738 -0.4960  0.3072  0.1121
13142TIP3    H160841   4.785   4.159   3.753 -0.1853  2.8334  0.2402
13142TIP3    H260842   4.657   4.201   3.822 -1.1374  1.0347 -0.4051
13143TIP3   OH260843   5.970   1.941   3.567  0.4362  0.0707 -1.0483
13143TIP3    H160844   5.913   1.887   3.512  0.5209 -1.1017 -0.0106
13143TIP3    H260845   6.038   1.881   3.597  1.4921  1.1665 -1.2431
13144TIP3   OH260846   2.248   4.252  11.566  0.6761 -0.2824 -0.1361
13144TIP3    H160847   2.219   4.266  11.656 -0.3711 -1.2293 -0.3162
13144TIP3    H260848   2.332   4.207  11.575  1.6492  1.5606  0.3790
13145TIP3   OH260849   6.105   4.534   0.111 -0.3935  0.3891  0.4907
13145TIP3    H160850   6.079   4.625   0.096  1.7587  0.5480 -2.6722
13145TIP3    H260851   6.200   4.538   0.121 -0.3443 -1.4510  0.9026
13146TIP3   OH260852   5.806   0.031  16.831 -0.6751  0.3284 -0.8750
13146TIP3    H160853   5.797  -0.009  16.917 -1.0536  0.5900 -0.7937
13146TIP3    H260854   5.775  -0.036  16.770 -0.7847  0.2933 -0.7777
13147TIP3   OH260855   4.530   0.962   3.086 -0.0703 -0.3239 -0.0640
13147TIP3    H160856   4.599   0.932   3.027 -0.5915 -0.8443 -0.4052
13147TIP3    H260857   4.454   0.976   3.030 -0.3610 -0.1355  0.3746
13148TIP3   OH260858   3.407   1.363   5.015 -0.0103 -0.0012 -0.3958
13148TIP3    H160859   3.432   1.414   5.092 -0.2824  1.8782 -1.5352
13148TIP3    H260860   3.490   1.331   4.980  0.1891 -0.0798  0.1397
13149TIP3   OH260861   6.355   6.434   1.546 -0.7043  0.1100  0.4683
13149TIP3    H160862   6.372   6.520   1.509 -1.6457  0.6544  1.2733
13149TIP3    H260863   6.322   6.382   1.473 -0.8358  0.6429  0.1490
13150TIP3   OH260864   2.252   4.801  16.813 -0.4779  0.4363  0.2110
13150TIP3    H160865   2.287   4.846  16.889 -1.0391 -0.0315  0.7460
13150TIP3    H260866   2.157   4.800  16.827 -0.7912  2.2428 -1.5227
13151TIP3   OH260867   1.050   5.726  16.543  0.1211 -0.1539 -0.1302
13151TIP3    H160868   1.076   5.714  16.635 -0.7780  0.7130  0.2601
13151TIP3    H260869   0.965   5.770  16.549  1.1478  2.0899 -1.3839
13152TIP3   OH260870   4.990   5.705   4.959  0.3049  0.0745  0.3954
13152TIP3    H160871   5.056   5.729   5.024  0.0848  0.5483  0.4441
13152TIP3    H260872   4.977   5.784   4.908  0.6587 -0.3728 -0.3899
13153TIP3   OH260873   2.408   1.073  17.017 -1.1339 -0.4968 -0.0268
13153TIP3    H160874   2.453   0.997  16.983 -2.6811 -1.6499  0.4325
13153TIP3    H260875   2.478   1.132  17.046  0.0676 -2.2534  0.7296
13154TIP3   OH260876   5.565   4.968  16.265 -0.5024  0.2404  0.2320
13154TIP3    H160877   5.623   5.012  16.204 -0.8894  0.2708 -0.1183
13154TIP3    H260878   5.477   4.987  16.232 -0.6784 -0.5807  0.2316
13155TIP3   OH260879   6.659   5.796   5.668  0.7188  0.3431  0.2368
13155TIP3    H160880   6.642   5.758   5.755  0.0633 -2.2086 -0.9638
13155TIP3    H260881   6.710   5.729   5.622  0.3332  1.3052 -1.6337
13156TIP3   OH260882   1.453   0.163  14.912 -0.4198  0.2977 -0.0332
13156TIP3    H160883   1.459   0.258  14.916 -0.0884  0.3591 -1.4356
13156TIP3    H260884   1.538   0.135  14.879 -0.1941 -0.5613  1.2601
13157TIP3   OH260885   5.581   2.155   6.170  0.2649  0.1026 -0.0012
13157TIP3    H160886   5.665   2.199   6.184  1.1833 -1.1364 -1.4514
13157TIP3    H260887   5.573   2.096   6.244  0.7817  0.0737  0.0369
13158TIP3   OH260888   6.288   0.901   4.394 -0.0945 -0.4967 -0.8013
13158TIP3    H160889   6.316   0.814   4.363 -0.2517 -0.5673 -0.7449
13158TIP3    H260890   6.366   0.939   4.434 -0.3276 -1.0793  0.2235
13159TIP3   OH260891   6.603   6.245  16.107  0.7022  0.1221  0.2300
13159TIP3    H160892   6.694   6.218  16.109  0.4979 -0.5921  0.1284
13159TIP3    H260893   6.589   6.291  16.190  0.8910 -0.6357  0.6822
13160TIP3   OH260894   4.094   2.330  11.247 -0.4612  0.2490 -0.3110
13160TIP3    H160895   4.064   2.342  11.156 -0.8648  1.4909 -0.0253
13160TIP3    H260896   4.170   2.272  11.240  0.2504  1.2936 -1.5820
13161TIP3   OH260897   0.056   3.293  17.050  0.4826 -0.0544  0.6419
13161TIP3    H160898   0.018   3.380  17.065 -0.9969 -0.8057  1.3071
13161TIP3    H260899   0.098   3.301  16.964  0.3592  1.3177  0.6855
13162TIP3   OH260900   6.442   2.914  16.112  0.1311 -0.2893  0.0395
13162TIP3    H160901   6.436   2.895  16.018 -0.3643 -1.2451  0.2503
13162TIP3    H260902   6.515   2.860  16.142 -0.3780 -0.7938  0.3902
13163TIP3   OH260903   1.706   1.199   5.292  0.0127 -0.5162 -0.6322
13163TIP3    H160904   1.645   1.140   5.335 -0.0111  0.8270  1.2020
13163TIP3    H260905   1.779   1.208   5.353  0.5113  0.5136 -1.3541
13164TIP3   OH260906   5.315   5.392   5.375 -0.2151 -0.8169 -0.2696
13164TIP3    H160907   5.392   5.351   5.415  0.6611  1.4132  0.4040
13164TIP3    H260908   5.269   5.320   5.333  0.1565 -2.8661  2.6472
13165TIP3   OH260909   3.318   4.524  12.667  0.6535 -0.6308 -0.2728
13165TIP3    H160910   3.410   4.504  12.648  0.6212 -3.3704  2.0897
13165TIP3    H260911   3.297   4.470  12.743 -2.0698  2.2355  1.1357
13166TIP3   OH260912   2.847   5.738  13.653  0.1371 -0.1761  0.1080
13166TIP3    H160913   2.766   5.697  13.624  0.8686 -0.9976 -0.7805
13166TIP3    H260914   2.884   5.778  13.575  1.0999 -0.6695  0.3046
13167TIP3   OH260915   0.115   2.393   6.315 -0.8650 -0.0022 -0.7274
13167TIP3    H160916   0.195   2.346   6.341 -0.5243  0.7379 -0.4337
13167TIP3    H260917   0.070   2.332   6.257 -0.2002 -0.5183 -0.7141
13168TIP3   OH260918   4.078   0.037   3.543  0.1706 -0.0453  0.1369
13168TIP3    H160919   4.035   0.123   3.540  0.9163  0.3055 -0.7470
13168TIP3    H260920   4.061   0.005   3.631  0.2288  1.1906  0.6114
13169TIP3   OH260921   1.046   5.430   6.424  0.4819 -0.5906 -0.1592
13169TIP3    H160922   1.092   5.513   6.409 -1.3090  0.6438  0.8915
13169TIP3    H260923   1.069   5.406   6.514 -0.8801  0.0448  0.3791
13170TIP3   OH260924   4.059   6.397  15.088  0.0998  0.5795  0.6659
13170TIP3    H160925   4.078   6.304  15.083 -0.0467  0.6217 -0.8078
13170TIP3    H260926   4.144   6.440  15.084  0.1059  0.5443  0.4453
13171TIP3   OH260927   1.542   3.179   4.778 -0.2662  0.1901 -0.3077
13171TIP3    H160928   1.594   3.202   4.700 -2.3999 -0.6275 -2.0243
13171TIP3    H260929   1.567   3.089   4.798  0.4468  0.4745  0.1026
13172TIP3   OH260930   5.142   4.770  13.115  0.0101 -0.0571 -0.4881
13172TIP3    H160931   5.074   4.837  13.108  0.3552  0.3383 -0.1715
13172TIP3    H260932   5.095   4.689  13.134 -0.2784  0.5120  1.3821
13173TIP3   OH260933   1.681   4.281  15.440 -0.4731 -0.0588 -0.2005
13173TIP3    H160934   1.645   4.288  15.529 -0.7607  0.2378 -0.3395
13173TIP3    H260935   1.623   4.218  15.396 -1.3517  1.0634 -0.6794
13174TIP3   OH260936   6.104   6.446  13.312  0.3307 -0.8208  0.1763
13174TIP3    H160937   6.162   6.405  13.376  0.7009 -1.4252 -0.5413
13174TIP3    H260938   6.125   6.539  13.316  0.1612 -0.8178  1.1258
13175TIP3   OH260939   4.163   2.925   6.185  0.8514 -0.2695  0.3540
13175TIP3    H160940   4.210   2.842   6.180  2.5937  0.6903  0.4691
13175TIP3    H260941   4.178   2.956   6.274  0.8920  0.5468  0.0682
13176TIP3   OH260942   4.706   2.674   3.556  0.4427  0.3845 -0.2134
13176TIP3    H160943   4.756   2.593   3.553  1.5635  1.1335 -2.9795
13176TIP3    H260944   4.699   2.695   3.650  0.4677 -2.6582  0.5021
13177TIP3   OH260945   5.625   3.206  14.253  0.6334 -0.1757 -0.7351
13177TIP3    H160946   5.651   3.186  14.343 -1.4530 -0.8566 -0.2464
13177TIP3    H260947   5.667   3.139  14.200 -1.2323 -2.1344  0.1905
13178TIP3   OH260948   3.671   0.224  15.037 -0.2711  0.0012 -0.2939
13178TIP3    H160949   3.764   0.233  15.015 -0.5595  1.3899 -0.9502
13178TIP3    H260950   3.637   0.162  14.972  0.6814 -2.3473  1.3705
13179TIP3   OH260951   2.623   3.632   1.838 -0.6645 -0.3060  0.2348
13179TIP3    H160952   2.577   3.695   1.893  0.3064  1.5144 -0.9268
13179TIP3    H260953   2.712   3.630   1.874 -0.0486  0.8337 -1.1378
13180TIP3   OH260954   1.910   4.357  13.957 -0.1337 -0.2480 -0.1100
13180TIP3    H160955   2.002   4.331  13.952 -0.0538  0.0880 -0.4035
13180TIP3    H260956   1.890   4.389  13.869 -0.4911 -0.1928 -0.0065
13181TIP3   OH260957   1.145   0.150  12.917 -0.3786 -0.2593 -0.0342
13181TIP3    H160958   1.139   0.237  12.878  0.3554  0.0778  0.5822
13181TIP3    H260959   1.093   0.094  12.860 -1.7076  0.7875  0.1271
13182TIP3   OH260960   5.804   0.382  15.889 -0.0729 -0.2901 -0.4556
13182TIP3    H160961   5.837   0.322  15.821  2.4626 -1.5718  1.8067
13182TIP3    H260962   5.883   0.414  15.932 -1.6782 -0.9045  3.0760
13183TIP3   OH260963   5.716   6.620  16.711 -0.0465  0.6604 -0.0761
13183TIP3    H160964   5.741   6.559  16.780 -0.0808  0.9318  0.1768
13183TIP3    H260965   5.759   6.586  16.633  0.2416  0.5251  0.1399
13184TIP3   OH260966   0.584   3.112  10.712  0.2951  0.2184 -0.6414
13184TIP3    H160967   0.607   3.100  10.620  0.9770 -3.2390 -0.1086
13184TIP3    H260968   0.660   3.157  10.750  0.8298 -0.0288 -1.4009
13185TIP3   OH260969   5.699   0.335  15.415  0.0955  0.1218  0.2412
13185TIP3    H160970   5.735   0.270  15.355 -0.5146 -1.4207  1.5065
13185TIP3    H260971   5.696   0.291  15.500 -0.9674  1.5744  0.9943
13186TIP3   OH260972   6.022   0.912   0.288  0.1819 -0.2316  0.3212
13186TIP3    H160973   6.050   0.921   0.197  0.0765  0.1630  0.3288
13186TIP3    H260974   5.950   0.975   0.298  1.1612  0.7919  1.0759
13187TIP3   OH260975   2.119   3.045  15.448  0.2681  0.0332  0.5432
13187TIP3    H160976   2.198   3.096  15.429 -0.9772  1.7016 -0.3156
13187TIP3    H260977   2.121   3.031  15.542  2.6722 -1.7716  0.2473
13188TIP3   OH260978   5.558   0.472   1.824 -0.4424 -0.2695 -0.0681
13188TIP3    H160979   5.482   0.497   1.771 -0.6705  1.3494  0.9814
13188TIP3    H260980   5.520   0.446   1.908  0.1733  0.7171  0.5184
13189TIP3   OH260981   0.200   2.852   3.773 -0.0346  0.1691  0.4230
13189TIP3    H160982   0.289   2.827   3.751 -0.2910 -1.4785  1.1835
13189TIP3    H260983   0.155   2.769   3.789 -2.1383  0.8702 -1.5790
13190TIP3   OH260984   3.693   2.401  12.589 -0.4440  0.0218 -0.3594
13190TIP3    H160985   3.633   2.377  12.659  1.3916  1.2856  1.6816
13190TIP3    H260986   3.636   2.443  12.523 -1.7135  2.2201  2.0279
13191TIP3   OH260987   5.373   4.251   5.672  0.3581  0.1952 -0.1507
13191TIP3    H160988   5.360   4.159   5.649  0.5935 -0.0498  0.6866
13191TIP3    H260989   5.451   4.252   5.727 -0.6068  0.6829  1.2230
13192TIP3   OH260990   2.002   1.240   5.587  0.0836  0.2183 -0.0717
13192TIP3    H160991   2.068   1.269   5.650 -0.1196 -0.2383  0.3583
13192TIP3    H260992   2.014   1.146   5.581  0.7164  0.3695 -1.4418
13193TIP3   OH260993   5.747   1.807   3.160 -0.3886 -0.3262 -0.4221
13193TIP3    H160994   5.831   1.790   3.202 -0.1567  2.8330  0.5131
13193TIP3    H260995   5.695   1.851   3.227 -0.3433  3.9755 -3.0573
13194TIP3   OH260996   2.532   1.817   2.800 -0.1624  0.1342 -0.5488
13194TIP3    H160997   2.495   1.893   2.756  1.2069  0.8242 -0.5539
13194TIP3    H260998   2.457   1.763   2.823 -1.1088  1.2194 -1.0494
13195TIP3   OH260999   4.364   6.116   3.356 -0.1853  0.0789 -0.0426
13195TIP3    H161000   4.347   6.034   3.311  1.2681 -0.2084 -0.0855
13195TIP3    H261001   4.288   6.171   3.335  0.9689  0.3622 -3.8214
13196TIP3   OH261002   3.106   2.875   4.924 -0.3562  0.1219 -0.4439
13196TIP3    H161003   3.050   2.862   5.000  0.5617 -1.4633 -0.0325
13196TIP3    H261004   3.072   2.814   4.858  0.5426 -0.4613 -0.3717
13197TIP3   OH261005   0.702   5.098   2.087 -0.5973 -0.3826 -0.3022
13197TIP3    H161006   0.700   5.094   2.182 -0.6270 -1.9524 -0.3527
13197TIP3    H261007   0.655   5.179   2.065 -0.9141 -0.2038  0.9906
13198TIP3   OH261008   2.719   1.268   3.639 -0.1226  0.5771 -0.3939
13198TIP3    H161009   2.767   1.340   3.680 -0.6344  0.3080  0.6833
13198TIP3    H261010   2.632   1.270   3.679 -0.5285  0.1177 -1.2417
13199TIP3   OH261011   1.235   2.016  16.344 -0.0914  0.1691  0.1113
13199TIP3    H161012   1.182   2.089  16.375  2.0839  1.5916  0.6085
13199TIP3    H261013   1.321   2.055  16.325  1.7419 -2.5775  2.2922
13200TIP3   OH261014   4.903   4.339   3.251 -0.5336  0.3230 -0.4824
13200TIP3    H161015   4.969   4.398   3.287 -1.5717  1.2549 -0.0507
13200TIP3    H261016   4.888   4.372   3.163 -0.0680 -0.1815 -0.7454
13201TIP3   OH261017   1.329   6.451  13.366 -0.1746 -0.8818 -0.1414
13201TIP3    H161018   1.352   6.464  13.274  0.4774 -0.2551  0.0985
13201TIP3    H261019   1.314   6.540  13.399 -1.2743 -1.1649  0.1374
13202TIP3   OH261020   4.497   3.375  13.756 -0.6514  0.1806  0.7442
13202TIP3    H161021   4.446   3.453  13.732 -2.5816 -0.6716  1.9204
13202TIP3    H261022   4.551   3.404  13.830 -0.6084  0.6607  0.5299
13203TIP3   OH261023   3.003   3.492  13.989 -0.5230  0.0523 -0.9803
13203TIP3    H161024   3.041   3.419  13.940 -1.9665 -0.5907 -1.1757
13203TIP3    H261025   3.076   3.528  14.039 -0.0655 -2.4166  0.2008
13204TIP3   OH261026   6.680   2.394   5.324 -0.9596 -0.4574  0.5654
13204TIP3    H161027   6.730   2.428   5.250 -1.0502 -0.9077  0.2938
13204TIP3    H261028   6.635   2.317   5.289 -0.3353 -1.1795  1.3160
13205TIP3   OH261029   0.853   0.925   0.826 -0.7033  0.6656  0.8137
13205TIP3    H161030   0.872   0.848   0.772 -0.8734  0.1849  1.4248
13205TIP3    H261031   0.814   0.988   0.766 -1.2931 -0.0211  0.4690
13206TIP3   OH261032   4.434   5.163   7.074  0.3339  0.4711  0.5205
13206TIP3    H161033   4.425   5.084   7.127  0.5830  0.7335  0.9664
13206TIP3    H261034   4.409   5.137   6.986  0.1218 -0.0276  0.7291
13207TIP3   OH261035   5.567   2.274  16.506  0.1328 -0.0659 -0.0914
13207TIP3    H161036   5.496   2.334  16.481  0.4829  0.8147  0.9995
13207TIP3    H261037   5.608   2.249  16.423 -1.1248 -0.1725 -0.6848
13208TIP3   OH261038   1.784   0.900   4.621  0.9350  0.5015 -0.3246
13208TIP3    H161039   1.808   0.919   4.712 -1.1686 -1.1613  0.6338
13208TIP3    H261040   1.751   0.983   4.587  2.2556  1.2726  0.2421
13209TIP3   OH261041   5.493   1.926   1.251 -0.1497 -0.4194  0.1861
13209TIP3    H161042   5.536   1.926   1.336 -1.2493 -1.8613  0.7677
13209TIP3    H261043   5.550   1.873   1.195 -0.5315 -1.3098  0.6294
13210TIP3   OH261044   0.238   0.369   3.895  0.6718  0.0013  0.3107
13210TIP3    H161045   0.172   0.433   3.924 -0.6476 -1.1337 -0.0991
13210TIP3    H261046   0.278   0.338   3.977 -0.7315 -0.7768  0.7206
13211TIP3   OH261047   1.892   6.180  13.957  0.5082  0.2138 -0.2735
13211TIP3    H161048   1.924   6.217  14.039  0.0621 -1.5669  0.7428
13211TIP3    H261049   1.798   6.169  13.971  0.7410 -1.9871 -0.2233
13212TIP3   OH261050   5.504   4.781   1.761  0.0789  0.2610 -0.0128
13212TIP3    H161051   5.429   4.840   1.763 -0.1265 -0.0135  0.8056
13212TIP3    H261052   5.473   4.702   1.806 -0.0781 -0.9914 -2.2523
13213TIP3   OH261053   6.042   3.390   0.528 -0.5435  0.1878 -0.5986
13213TIP3    H161054   6.006   3.464   0.479 -3.1265 -0.5904  0.0464
13213TIP3    H261055   6.087   3.337   0.462  2.4364  2.9522 -0.8503
13214TIP3   OH261056   5.410   4.642  12.623 -0.1988  0.3896 -0.8623
13214TIP3    H161057   5.381   4.552  12.611  0.1514  0.5315 -3.0424
13214TIP3    H261058   5.413   4.654  12.718 -1.7198 -1.4047 -0.5604
13215TIP3   OH261059   1.733   0.663  14.747 -0.2764  0.5003  0.6049
13215TIP3    H161060   1.649   0.691  14.784 -0.0384 -0.1704  1.6578
13215TIP3    H261061   1.762   0.592  14.803  1.7209  1.6875  1.1266
13216TIP3   OH261062   3.401   0.278   3.804 -0.6422 -0.6244  0.5454
13216TIP3    H161063   3.369   0.356   3.760  0.4442  0.2256  1.2368
13216TIP3    H261064   3.323   0.238   3.842 -0.8800  1.6656  2.6098
13217TIP3   OH261065   5.586   1.955   6.389  0.0297  0.4320 -0.4023
13217TIP3    H161066   5.671   1.986   6.422  0.7459 -0.0619 -1.7457
13217TIP3    H261067   5.608   1.882   6.331 -1.4577 -0.9129  0.6863
13218TIP3   OH261068   1.641   3.705  13.752 -0.0564 -0.2433  0.2277
13218TIP3    H161069   1.574   3.761  13.711 -0.9082 -1.6419 -0.3299
13218TIP3    H261070   1.723   3.753  13.741 -0.6884  0.6257 -0.7615
13219TIP3   OH261071   2.139   1.804  17.067  0.7476  0.6899 -0.0474
13219TIP3    H161072   2.156   1.897  17.052  2.7388  0.4122  0.3735
13219TIP3    H261073   2.208   1.759  17.019  0.3306 -0.5362  0.4893
13220TIP3   OH261074   5.099   6.238  16.841  0.3663  0.3988 -0.0541
13220TIP3    H161075   5.077   6.160  16.791  0.5828  0.8369 -0.8458
13220TIP3    H261076   5.040   6.236  16.916  1.6102 -1.4903  0.9166
13221TIP3   OH261077   0.402   0.948  11.644  0.4258  0.7146  0.8138
13221TIP3    H161078   0.339   1.014  11.673 -0.1635 -0.2018  1.5957
13221TIP3    H261079   0.385   0.872  11.699  2.5306  0.6165  1.3492
13222TIP3   OH261080   1.436   2.001  13.136 -0.1680 -0.5815 -0.4104
13222TIP3    H161081   1.396   2.034  13.217  0.5411 -0.8433  0.0588
13222TIP3    H261082   1.506   2.064  13.117 -0.4611 -0.4098 -0.9390
13223TIP3   OH261083   4.265   6.401  14.037  1.4685 -0.5494 -0.3360
13223TIP3    H161084   4.340   6.435  13.988  1.0770 -2.2195 -2.1733
13223TIP3    H261085   4.192   6.405  13.976  0.2461  0.2315  1.1538
13224TIP3   OH261086   5.314   6.679  13.378 -0.5365 -0.2363 -0.1382
13224TIP3    H161087   5.400   6.638  13.373 -0.9955 -1.1932 -0.3080
13224TIP3    H261088   5.270   6.653  13.297 -1.1920 -0.2323  0.2125
13225TIP3   OH261089   5.126   0.761   1.520  0.0350  0.5294  0.9428
13225TIP3    H161090   5.045   0.807   1.542 -0.4412  0.0367  0.2412
13225TIP3    H261091   5.172   0.821   1.462  0.0344  0.6778  1.0934
13226TIP3   OH261092   0.810   1.484   3.185  0.6522 -0.3888  0.4828
13226TIP3    H161093   0.856   1.410   3.145 -0.5894 -0.7182 -0.3795
13226TIP3    H261094   0.720   1.477   3.152  0.4269  1.2854  0.7044
13227TIP3   OH261095   1.219   6.578   4.406 -0.1129  0.4813  0.3333
13227TIP3    H161096   1.132   6.603   4.376 -0.1554 -0.0839 -0.0380
13227TIP3    H261097   1.269   6.565   4.325  0.3332  0.8785  0.5460
13228TIP3   OH261098   2.501   4.134   3.046 -0.6577 -0.2173  0.4075
13228TIP3    H161099   2.515   4.179   2.962 -0.0276 -0.9027  0.1405
13228TIP3    H261100   2.569   4.067   3.049 -0.5217 -0.0248  1.5956
13229TIP3   OH261101   3.536   1.044  16.715  0.1557  0.3021  0.8137
13229TIP3    H161102   3.557   1.017  16.625  0.6531 -1.0553  1.3313
13229TIP3    H261103   3.442   1.033  16.722  0.2455 -0.5104  0.7577
13230TIP3   OH261104   5.890   3.250   1.988  0.4008 -0.2449  0.1872
13230TIP3    H161105   5.936   3.307   1.926  0.0244 -0.7397 -0.5583
13230TIP3    H261106   5.801   3.286   1.993  0.0416 -0.9961 -0.6028
13231TIP3   OH261107   2.442   3.910   5.512 -0.3581  0.2089 -0.3736
13231TIP3    H161108   2.528   3.931   5.475 -0.3192  0.2436 -0.2630
13231TIP3    H261109   2.401   3.995   5.525 -0.5717  0.1745 -0.8157
13232TIP3   OH261110   6.480   2.745   3.034 -0.4940  0.2766  0.0351
13232TIP3    H161111   6.565   2.734   3.076 -1.2516 -0.5237  1.4169
13232TIP3    H261112   6.423   2.778   3.104 -1.6058 -0.4002 -0.5369
13233TIP3   OH261113   1.589   1.769  14.446 -0.2323  0.3437  0.2549
13233TIP3    H161114   1.618   1.859  14.435 -1.6722  0.8911  0.7618
13233TIP3    H261115   1.576   1.736  14.357  1.4819  0.2288  0.0438
13234TIP3   OH261116   3.112   3.608  15.581  0.5416  0.3872 -1.0301
13234TIP3    H161117   3.045   3.666  15.618  0.8277  0.4319 -0.5710
13234TIP3    H261118   3.069   3.523  15.573  0.5433  0.3265 -0.3864
13235TIP3   OH261119   1.281   0.467   5.227  0.0711  0.0012 -0.5732
13235TIP3    H161120   1.278   0.375   5.254  0.4591  0.2622  0.3759
13235TIP3    H261121   1.232   0.470   5.145 -1.8323 -0.6535  0.5115
13236TIP3   OH261122   1.339   5.376   4.765  0.4498 -0.2190  0.0879
13236TIP3    H161123   1.410   5.377   4.829  1.1463  1.6061 -0.6572
13236TIP3    H261124   1.359   5.450   4.706 -2.1889  0.4916  0.0075
13237TIP3   OH261125   5.640   2.018   3.029  0.1338  0.6393  0.2242
13237TIP3    H161126   5.688   1.946   3.071 -0.8036 -0.5301 -0.6910
13237TIP3    H261127   5.552   1.984   3.016  0.6162  0.5693 -3.5842
13238TIP3   OH261128   0.539   5.266   0.458  0.6611 -0.2960 -0.8619
13238TIP3    H161129   0.561   5.326   0.386 -0.6489  0.2309 -0.8278
13238TIP3    H261130   0.501   5.190   0.415 -1.0790  0.4510 -0.6763
13239TIP3   OH261131   1.220   2.324   4.098 -0.4152  0.3246  0.1526
13239TIP3    H161132   1.256   2.236   4.107  0.3588  0.2052 -3.5591
13239TIP3    H261133   1.292   2.382   4.124 -0.2477 -0.0669  0.5666
13240TIP3   OH261134   2.516   4.401   3.327  0.0988  0.3253  0.2095
13240TIP3    H161135   2.480   4.334   3.385  0.7485 -0.2016  0.0086
13240TIP3    H261136   2.452   4.407   3.255 -0.2566  0.3488  0.5251
13241TIP3   OH261137   2.506   3.897   0.664  0.3439  0.1504  0.0522
13241TIP3    H161138   2.417   3.929   0.649 -0.0926 -1.6085 -1.2487
13241TIP3    H261139   2.531   3.855   0.582  1.2879 -1.8682  1.3375
13242TIP3   OH261140   1.573   3.363  13.136 -0.5489  0.0077 -0.2103
13242TIP3    H161141   1.616   3.436  13.182 -0.8501  0.5591 -0.7929
13242TIP3    H261142   1.522   3.319  13.205  0.9067 -0.6279  0.4751
13243TIP3   OH261143   4.402   5.916   0.570  0.3386  0.3580 -0.2178
13243TIP3    H161144   4.494   5.903   0.549  0.7343  4.8250 -1.8617
13243TIP3    H261145   4.356   5.847   0.523  2.7416 -1.4360 -0.0164
13244TIP3   OH261146   5.708   5.159  12.588 -0.2517  0.2393  0.8571
13244TIP3    H161147   5.670   5.076  12.562 -1.6096  0.8973  0.7070
13244TIP3    H261148   5.755   5.189  12.511  1.3170 -0.9800  1.3150
13245TIP3   OH261149   5.495   4.035  16.885 -0.1715 -0.2897 -0.5726
13245TIP3    H161150   5.553   4.111  16.891 -1.8601  1.0072 -0.0717
13245TIP3    H261151   5.413   4.071  16.850 -1.3387 -1.6791  0.6722
13246TIP3   OH261152   2.116   2.791  15.958  0.4863  0.0176 -0.0397
13246TIP3    H161153   2.029   2.808  15.922  0.6434  0.4809 -0.1970
13246TIP3    H261154   2.153   2.877  15.975  0.6385 -0.1949  0.7075
13247TIP3   OH261155   2.474   4.323  12.050  0.2380  0.3745 -0.0456
13247TIP3    H161156   2.454   4.250  12.108 -0.1087 -0.0095 -0.6444
13247TIP3    H261157   2.570   4.325  12.046  0.4000  2.2509  2.8788
13248TIP3   OH261158   2.259   1.986   0.325  0.6908 -0.2548  0.4054
13248TIP3    H161159   2.236   2.032   0.406  0.6581  0.1077  0.1884
13248TIP3    H261160   2.245   1.893   0.346  1.2116 -0.2059  0.9919
13249TIP3   OH261161   1.985   4.543  11.722  0.1451 -0.2599 -0.5553
13249TIP3    H161162   1.988   4.456  11.761 -0.4753  0.6274  1.5399
13249TIP3    H261163   1.992   4.527  11.628  0.5380 -2.5311 -0.1749
13250TIP3   OH261164   0.813   4.349   4.660  0.0571  0.1546 -0.4739
13250TIP3    H161165   0.850   4.421   4.609  0.8749 -0.0620 -0.1878
13250TIP3    H261166   0.723   4.340   4.627  0.5700  0.0232 -1.8635
13251TIP3   OH261167   2.918   2.600  16.726 -0.6218 -0.3606 -0.3608
13251TIP3    H161168   2.960   2.582  16.810 -1.1025  0.8040  0.1413
13251TIP3    H261169   2.990   2.628  16.669  0.0633 -3.2490 -1.0153
13252TIP3   OH261170   6.570   4.597   1.926 -0.1366  0.2651  0.6346
13252TIP3    H161171   6.481   4.629   1.941  0.6431  2.1686  1.4356
13252TIP3    H261172   6.611   4.599   2.012  1.2262  1.1666 -0.0141
13253TIP3   OH261173   2.854   5.489   6.215 -0.0081 -0.3207  0.1623
13253TIP3    H161174   2.760   5.473   6.208 -0.1972  0.0427  1.8456
13253TIP3    H261175   2.869   5.570   6.167 -0.5470 -0.4029 -0.1450
13254TIP3   OH261176   6.580   3.553  15.268  0.2493 -0.0287  0.3796
13254TIP3    H161177   6.502   3.596  15.303  0.2342 -1.8143  2.6550
13254TIP3    H261178   6.652   3.612  15.291 -0.2733  1.0479 -0.6920
13255TIP3   OH261179   0.571   6.322   0.985  0.0308 -0.7370  0.0502
13255TIP3    H161180   0.664   6.327   1.009  0.0744 -0.5783 -0.1483
13255TIP3    H261181   0.564   6.376   0.906 -0.6793  1.1739  1.3730
13256TIP3   OH261182   6.278   3.836   5.172 -0.2969  0.5469  0.1200
13256TIP3    H161183   6.196   3.788   5.165 -0.0194  0.3235 -2.0785
13256TIP3    H261184   6.252   3.929   5.171 -0.6625  0.4820  1.8794
13257TIP3   OH261185   3.212   3.163  14.550 -0.1699 -0.4585  0.0402
13257TIP3    H161186   3.193   3.160  14.644 -0.8401  0.3656 -0.0646
13257TIP3    H261187   3.143   3.111  14.510 -0.6381  0.2657 -0.1036
13258TIP3   OH261188   2.452   1.064  12.524  0.5029  0.0701 -0.1531
13258TIP3    H161189   2.507   1.071  12.603 -0.2787  0.5855  0.3505
13258TIP3    H261190   2.363   1.075  12.556  0.0149 -1.6241 -0.8506
13259TIP3   OH261191   4.387   6.118   5.354 -0.6156 -0.6977 -0.2081
13259TIP3    H161192   4.301   6.150   5.378 -1.1433 -2.1613 -0.1105
13259TIP3    H261193   4.427   6.090   5.436  0.3453  0.8973 -0.1218
13260TIP3   OH261194   4.416   2.996  12.356 -0.5933  0.1314 -0.2943
13260TIP3    H161195   4.428   3.043  12.274 -2.0756  1.4032  0.1890
13260TIP3    H261196   4.505   2.985  12.391 -0.1696  2.2408 -0.6245
13261TIP3   OH261197   3.021   6.757  16.357 -0.2424  0.3510  0.6905
13261TIP3    H161198   3.016   6.736  16.264 -0.7549  0.8744  0.5954
13261TIP3    H261199   3.082   6.692  16.393  0.1319  0.2909 -0.0459
13262TIP3   OH261200   4.029   2.409   2.521  0.2031  0.7532  0.0705
13262TIP3    H161201   4.042   2.375   2.433  0.2800 -0.3117  0.4830
13262TIP3    H261202   4.020   2.503   2.510  1.7682  0.7881 -0.9093
13263TIP3   OH261203   2.296   4.481   2.764  0.2210 -0.0192  0.3050
13263TIP3    H161204   2.247   4.520   2.692  0.8595 -0.5882 -0.4466
13263TIP3    H261205   2.347   4.553   2.800 -0.1674  0.2850  0.2508
13264TIP3   OH261206   0.668   4.735  15.362 -0.3431 -0.1052  0.1310
13264TIP3    H161207   0.761   4.742  15.386  0.0271  3.3728 -1.9322
13264TIP3    H261208   0.623   4.789  15.427 -0.8534 -0.9830  0.5219
13265TIP3   OH261209   2.403   6.327  16.296 -0.2143 -0.3091  0.7863
13265TIP3    H161210   2.481   6.349  16.245 -1.6434  1.7779 -0.6262
13265TIP3    H261211   2.388   6.234  16.278  1.7859 -0.6617  0.8698
13266TIP3   OH261212   6.336   4.715   2.060 -0.5644  0.5611 -0.1630
13266TIP3    H161213   6.354   4.641   2.118 -0.9412  1.2813  0.8875
13266TIP3    H261214   6.362   4.792   2.110 -0.5942  1.1793 -1.0779
13267TIP3   OH261215   5.422   4.574   0.265  0.5350 -0.2778  0.3338
13267TIP3    H161216   5.391   4.519   0.337  2.4270  0.0326  1.4095
13267TIP3    H261217   5.457   4.512   0.201 -1.1464 -0.5539 -0.3430
13268TIP3   OH261218   3.944   3.006   4.932 -0.6028  0.2373 -0.2240
13268TIP3    H161219   3.877   3.067   4.903 -1.8644 -2.0171 -2.2146
13268TIP3    H261220   3.932   2.929   4.877  4.6757  0.3450 -1.7311
13269TIP3   OH261221   0.910   1.994  15.183 -0.4030 -0.8294 -0.1305
13269TIP3    H161222   0.933   2.012  15.275 -2.2933  0.7438  0.0493
13269TIP3    H261223   0.854   1.917  15.187 -1.0163 -0.3697  0.0902
13270TIP3   OH261224   5.992   2.642  14.307  0.4227 -0.1949 -0.0243
13270TIP3    H161225   6.081   2.630  14.341  0.5504 -2.2456 -1.0338
13270TIP3    H261226   5.936   2.632  14.384  0.9025 -1.7191  0.1466
13271TIP3   OH261227   5.039   0.762  15.880  0.3865  0.0029  0.1891
13271TIP3    H161228   5.074   0.730  15.963 -0.3172 -1.1136  0.0612
13271TIP3    H261229   4.965   0.818  15.904 -0.9309 -1.7307  0.2641
13272TIP3   OH261230   4.479   6.783  16.728 -0.4902  0.0516 -0.1842
13272TIP3    H161231   4.533   6.856  16.758  0.2551 -0.2937 -0.6682
13272TIP3    H261232   4.423   6.820  16.660 -2.0141  0.7845  1.4010
13273TIP3   OH261233   3.415   3.233   1.337 -0.1313  0.4308 -0.5043
13273TIP3    H161234   3.332   3.221   1.383 -1.1434  2.0341 -1.8383
13273TIP3    H261235   3.476   3.264   1.404 -0.6821 -0.4385  0.4156
13274TIP3   OH261236   1.638   4.107   3.931  0.2705 -0.1143 -0.2108
13274TIP3    H161237   1.655   4.036   3.869 -0.3553 -0.9889  0.6005
13274TIP3    H261238   1.684   4.081   4.011 -2.3749 -1.0821  1.0613
13275TIP3   OH261239   3.791   5.299   3.422 -0.2235 -0.1321 -0.0279
13275TIP3    H161240   3.793   5.306   3.517  1.5967  2.1997 -0.1802
13275TIP3    H261241   3.718   5.355   3.395  0.5453  0.8529 -0.0924
13276TIP3   OH261242   2.766   2.374  14.704  0.4034 -0.7564 -0.1843
13276TIP3    H161243   2.728   2.289  14.681  0.4110 -1.0007  0.6568
13276TIP3    H261244   2.838   2.386  14.642 -0.1524 -0.9627 -0.8662
13277TIP3   OH261245   5.356   1.687   3.335  0.4834  0.1483 -0.0019
13277TIP3    H161246   5.421   1.684   3.405  0.3568  0.6481  0.1382
13277TIP3    H261247   5.272   1.694   3.380  0.2751 -1.1467 -0.1629
13278TIP3   OH261248   0.971   1.806  16.259 -0.3546 -0.0765 -0.0909
13278TIP3    H161249   1.040   1.827  16.322  0.1646  0.9567 -0.9824
13278TIP3    H261250   0.898   1.863  16.283  0.0401  0.7172 -0.7544
13279TIP3   OH261251   3.428   2.809   5.305  0.5824  0.6694  0.0085
13279TIP3    H161252   3.518   2.843   5.311  0.1451  2.3582 -2.1988
13279TIP3    H261253   3.382   2.874   5.251 -1.7209 -0.6953  0.2785
13280TIP3   OH261254   5.030   5.693  11.870  0.7259 -1.0857 -0.2190
13280TIP3    H161255   5.077   5.650  11.798  0.9141 -0.3298 -0.5495
13280TIP3    H261256   5.099   5.735  11.922  0.5806 -1.5463  0.3507
13281TIP3   OH261257   5.187   4.226   2.527  0.0803 -0.0723 -0.1965
13281TIP3    H161258   5.276   4.259   2.537 -0.3880  1.4074 -0.6310
13281TIP3    H261259   5.183   4.148   2.582  1.0182  1.0558  1.5257
13282TIP3   OH261260   1.952   6.423  15.535 -0.2147  0.1713 -0.5856
13282TIP3    H161261   1.922   6.332  15.540  1.2737 -0.3025 -0.1232
13282TIP3    H261262   1.881   6.473  15.574 -2.3732 -0.4630 -3.4616
13283TIP3   OH261263   4.436   2.447  13.611  0.1495  0.6978  0.3352
13283TIP3    H161264   4.481   2.455  13.527 -1.1045 -1.0239 -0.5136
13283TIP3    H261265   4.343   2.441  13.589 -0.3985  2.4960  1.9794
13284TIP3   OH261266   0.317   5.424  10.443 -0.1028 -0.2200  0.3251
13284TIP3    H161267   0.367   5.468  10.511  0.6612  0.2887 -0.5592
13284TIP3    H261268   0.361   5.448  10.361 -0.4845 -1.5191 -0.2799
13285TIP3   OH261269   3.023   1.665   2.748  0.2962 -0.0057  0.0165
13285TIP3    H161270   2.945   1.718   2.732  0.7443  1.3487  2.0970
13285TIP3    H261271   3.096   1.726   2.735  0.8428 -0.3013  1.5623
13286TIP3   OH261272   5.878   6.694   3.346  0.4986 -0.2731  0.3096
13286TIP3    H161273   5.784   6.714   3.347  0.2883 -1.2433  0.6462
13286TIP3    H261274   5.884   6.608   3.387  1.6292  0.1522  1.0610
13287TIP3   OH261275   5.926   1.785   2.200  0.0673  0.3356 -0.4481
13287TIP3    H161276   5.973   1.856   2.157 -0.2742  0.8638  0.0384
13287TIP3    H261277   5.940   1.801   2.294 -0.2428 -0.0771 -0.3299
13288TIP3   OH261278   1.524   6.398  14.284 -0.2092 -0.1947 -0.0499
13288TIP3    H161279   1.471   6.457  14.231 -0.8099  0.4522  1.2435
13288TIP3    H261280   1.508   6.311  14.247 -0.6848  0.2290 -0.8556
13289TIP3   OH261281   0.730   6.073   3.894 -0.2369 -0.1846  0.2342
13289TIP3    H161282   0.714   6.091   3.802  2.0230 -0.9770 -0.3528
13289TIP3    H261283   0.665   6.127   3.941 -1.6083 -0.0298 -1.7952
13290TIP3   OH261284   2.582   4.930  11.847  0.0330 -0.1115  0.2927
13290TIP3    H161285   2.661   4.900  11.801  0.3959  0.9953  0.1873
13290TIP3    H261286   2.555   5.009  11.800  0.4002  1.0218  1.9558
13291TIP3   OH261287   1.007   4.910  16.513 -0.5045 -0.3854 -0.2809
13291TIP3    H161288   0.914   4.892  16.503 -0.8321  0.6533  0.8251
13291TIP3    H261289   1.038   4.921  16.423 -1.6715  0.3045 -0.6173
13292TIP3   OH261290   4.483   6.296   0.472 -0.4046 -0.1553  0.0382
13292TIP3    H161291   4.558   6.282   0.529 -0.2600  1.5038  0.2603
13292TIP3    H261292   4.448   6.381   0.498 -0.4063  0.5781 -2.2442
13293TIP3   OH261293   6.220   4.879  16.543  0.0753 -0.4055 -0.2651
13293TIP3    H161294   6.297   4.901  16.491  0.2832  1.0611  0.6392
13293TIP3    H261295   6.256   4.858  16.630 -0.4000 -1.4005 -0.2997
13294TIP3   OH261296   1.400   3.903   2.334 -0.2257  0.5366 -0.1430
13294TIP3    H161297   1.486   3.863   2.352 -0.5806  0.3316  1.1620
13294TIP3    H261298   1.397   3.911   2.239  0.2470 -1.7107 -0.3940
13295TIP3   OH261299   4.936   5.068  15.738 -0.3087 -0.1227 -0.2323
13295TIP3    H161300   5.027   5.093  15.720  0.6649 -1.7789  2.1036
13295TIP3    H261301   4.907   5.131  15.804 -0.2265 -0.7124  0.3758
13296TIP3   OH261302   1.603   3.524  12.139 -0.2586  0.5982  0.2074
13296TIP3    H161303   1.622   3.588  12.207  1.2263 -0.2569  0.6365
13296TIP3    H261304   1.593   3.441  12.186 -0.7544  0.2684 -0.4706
13297TIP3   OH261305   5.605   4.401  12.042  0.1080  0.5712  0.0356
13297TIP3    H161306   5.684   4.388  12.094 -0.2872 -0.8135  0.3065
13297TIP3    H261307   5.596   4.496  12.036  0.1386  0.7474  2.5022
13298TIP3   OH261308   2.365   3.070  11.774 -0.1868 -0.2100  0.0856
13298TIP3    H161309   2.334   3.139  11.833 -0.9013  0.0809 -0.6180
13298TIP3    H261310   2.459   3.086  11.765 -0.5255  1.3005 -0.8871
13299TIP3   OH261311   3.892   0.361   2.564 -0.8626  0.5507  0.7151
13299TIP3    H161312   3.798   0.371   2.576 -1.1038  0.5051 -0.9598
13299TIP3    H261313   3.911   0.410   2.483  0.5424  0.5574  1.0360
13300TIP3   OH261314   1.307   0.329   4.671 -0.3754  0.1325 -0.1565
13300TIP3    H161315   1.222   0.294   4.699 -1.1869  2.1152 -0.0785
13300TIP3    H261316   1.371   0.272   4.714 -1.6426 -0.7800  0.5892
13301TIP3   OH261317   2.647   2.714  14.849  0.2131  0.1974 -0.1881
13301TIP3    H161318   2.728   2.707  14.798  1.1213  0.8487  1.1371
13301TIP3    H261319   2.581   2.668  14.797  1.8786 -2.0555 -0.3903
13302TIP3   OH261320   4.149   3.002   6.455 -0.1030 -0.0374  0.0243
13302TIP3    H161321   4.202   2.923   6.470 -1.4760 -0.8196  0.8311
13302TIP3    H261322   4.154   3.049   6.538  0.7447  0.7655 -0.4692
13303TIP3   OH261323   4.938   3.885  12.105  0.3929 -0.4607  0.0398
13303TIP3    H161324   4.892   3.819  12.054  0.2471 -0.4668  0.1770
13303TIP3    H261325   4.895   3.883  12.191  0.3215 -0.1221  0.0148
13304TIP3   OH261326   0.825   5.583   1.366  0.4749  0.1369  0.4997
13304TIP3    H161327   0.916   5.559   1.350  0.2375  0.2978 -1.2806
13304TIP3    H261328   0.829   5.654   1.429  1.5348 -0.3672  1.0110
13305TIP3   OH261329   5.317   3.254  16.006  0.1358  0.1239  0.2716
13305TIP3    H161330   5.376   3.183  16.031  0.1228  0.1781  0.4536
13305TIP3    H261331   5.374   3.331  15.999 -0.2459  0.6654  2.5838
13306TIP3   OH261332   3.298   3.011  10.578  0.0161 -0.2541  0.0228
13306TIP3    H161333   3.304   2.920  10.550  1.5862 -0.3706  0.7091
13306TIP3    H261334   3.231   3.011  10.646 -1.6858 -0.4709 -1.5935
13307TIP3   OH261335   6.096   6.332   0.148  0.4739 -0.4548  0.2239
13307TIP3    H161336   6.022   6.292   0.195 -0.7302  0.1702 -1.0958
13307TIP3    H261337   6.124   6.404   0.206 -1.3089  0.6134 -0.1760
13308TIP3   OH261338   0.984   3.482  16.051 -0.4855 -0.1734 -0.1004
13308TIP3    H161339   1.012   3.391  16.051 -3.2815 -1.0724 -0.9920
13308TIP3    H261340   1.008   3.515  15.964  1.3567  0.2453  0.5430
13309TIP3   OH261341   0.689   0.182  13.498  0.5469  0.6802  0.3399
13309TIP3    H161342   0.727   0.206  13.413 -1.5639 -0.5451 -0.9693
13309TIP3    H261343   0.674   0.266  13.542  0.9739  1.3460 -0.7692
13310TIP3   OH261344   4.833   4.901  15.341  0.2831  0.1722  0.2731
13310TIP3    H161345   4.781   4.925  15.264  1.2974  0.0195 -0.4707
13310TIP3    H261346   4.826   4.976  15.400  1.0159  1.0644 -0.7680
13311TIP3   OH261347   2.687   5.286  15.157 -0.4436 -0.3204  0.6713
13311TIP3    H161348   2.709   5.358  15.098 -2.9844  0.5305  0.7151
13311TIP3    H261349   2.605   5.251  15.123  0.7140 -3.1872  0.6908
13312TIP3   OH261350   1.894   4.387   2.434  0.1145  0.1733  0.7201
13312TIP3    H161351   1.959   4.332   2.479 -0.7431 -0.6907  0.9171
13312TIP3    H261352   1.906   4.474   2.472  2.6398  0.5432 -0.7861
13313TIP3   OH261353   3.969   1.719   4.189 -0.1001  0.1621  0.0013
13313TIP3    H161354   3.926   1.761   4.263 -0.0148 -1.4684  0.9999
13313TIP3    H261355   4.062   1.741   4.200 -0.4955  2.8670 -1.6161
13314TIP3   OH261356   3.409   4.198  16.214 -0.2539  0.5910 -0.0283
13314TIP3    H161357   3.322   4.186  16.252 -0.3611  2.9177  0.5309
13314TIP3    H261358   3.457   4.249  16.279  2.1018 -2.1376  0.4344
13315TIP3   OH261359   3.173   1.640  11.587 -0.1809  0.7450 -0.3616
13315TIP3    H161360   3.091   1.662  11.543 -1.2472 -1.4363  0.4433
13315TIP3    H261361   3.175   1.696  11.664 -0.3260  1.6397 -0.9950
13316TIP3   OH261362   1.688   6.248   5.267  0.2611 -0.6620  0.0380
13316TIP3    H161363   1.665   6.156   5.258  1.2683 -0.7799 -1.4652
13316TIP3    H261364   1.746   6.250   5.344 -0.3025 -1.1752  0.4834
13317TIP3   OH261365   3.623   1.261  12.418 -0.0271 -0.7419  0.5670
13317TIP3    H161366   3.669   1.338  12.384 -1.5090 -0.7644 -1.5979
13317TIP3    H261367   3.532   1.273  12.390 -1.4894 -0.5534  4.9674
13318TIP3   OH261368   2.326   0.001  14.940  0.2662  0.3794  0.0535
13318TIP3    H161369   2.273   0.074  14.972 -1.5002  0.1474 -2.2091
13318TIP3    H261370   2.265  -0.073  14.937  0.2574  0.4321 -3.8945
13319TIP3   OH261371   3.598   5.912  16.171  0.1601  0.5878  0.6495
13319TIP3    H161372   3.642   5.980  16.119  0.5978 -0.1611  0.0349
13319TIP3    H261373   3.513   5.900  16.128  0.4568  0.0839  0.2058
13320TIP3   OH261374   1.195   6.562   4.669 -0.6608 -0.2566  0.4277
13320TIP3    H161375   1.275   6.603   4.703  0.3365 -1.8637  0.1074
13320TIP3    H261376   1.191   6.591   4.578  0.7215 -1.8197 -0.1528
13321TIP3   OH261377   1.871   4.959  13.760 -0.4098  0.2024 -0.6631
13321TIP3    H161378   1.822   5.008  13.826 -0.7766  0.7880 -1.3645
13321TIP3    H261379   1.864   4.868  13.788  1.0180  0.6109  1.1470
13322TIP3   OH261380   4.397   5.607  14.686  0.4202  0.1796 -0.3090
13322TIP3    H161381   4.400   5.700  14.709 -2.8878  0.5232 -0.9990
13322TIP3    H261382   4.388   5.561  14.770 -0.3068  0.6384 -0.1393
13323TIP3   OH261383   5.771   1.425   3.004 -0.2247 -0.3895  0.4017
13323TIP3    H161384   5.805   1.508   2.972  0.1163 -1.2266 -1.4523
13323TIP3    H261385   5.797   1.422   3.096  2.9644 -0.0747 -0.4460
13324TIP3   OH261386   3.460   4.010  16.009  0.7106 -0.0979  0.1980
13324TIP3    H161387   3.440   3.930  16.059 -2.3204 -0.0072 -0.7804
13324TIP3    H261388   3.456   4.080  16.074 -2.6329 -0.0589  0.0690
13325TIP3   OH261389   4.483   1.524  10.881  0.2894  0.5394  0.5840
13325TIP3    H161390   4.510   1.582  10.809  0.0695  0.3232  0.3259
13325TIP3    H261391   4.441   1.582  10.944  1.3348  0.8797  0.9831
13326TIP3   OH261392   1.290   0.934   2.838  0.2447 -1.2892  0.5459
13326TIP3    H161393   1.380   0.926   2.872  0.9677  2.5999 -0.2464
13326TIP3    H261394   1.236   0.944   2.916  1.1200  1.1294  0.8821
13327TIP3   OH261395   1.735   1.300   5.576  0.4343  0.0831  0.0083
13327TIP3    H161396   1.824   1.269   5.594  0.5282  1.1382  1.4062
13327TIP3    H261397   1.706   1.339   5.658 -1.4155 -0.4469 -0.3668
13328TIP3   OH261398   6.303   6.297  13.775 -0.6222 -0.3293 -0.9737
13328TIP3    H161399   6.259   6.215  13.795 -1.7284 -0.1143 -2.4453
13328TIP3    H261400   6.396   6.274  13.769 -0.8467 -1.3176 -0.5912
13329TIP3   OH261401   1.980   0.842  11.593  0.1843  1.1178 -0.4383
13329TIP3    H161402   2.063   0.846  11.547  0.8224  0.2533  0.6334
13329TIP3    H261403   1.938   0.762  11.561  0.5508  0.6095  0.3571
13330TIP3   OH261404   3.307   5.238   6.165 -0.0750  0.3142  0.0314
13330TIP3    H161405   3.336   5.161   6.214  1.0072 -0.6958 -2.1062
13330TIP3    H261406   3.386   5.293   6.157 -0.2459  0.4800 -0.5351
13331TIP3   OH261407   1.046   1.545   0.265 -0.2501  0.1962 -0.0621
13331TIP3    H161408   1.039   1.468   0.321 -0.2610 -0.2248 -0.6336
13331TIP3    H261409   0.985   1.529   0.193 -1.3456  1.4115  0.5671
13332TIP3   OH261410   2.671   0.066   1.931 -0.2050  0.1277  0.5059
13332TIP3    H161411   2.755   0.090   1.970  0.1511  0.1417 -0.2580
13332TIP3    H261412   2.615   0.143   1.946  0.0148  0.2485  0.7188
13333TIP3   OH261413   6.011   6.277   1.426  0.2261  0.0939 -0.4746
13333TIP3    H161414   6.092   6.300   1.379 -0.1195  0.2805 -0.9828
13333TIP3    H261415   6.026   6.308   1.515 -0.3687  2.6406 -1.2241
13334TIP3   OH261416   3.109   2.985  14.174 -0.2343 -0.5105 -0.0721
13334TIP3    H161417   3.025   2.988  14.129 -0.4488 -0.2182  0.3390
13334TIP3    H261418   3.142   3.075  14.168 -2.8555  1.0138  5.1671
13335TIP3   OH261419   2.771   1.038   5.373  0.1711  0.1152  0.2979
13335TIP3    H161420   2.768   1.113   5.313 -0.8477 -0.7203 -0.7223
13335TIP3    H261421   2.825   1.068   5.446 -0.7343  2.0503  0.2082
13336TIP3   OH261422   2.829   2.750  13.666 -0.4275  0.0702 -0.0826
13336TIP3    H161423   2.883   2.681  13.706 -0.6260 -0.1139 -0.1341
13336TIP3    H261424   2.794   2.710  13.587 -3.6457 -1.0500  1.8384
13337TIP3   OH261425   6.110   0.596  14.796 -0.4225 -0.1308  0.4303
13337TIP3    H161426   6.187   0.593  14.741 -0.2478  1.9837  0.5514
13337TIP3    H261427   6.108   0.510  14.838  1.8605 -0.2061  0.4333
13338TIP3   OH261428   4.171   5.747  15.143  0.7876 -0.5007 -0.4695
13338TIP3    H161429   4.135   5.792  15.067 -0.8864 -0.8728  0.0894
13338TIP3    H261430   4.165   5.810  15.215  0.7214 -0.7668 -0.2383
13339TIP3   OH261431   2.741   2.845   2.179  0.6834  0.1284 -0.7088
13339TIP3    H161432   2.776   2.812   2.096  2.8184  1.2116 -0.2760
13339TIP3    H261433   2.704   2.930   2.157  0.8581  0.2241 -0.6318
13340TIP3   OH261434   3.139   2.696   2.229 -0.0132  0.9275  0.1565
13340TIP3    H161435   3.181   2.611   2.236  0.2685  0.9863 -0.7677
13340TIP3    H261436   3.060   2.688   2.283  0.3834  0.3214  0.6527
13341TIP3   OH261437   4.811   4.063  15.226  0.8078  0.5353 -0.2542
13341TIP3    H161438   4.880   4.058  15.291 -0.4950 -1.7913  0.9807
13341TIP3    H261439   4.781   3.973  15.215 -2.4458  1.5642 -0.2838
13342TIP3   OH261440   4.837   5.634   4.271 -0.2613 -0.0411  0.5799
13342TIP3    H161441   4.861   5.582   4.195 -0.3880 -1.1100  1.2643
13342TIP3    H261442   4.743   5.619   4.282 -0.3550  0.5525  0.6209
13343TIP3   OH261443   3.320   6.277  12.456 -0.4066  0.4530  0.9869
13343TIP3    H161444   3.402   6.240  12.490 -0.2705  0.9266  1.1836
13343TIP3    H261445   3.263   6.202  12.444  0.1133  0.1002  0.6967
13344TIP3   OH261446   6.130   6.693  12.807  0.0500 -0.0326  0.3060
13344TIP3    H161447   6.214   6.649  12.804  0.6734  1.0959  0.7852
13344TIP3    H261448   6.101   6.685  12.897 -2.5658 -4.3955 -0.7882
13345TIP3   OH261449   4.980   0.035  14.890  0.4553 -0.3796 -0.5795
13345TIP3    H161450   4.937   0.089  14.824 -0.4184 -0.6811 -0.2781
13345TIP3    H261451   4.917  -0.035  14.908  0.6338 -0.2525  0.6222
13346TIP3   OH261452   3.215   6.373  16.969 -0.2686  0.1710 -0.1324
13346TIP3    H161453   3.168   6.343  17.046 -1.4636  1.8411 -0.2063
13346TIP3    H261454   3.200   6.467  16.965  0.2016  0.1976 -2.1156
13347TIP3   OH261455   6.352   1.458  11.510  0.1454  0.1747  0.0933
13347TIP3    H161456   6.398   1.523  11.457 -0.3588  1.0019  0.6553
13347TIP3    H261457   6.263   1.456  11.474  0.3835 -0.8061 -0.4527
13348TIP3   OH261458   0.085   0.928   4.687 -0.0540  0.3370 -0.2149
13348TIP3    H161459   0.062   1.021   4.677  0.3024  0.4298 -0.1571
13348TIP3    H261460   0.001   0.885   4.701 -0.2808  0.5731 -0.8357
13349TIP3   OH261461   6.546   4.624   3.188 -0.8497 -0.1762 -0.2560
13349TIP3    H161462   6.612   4.677   3.233  0.6202 -2.6067  0.5679
13349TIP3    H261463   6.595   4.577   3.120 -2.2393  0.0452 -1.4170
13350TIP3   OH261464   3.402   4.452  14.781 -0.0071  0.1436 -0.3180
13350TIP3    H161465   3.410   4.401  14.862  2.3439  2.1498  0.8147
13350TIP3    H261466   3.481   4.431  14.732  1.4399  3.2035  0.5481
13351TIP3   OH261467   5.709   3.125  14.624 -0.0291 -0.2153  0.1869
13351TIP3    H161468   5.797   3.089  14.609 -1.0104 -1.5684 -2.7124
13351TIP3    H261469   5.654   3.078  14.562 -2.2680  2.8638 -0.2314
13352TIP3   OH261470   4.186   5.541  16.899  0.5585 -0.6361 -0.3409
13352TIP3    H161471   4.272   5.527  16.859  0.4886  0.2397 -0.8029
13352TIP3    H261472   4.124   5.514  16.832  0.3982  2.5344 -1.5685
13353TIP3   OH261473   6.675   4.438   0.071 -0.0298  0.0180  0.1755
13353TIP3    H161474   6.669   4.399   0.158 -0.4912 -1.8550 -0.6549
13353TIP3    H261475   6.764   4.418   0.042  0.4400  1.4837  0.5950
13354TIP3   OH261476   2.500   0.049  14.143  0.2610 -0.4577  0.1506
13354TIP3    H161477   2.413   0.012  14.154 -0.2240  0.9509  1.1877
13354TIP3    H261478   2.554   0.005  14.209  0.7781 -2.6197 -1.6657
13355TIP3   OH261479   3.330   0.028  12.376 -0.4753  0.5211  0.5636
13355TIP3    H161480   3.291   0.015  12.290 -1.8943  1.3251  1.0740
13355TIP3    H261481   3.370  -0.057  12.397 -0.1737  0.3095 -0.8499
13356TIP3   OH261482   4.465   1.670  14.394  0.4458  0.1969  0.4835
13356TIP3    H161483   4.468   1.725  14.316 -0.2067 -2.3173 -1.3796
13356TIP3    H261484   4.508   1.589  14.367 -3.4907 -2.2998  1.3949
13357TIP3   OH261485   5.307   0.595   0.015  0.2526 -0.4529 -0.5050
13357TIP3    H161486   5.357   0.567   0.092  2.1461 -0.7558 -1.8114
13357TIP3    H261487   5.223   0.622   0.050  1.0863 -0.5800  1.6844
13358TIP3   OH261488   3.820   6.222   0.097 -0.2506 -0.2440  0.2134
13358TIP3    H161489   3.855   6.264   0.176  0.2234  1.0470 -0.6649
13358TIP3    H261490   3.726   6.240   0.100 -0.1912  0.0459  0.3389
13359TIP3   OH261491   2.483   4.096   5.309  0.0302  0.6455  0.1595
13359TIP3    H161492   2.547   4.025   5.307  0.3080  0.8828  0.5465
13359TIP3    H261493   2.534   4.175   5.289 -0.1409  0.8306  0.4514
13360TIP3   OH261494   2.081   2.853  13.279 -0.6180  0.0770  0.5630
13360TIP3    H161495   2.175   2.869  13.282 -0.6531  1.0114 -1.8971
13360TIP3    H261496   2.067   2.774  13.332  1.7037 -0.8372 -0.1707
13361TIP3   OH261497   6.093   2.827   2.478 -0.5486  0.0500  0.1286
13361TIP3    H161498   6.168   2.785   2.519 -2.1652 -1.4995  1.6142
13361TIP3    H261499   6.103   2.809   2.384  1.2490  0.4341  0.2386
13362TIP3   OH261500   1.524   6.643  12.368 -0.1958 -0.5198 -0.7398
13362TIP3    H161501   1.607   6.677  12.335  0.0543 -0.2023  0.1963
13362TIP3    H261502   1.548   6.592  12.445 -0.7933 -1.0468 -0.8993
13363TIP3   OH261503   2.313   4.131   6.172 -0.0080  0.1236  0.3879
13363TIP3    H161504   2.306   4.223   6.198  2.5591  0.9661 -1.6692
13363TIP3    H261505   2.353   4.088   6.248 -1.2978  0.6445  1.3933
13364TIP3   OH261506   0.248   5.414   0.797 -0.0541 -0.6969  0.2470
13364TIP3    H161507   0.319   5.442   0.738  0.0219 -1.0008  0.1970
13364TIP3    H261508   0.268   5.323   0.818 -0.2777 -0.6977  0.4590
13365TIP3   OH261509   3.960   6.319  16.667 -0.0293  0.5423 -0.2619
13365TIP3    H161510   4.054   6.333  16.657  0.0264 -0.2239 -0.8251
13365TIP3    H261511   3.945   6.322  16.762  0.2920  2.3671 -0.2580
13366TIP3   OH261512   5.981   3.561   3.100  0.5552 -0.0759  0.3344
13366TIP3    H161513   5.917   3.626   3.127  0.4921 -0.4379  1.0828
13366TIP3    H261514   5.969   3.551   3.006 -0.3126  0.0394  0.4372
13367TIP3   OH261515   5.456   1.514   2.384 -0.4182 -0.1594  0.5452
13367TIP3    H161516   5.497   1.446   2.331 -0.6645 -1.0973  1.5477
13367TIP3    H261517   5.529   1.554   2.432 -0.2560  0.3846 -0.1426
13368TIP3   OH261518   3.179   1.773   4.624 -0.0911 -0.1848  0.2709
13368TIP3    H161519   3.258   1.817   4.655 -0.1025  0.8798 -1.2063
13368TIP3    H261520   3.209   1.687   4.595  0.4285  0.0115  0.2326
13369TIP3   OH261521   0.357   6.678  16.889 -0.0062 -0.3979  0.0836
13369TIP3    H161522   0.405   6.709  16.966 -0.1326  0.4847 -0.1826
13369TIP3    H261523   0.406   6.713  16.814 -0.9639  0.3974 -0.1914
13370TIP3   OH261524   5.639   1.469   0.215 -0.5232 -0.5078 -0.6246
13370TIP3    H161525   5.607   1.557   0.197  1.6983  0.3554 -0.4311
13370TIP3    H261526   5.705   1.453   0.148 -0.8308 -2.0130 -0.6079
13371TIP3   OH261527   0.506   3.578  14.874  0.2096  0.5595  0.2521
13371TIP3    H161528   0.444   3.598  14.944 -1.5425  0.4201 -1.2428
13371TIP3    H261529   0.516   3.483  14.878  1.0126  0.6647  1.0391
13372TIP3   OH261530   1.486   4.793   2.975 -0.0181  0.3664  0.4429
13372TIP3    H161531   1.505   4.782   2.882  1.5884  1.9355  0.5560
13372TIP3    H261532   1.557   4.749   3.020 -0.6930 -0.2281  0.9393
13373TIP3   OH261533   5.897   3.294   4.044  0.1255 -0.4858  0.9246
13373TIP3    H161534   5.898   3.199   4.051  1.5805 -0.7131 -1.8461
13373TIP3    H261535   5.804   3.317   4.049 -0.5971 -2.4260 -2.1470
13374TIP3   OH261536   0.582   1.625  15.057 -0.3141  0.5669  0.2736
13374TIP3    H161537   0.506   1.574  15.032  0.0778  0.8561 -1.6041
13374TIP3    H261538   0.575   1.706  15.005  1.1347  0.6928  0.2528
13375TIP3   OH261539   3.058   0.437  17.036 -0.2725 -0.2251  0.0518
13375TIP3    H161540   3.142   0.473  17.064 -0.5128  0.0787  0.3997
13375TIP3    H261541   3.067   0.424  16.942  0.3595 -0.7299  0.1799
13376TIP3   OH261542   6.761   4.967   4.894  0.1618  0.4634  0.0456
13376TIP3    H161543   6.828   4.916   4.939  0.5426  0.3577 -0.6440
13376TIP3    H261544   6.685   4.910   4.891  0.5446 -0.0140 -0.6032
13377TIP3   OH261545   1.488   0.854  16.069 -0.4519 -0.5134 -0.0394
13377TIP3    H161546   1.394   0.858  16.091 -0.2463 -0.9745  0.9333
13377TIP3    H261547   1.502   0.763  16.042  0.1771 -1.0287  1.9566
13378TIP3   OH261548   1.512   0.891  16.350 -0.3369 -0.6906  0.9359
13378TIP3    H161549   1.507   0.884  16.254 -1.7760 -2.0417  1.0974
13378TIP3    H261550   1.561   0.972  16.365 -2.0705  0.7717 -0.9455
13379TIP3   OH261551   6.609   4.006  11.037  0.5457  0.4370 -0.6473
13379TIP3    H161552   6.559   4.053  11.105 -0.9088  2.4074 -2.9874
13379TIP3    H261553   6.686   4.062  11.022  0.9436 -0.0754 -0.5082
13380TIP3   OH261554   4.332   5.744   6.184 -0.0514  0.5497  0.0897
13380TIP3    H161555   4.388   5.782   6.116  0.8012 -2.7111 -1.1016
13380TIP3    H261556   4.254   5.714   6.137 -1.5166  2.3438  1.2894
13381TIP3   OH261557   4.652   5.858  14.509  0.2532  0.4851 -0.3793
13381TIP3    H161558   4.626   5.934  14.456  1.9853  0.3782 -1.4332
13381TIP3    H261559   4.636   5.885  14.599  0.2553  1.8789 -0.7814
13382TIP3   OH261560   3.873   3.116  11.353  0.3989 -0.3848 -0.3508
13382TIP3    H161561   3.912   3.037  11.392  0.5139 -0.4020 -0.5013
13382TIP3    H261562   3.941   3.150  11.295  0.4767  0.0182 -0.0267
13383TIP3   OH261563   5.056   6.419   3.298  0.6272 -0.5136  0.4882
13383TIP3    H161564   5.114   6.355   3.258  1.1000  0.7714 -0.9224
13383TIP3    H261565   4.992   6.440   3.231 -0.3945 -0.5681  1.4248
13384TIP3   OH261566   1.521   5.778  12.126  0.2888 -0.1762 -0.3427
13384TIP3    H161567   1.541   5.852  12.068  1.4237 -0.3125 -0.1234
13384TIP3    H261568   1.569   5.796  12.207  2.6039 -2.3597 -1.1529
13385TIP3   OH261569   4.875   2.726   1.671 -0.2228  0.5479 -0.2326
13385TIP3    H161570   4.817   2.742   1.745 -0.2750  0.9420 -0.3565
13385TIP3    H261571   4.961   2.710   1.710 -0.2923  0.5583 -0.0760
13386TIP3   OH261572   3.203   6.136  13.969 -0.5659 -0.0450 -0.4682
13386TIP3    H161573   3.157   6.143  14.052  0.6552  0.2112  0.1978
13386TIP3    H261574   3.281   6.084  13.989 -0.9042 -1.0565 -1.7235
13387TIP3   OH261575   5.396   6.575   6.313  0.8710  0.0548  0.1594
13387TIP3    H161576   5.397   6.630   6.391  0.4844  0.8316 -0.3734
13387TIP3    H261577   5.315   6.525   6.320  3.1179 -3.3872  2.6340
13388TIP3   OH261578   3.642   3.631  11.495  0.4417 -0.9917  0.4870
13388TIP3    H161579   3.599   3.561  11.447 -1.1801 -1.6603  2.8124
13388TIP3    H261580   3.603   3.627  11.583 -0.1511  3.1825  0.5173
13389TIP3   OH261581   3.319   2.741   1.632 -0.0237  0.0333 -0.0458
13389TIP3    H161582   3.319   2.829   1.670  0.9289  0.6974 -1.5469
13389TIP3    H261583   3.315   2.755   1.538 -0.7387 -1.5601 -0.2708
13390TIP3   OH261584   4.206   1.820  13.173 -0.1565 -0.1035 -0.8649
13390TIP3    H161585   4.271   1.752  13.156  0.8387  0.3149  1.1088
13390TIP3    H261586   4.242   1.899  13.133 -0.5428 -0.3588 -1.7361
13391TIP3   OH261587   3.978   0.074  14.503  0.7446  0.0779 -0.5484
13391TIP3    H161588   3.990  -0.020  14.516 -0.6043  0.0346  0.4139
13391TIP3    H261589   3.937   0.081  14.417  1.0451 -0.1933 -0.7183
13392TIP3   OH261590   4.059   4.609   1.105  0.3486  0.4518 -0.4347
13392TIP3    H161591   3.978   4.574   1.143  0.7622 -0.2033 -0.1366
13392TIP3    H261592   4.053   4.588   1.012  0.3324  0.0833 -0.3532
13393TIP3   OH261593   5.056   4.548  15.160 -0.0094 -0.0851 -0.0179
13393TIP3    H161594   4.996   4.583  15.095 -0.4321  0.2105  0.5241
13393TIP3    H261595   5.090   4.468  15.121 -2.4115 -1.4223  0.5266
13394TIP3   OH261596   3.597   0.658  14.105 -0.0724 -0.0031  0.5521
13394TIP3    H161597   3.503   0.675  14.102 -0.3774 -1.1878  2.0707
13394TIP3    H261598   3.633   0.731  14.154 -0.3703 -0.0946  0.9128
13395TIP3   OH261599   6.592   2.564  15.234 -0.1006 -0.3962 -0.3150
13395TIP3    H161600   6.548   2.601  15.310 -1.9045 -0.8258 -1.1315
13395TIP3    H261601   6.563   2.618  15.160  0.1047 -1.1684 -0.9694
13396TIP3   OH261602   5.816   6.587  13.849  0.3121  0.1451 -0.0278
13396TIP3    H161603   5.758   6.530  13.798  0.1618 -0.6385  0.9946
13396TIP3    H261604   5.795   6.567  13.940  1.7924  0.2529  0.3519
13397TIP3   OH261605   0.596   0.958  11.422 -0.7592  0.5268 -0.0956
13397TIP3    H161606   0.540   0.964  11.499  1.8038 -1.6903  2.0388
13397TIP3    H261607   0.609   0.864  11.409  1.3273  0.9581 -1.3603
13398TIP3   OH261608   3.364   1.196   1.799 -0.3097  0.5864  1.0145
13398TIP3    H161609   3.378   1.158   1.885 -1.2038  0.8631  1.2911
13398TIP3    H261610   3.373   1.290   1.812  0.6668  0.5551  0.5796
13399TIP3   OH261611   5.250   2.465  13.951  0.4610 -0.0531 -0.1987
13399TIP3    H161612   5.336   2.478  13.991 -0.0476  0.4923  0.7344
13399TIP3    H261613   5.269   2.438  13.861  1.6031  0.6220 -0.1667
13400TIP3   OH261614   1.956   0.207  11.342 -0.2692 -0.2646  0.5975
13400TIP3    H161615   1.984   0.121  11.312 -1.7033 -0.6550  0.3173
13400TIP3    H261616   1.927   0.252  11.263 -1.7995 -0.4180  1.0528
13401TIP3   OH261617   4.509   2.049  10.575  0.4247  0.0700 -0.2002
13401TIP3    H161618   4.449   2.061  10.502 -1.5094 -0.7666  1.2096
13401TIP3    H261619   4.500   2.128  10.627 -2.8521 -1.8450  2.3560
13402TIP3   OH261620   5.328   3.073  13.468 -0.1774 -0.4099  0.0598
13402TIP3    H161621   5.337   2.983  13.500 -1.1525 -0.5119  0.0698
13402TIP3    H261622   5.247   3.104  13.509  1.0838  1.0901  1.4728
13403TIP3   OH261623   5.636   0.657   4.580 -0.0119 -0.1174 -0.3302
13403TIP3    H161624   5.565   0.597   4.602 -0.5432  0.3083 -0.8662
13403TIP3    H261625   5.660   0.697   4.663 -1.3714  0.7877 -0.3584
13404TIP3   OH261626   1.497   6.698   1.950  0.3205 -0.6718 -0.1949
13404TIP3    H161627   1.556   6.744   2.010 -0.2084  0.7592 -0.7447
13404TIP3    H261628   1.508   6.743   1.866  1.9226 -3.3796 -1.5077
13405TIP3   OH261629   4.744   2.922  16.624  0.2690 -0.0701  0.3693
13405TIP3    H161630   4.782   2.850  16.573 -0.3282 -0.0146 -0.1570
13405TIP3    H261631   4.653   2.926  16.595 -0.0977 -0.1093  1.5216
13406TIP3   OH261632   5.126   0.317   3.323 -0.1280 -0.8817 -0.1832
13406TIP3    H161633   5.150   0.302   3.415  0.3410 -0.7032 -0.2740
13406TIP3    H261634   5.138   0.232   3.281 -0.0211 -0.8849 -0.1474
13407TIP3   OH261635   5.803   6.467   1.273 -0.7992 -0.1523  0.6926
13407TIP3    H161636   5.855   6.399   1.316  1.9539  1.3567 -0.1774
13407TIP3    H261637   5.759   6.513   1.345  0.8209 -0.0342  1.6139
13408TIP3   OH261638   2.116   5.733  16.079  0.0520  0.5881  0.2742
13408TIP3    H161639   2.038   5.787  16.064  0.9588  2.0705  0.7696
13408TIP3    H261640   2.175   5.790  16.129  2.7531  0.6493 -2.8469
13409TIP3   OH261641   4.944   1.099  14.625 -0.0655 -0.1361 -0.0343
13409TIP3    H161642   4.914   1.162  14.690 -0.5657 -1.7499  1.3507
13409TIP3    H261643   5.039   1.109  14.623 -0.1789  0.9667 -0.1687
13410TIP3   OH261644   0.523   2.252  15.017  0.6799 -0.0673 -0.7944
13410TIP3    H161645   0.588   2.284  14.954  1.6198 -1.9175 -0.8043
13410TIP3    H261646   0.551   2.162  15.036 -2.2477 -1.1151 -1.2773
13411TIP3   OH261647   4.178   2.356  16.475  0.5740 -0.4835  0.4172
13411TIP3    H161648   4.199   2.448  16.489 -0.1311 -0.2918  0.2742
13411TIP3    H261649   4.262   2.314  16.456  1.0596 -0.0980  1.6793
13412TIP3   OH261650   4.089   3.386  14.841  0.3800  0.2015  0.2698
13412TIP3    H161651   4.054   3.384  14.930 -0.9071  0.0153 -0.2222
13412TIP3    H261652   4.041   3.456  14.798  0.9711  0.2697 -0.2884
13413TIP3   OH261653   1.046   5.076  15.956 -0.2011 -0.6981  0.3991
13413TIP3    H161654   1.120   5.057  15.898 -0.4534 -0.7584  0.0983
13413TIP3    H261655   0.982   5.008  15.937 -0.7596 -0.0485 -0.0820
13414TIP3   OH261656   4.324   0.760   3.307 -0.8057  0.6170  0.1554
13414TIP3    H161657   4.307   0.854   3.316 -2.4379  0.6141 -2.2589
13414TIP3    H261658   4.309   0.743   3.214 -2.3958 -2.3997  0.9324
13415TIP3   OH261659   3.549   0.627   4.118  0.0238 -0.1838  0.2439
13415TIP3    H161660   3.627   0.666   4.156  0.1496  0.4255 -0.6167
13415TIP3    H261661   3.522   0.690   4.050  0.8399 -2.0875 -1.9023
13416TIP3   OH261662   4.318   4.060  13.931  0.2751 -0.2121 -0.1172
13416TIP3    H161663   4.352   4.047  14.020  0.8692  0.4396 -0.2521
13416TIP3    H261664   4.225   4.041  13.939  0.4239 -0.6999  0.5343
13417TIP3   OH261665   1.439   2.769  11.221 -0.7849 -0.5854  0.4235
13417TIP3    H161666   1.420   2.722  11.139 -0.1128 -1.2166  0.6293
13417TIP3    H261667   1.397   2.855  11.209 -0.5247 -0.5991 -0.6579
13418TIP3   OH261668   2.819   0.690  14.616 -0.1240 -0.3461 -0.2684
13418TIP3    H161669   2.900   0.643  14.600  0.4885  1.1701 -1.7368
13418TIP3    H261670   2.751   0.623  14.613  0.9848 -1.5255  0.3292
13419TIP3   OH261671   0.743   5.124   3.882  0.3142  0.4601  0.3323
13419TIP3    H161672   0.689   5.045   3.877 -0.7890  1.2852 -1.2786
13419TIP3    H261673   0.763   5.134   3.975 -0.1830 -1.2802  0.6395
13420TIP3   OH261674   3.443   3.733   4.555 -0.2974 -0.1581 -0.4868
13420TIP3    H161675   3.522   3.769   4.514 -0.1553  3.4332  2.7134
13420TIP3    H261676   3.373   3.751   4.492  0.1909  3.7475 -0.0654
13421TIP3   OH261677   2.031   2.744   4.239 -0.0233  0.4245 -0.3794
13421TIP3    H161678   2.034   2.798   4.160 -1.8255 -0.2033 -0.8837
13421TIP3    H261679   1.938   2.738   4.260  0.2831 -1.3311  0.4874
13422TIP3   OH261680   1.011   3.217   3.173  0.1996  0.4823 -0.0180
13422TIP3    H161681   0.973   3.223   3.261 -0.2114  0.7860 -0.2167
13422TIP3    H261682   1.072   3.143   3.179  0.0256  0.3722  0.4666
13423TIP3   OH261683   5.430   2.287  13.526 -0.2693  0.2616  0.0849
13423TIP3    H161684   5.370   2.223  13.488  0.2583  0.0720 -0.4353
13423TIP3    H261685   5.506   2.286  13.468  1.1307 -1.0146  1.9125
13424TIP3   OH261686   0.392   0.370  16.186  0.1485  0.5026  0.0720
13424TIP3    H161687   0.468   0.423  16.211  0.3880 -0.0559  0.5422
13424TIP3    H261688   0.344   0.356  16.268  0.1854 -0.1577 -0.0131
13425TIP3   OH261689   3.077   6.159   5.205 -0.4372 -0.4299  0.1986
13425TIP3    H161690   3.119   6.219   5.143 -1.1744 -0.5603 -0.4356
13425TIP3    H261691   3.110   6.187   5.290 -0.5048  0.6699 -0.1223
13426TIP3   OH261692   3.414   5.727  13.620  0.7161  0.8970 -0.1238
13426TIP3    H161693   3.496   5.732  13.572  1.8368  1.1918  1.7395
13426TIP3    H261694   3.435   5.672  13.696 -0.8719  0.7994  0.2534
13427TIP3   OH261695   6.371   4.697   1.533  0.2613 -0.1236 -0.1357
13427TIP3    H161696   6.333   4.785   1.525  0.4801 -0.0340 -0.2105
13427TIP3    H261697   6.299   4.643   1.565  0.8997  0.6719  2.8046
13428TIP3   OH261698   0.087   2.029   0.051  0.2201  0.0586  0.5657
13428TIP3    H161699   0.025   2.099   0.070 -2.0003 -1.8095  0.4660
13428TIP3    H261700   0.073   2.008  -0.041  0.7940 -0.5778  0.6112
13429TIP3   OH261701   4.185   0.595   3.083 -0.6229  0.1399 -0.3791
13429TIP3    H161702   4.238   0.515   3.085 -0.8791 -0.0650 -1.4937
13429TIP3    H261703   4.217   0.643   3.006  0.5650  1.8274  1.1436
13430TIP3   OH261704   2.602   2.556   2.016 -0.1293  0.1379 -0.0992
13430TIP3    H161705   2.563   2.641   1.996  0.5759  1.0450  2.1849
13430TIP3    H261706   2.543   2.517   2.081 -0.2512 -0.9617 -0.8637
13431TIP3   OH261707   0.318   0.722  11.864  0.4861  0.1454 -0.0295
13431TIP3    H161708   0.249   0.667  11.900  1.5052 -1.2699 -0.1657
13431TIP3    H261709   0.383   0.727  11.934  0.4629  1.0854 -0.0648
13432TIP3   OH261710   3.806   3.747  15.666 -0.2789  0.3277  0.2624
13432TIP3    H161711   3.826   3.840  15.652  0.7311  0.1734  0.6956
13432TIP3    H261712   3.759   3.721  15.586 -0.2900  1.1297  0.0009
13433TIP3   OH261713   4.260   5.760   4.806  0.0238 -0.2322  0.0434
13433TIP3    H161714   4.311   5.686   4.839 -0.7228 -0.9765 -0.4719
13433TIP3    H261715   4.174   5.749   4.846 -0.8383 -1.0287 -1.9851
13434TIP3   OH261716   0.533   5.846   3.402  0.1507 -0.1512  0.3868
13434TIP3    H161717   0.614   5.817   3.358 -0.3812 -0.0892 -0.6436
13434TIP3    H261718   0.550   5.830   3.495  2.5957  2.8607  0.5393
13435TIP3   OH261719   3.391   5.186   5.873  0.6018 -0.1807 -0.2049
13435TIP3    H161720   3.456   5.190   5.943 -1.0792  0.4725  1.3534
13435TIP3    H261721   3.399   5.098   5.837 -0.1006 -1.3420  2.3755
13436TIP3   OH261722   5.058   1.474  14.147  0.1366  0.0382 -0.1920
13436TIP3    H161723   4.987   1.428  14.102  1.5645 -0.3672 -2.0546
13436TIP3    H261724   5.060   1.433  14.234 -3.2527  1.4819  0.6786
13437TIP3   OH261725   1.678   3.486   2.101  0.1073 -0.3729 -0.0867
13437TIP3    H161726   1.616   3.413   2.113  0.2675 -0.2165  1.9726
13437TIP3    H261727   1.661   3.518   2.013 -1.5441 -1.4600 -0.1872
13438TIP3   OH261728   6.638   1.148   2.953  0.6637 -0.1149 -0.2156
13438TIP3    H161729   6.723   1.104   2.958 -0.4815 -2.4251 -0.0796
13438TIP3    H261730   6.580   1.093   3.006 -0.9140  1.4509 -0.2574
13439TIP3   OH261731   4.693   1.272  13.827 -0.1784  0.1884 -0.9139
13439TIP3    H161732   4.769   1.245  13.775  0.2089 -0.9659  0.2207
13439TIP3    H261733   4.730   1.313  13.905 -0.7312 -0.2650 -0.4109
13440TIP3   OH261734   5.640   1.699  15.616  0.3396 -0.7671 -0.5189
13440TIP3    H161735   5.706   1.685  15.548  2.3842  2.8219  0.5537
13440TIP3    H261736   5.622   1.793  15.613 -0.5286 -0.7388  2.9697
13441TIP3   OH261737   1.386   3.472  15.050  0.8797  0.0200 -0.0158
13441TIP3    H161738   1.326   3.425  15.108  0.3967  0.4761 -0.1440
13441TIP3    H261739   1.463   3.416  15.044  0.5041 -0.5197  0.2303
13442TIP3   OH261740   4.292   1.869   5.296  0.6016 -0.1450  0.0150
13442TIP3    H161741   4.337   1.786   5.306  0.4913 -0.6969 -3.4795
13442TIP3    H261742   4.360   1.935   5.307  0.9686 -0.7379  1.3405
13443TIP3   OH261743   2.720   1.367  14.854  0.0242 -0.5738  0.4786
13443TIP3    H161744   2.656   1.412  14.909 -0.3353 -1.0987  0.4946
13443TIP3    H261745   2.783   1.435  14.828 -2.4648  0.7236 -2.4477
13444TIP3   OH261746   5.387   3.625   1.960 -0.3167  0.1419 -0.0668
13444TIP3    H161747   5.422   3.687   1.895  1.3387 -0.4812  0.2299
13444TIP3    H261748   5.399   3.669   2.044  0.1146 -0.2549  0.0752
13445TIP3   OH261749   4.455   6.294   4.270 -0.2963  0.2488 -0.0664
13445TIP3    H161750   4.492   6.340   4.344 -0.2856  1.8684 -1.0577
13445TIP3    H261751   4.410   6.218   4.308 -1.4534  1.7961  1.7068
13446TIP3   OH261752   1.807   2.607   0.470  0.0215 -0.2026  0.1343
13446TIP3    H161753   1.729   2.608   0.414 -0.1133  0.8505  0.3248
13446TIP3    H261754   1.773   2.622   0.558  0.5514  1.4994  0.0580
13447TIP3   OH261755   5.101   2.203  14.780 -0.0083 -0.3717 -0.3299
13447TIP3    H161756   5.058   2.124  14.813  0.8709 -0.3366  0.9141
13447TIP3    H261757   5.194   2.187  14.792  0.1989  0.6196 -0.5873
13448TIP3   OH261758   3.856   2.379  14.645  0.3470  0.3981 -0.2253
13448TIP3    H161759   3.832   2.307  14.587  0.9140 -1.6020  1.9223
13448TIP3    H261760   3.791   2.374  14.716  2.8057 -0.6369  2.0276
13449TIP3   OH261761   2.602   4.863  12.263 -0.0402  0.1826  0.3566
13449TIP3    H161762   2.546   4.856  12.341  0.8707  1.6437  1.1644
13449TIP3    H261763   2.604   4.956  12.243  0.3184 -0.1037 -1.0130
13450TIP3   OH261764   6.490   5.389   1.648 -0.3677  0.2249  0.1596
13450TIP3    H161765   6.582   5.376   1.623 -0.5197  0.4421 -0.4939
13450TIP3    H261766   6.490   5.373   1.743  0.2074 -0.5154  0.0406
13451TIP3   OH261767   3.742   1.730  16.770  0.2054  0.6351  0.3461
13451TIP3    H161768   3.746   1.781  16.689 -0.9849 -0.5972 -0.5114
13451TIP3    H261769   3.739   1.795  16.839  0.8633  1.7137 -0.6273
13452TIP3   OH261770   2.452   6.058  13.096 -0.0478 -0.4108 -0.2558
13452TIP3    H161771   2.362   6.026  13.086 -0.3724  0.4931 -0.2790
13452TIP3    H261772   2.477   6.085  13.007  0.2543 -0.6886 -0.2533
13453TIP3   OH261773   4.615   2.678   4.549 -0.4455 -0.3231  0.0448
13453TIP3    H161774   4.586   2.650   4.636 -1.7169  1.3611  0.1950
13453TIP3    H261775   4.710   2.669   4.551 -0.0174  3.6257  3.1184
13454TIP3   OH261776   4.651   0.429   5.981 -0.4195 -0.2543  0.5692
13454TIP3    H161777   4.653   0.405   6.074 -1.6800 -1.2061  0.3708
13454TIP3    H261778   4.581   0.375   5.944 -1.0759  1.3515 -0.5946
13455TIP3   OH261779   4.354   1.617   5.304  0.0665  0.0736  0.0489
13455TIP3    H161780   4.337   1.543   5.363  0.5936 -0.8264 -0.8969
13455TIP3    H261781   4.310   1.592   5.222  1.7840 -0.0443 -0.8611
13456TIP3   OH261782   2.282   1.298   3.592 -0.1683  0.0360 -0.0699
13456TIP3    H161783   2.261   1.388   3.618 -0.3136 -0.3814  1.2879
13456TIP3    H261784   2.240   1.287   3.508  2.0101  2.1044 -1.5086
13457TIP3   OH261785   4.575   2.964   4.220  0.4119 -0.0447 -0.1517
13457TIP3    H161786   4.563   2.871   4.239  0.4497  0.0071  0.1300
13457TIP3    H261787   4.642   2.993   4.282  2.7523 -0.5533 -2.3601
13458TIP3   OH261788   6.739   5.309  13.290  0.0846  0.2857 -0.5444
13458TIP3    H161789   6.713   5.390  13.333  0.8377  0.0457  0.3689
13458TIP3    H261790   6.834   5.316  13.281  0.2794 -0.9470  0.4787
13459TIP3   OH261791   2.913   6.781   4.489 -0.3032  0.7273 -0.3898
13459TIP3    H161792   2.925   6.687   4.477 -0.2535  0.9202 -2.0081
13459TIP3    H261793   2.930   6.797   4.582 -1.9069 -1.1096  0.2576
13460TIP3   OH261794   3.693   6.446  16.923 -0.2046 -0.2541 -0.1120
13460TIP3    H161795   3.697   6.541  16.913  1.0029 -0.1859  0.9945
13460TIP3    H261796   3.655   6.432  17.009 -2.3222 -0.8057 -1.1048
13461TIP3   OH261797   4.167   0.087  15.495  0.9346 -0.2380  0.2325
13461TIP3    H161798   4.212   0.161  15.454  3.0902 -0.2902  2.3952
13461TIP3    H261799   4.156   0.113  15.586 -0.6565 -1.5266  0.4241
13462TIP3   OH261800   4.040   5.948   4.328 -0.2886  0.1566  0.3024
13462TIP3    H161801   4.123   5.904   4.309  0.3868  2.5315 -2.5427
13462TIP3    H261802   3.975   5.899   4.278  0.1127  0.9721 -1.0416
13463TIP3   OH261803   0.825   0.753   0.451 -0.2527  0.6450 -0.0026
13463TIP3    H161804   0.830   0.661   0.427 -0.0877  0.6687 -0.0561
13463TIP3    H261805   0.738   0.762   0.491 -0.9467  0.8271 -1.5039
13464TIP3   OH261806   5.729   4.093   2.337 -0.2223  0.4621 -0.2882
13464TIP3    H161807   5.823   4.094   2.320 -0.0186 -0.8333  0.7482
13464TIP3    H261808   5.690   4.131   2.257  1.0259 -0.9315 -1.5877
13465TIP3   OH261809   1.169   3.568  14.743  0.4649 -0.3115  0.1857
13465TIP3    H161810   1.122   3.517  14.809  2.1669  0.5175  2.1308
13465TIP3    H261811   1.108   3.577  14.671 -2.0235 -0.0006  2.2533
13466TIP3   OH261812   2.537   1.184  10.423 -0.0168  0.4572 -0.5308
13466TIP3    H161813   2.533   1.262  10.477 -1.6746  0.2937 -0.3780
13466TIP3    H261814   2.629   1.173  10.402  0.6891  0.4632  2.3490
13467TIP3   OH261815   6.234   5.831  13.814  0.3142  0.0915  0.0415
13467TIP3    H161816   6.297   5.761  13.795  0.1552 -0.4154  1.2989
13467TIP3    H261817   6.149   5.787  13.812  0.0458  0.6579 -1.0932
13468TIP3   OH261818   1.967   5.036  12.949  0.2864  0.0190 -0.3565
13468TIP3    H161819   2.060   5.055  12.963  0.3083 -0.2316 -0.1628
13468TIP3    H261820   1.965   4.942  12.928  0.2514  0.3570 -1.9754
13469TIP3   OH261821   0.649   1.194  13.222  0.3362  0.1528 -0.0086
13469TIP3    H161822   0.692   1.280  13.227 -0.0233  0.3759 -0.6089
13469TIP3    H261823   0.563   1.213  13.186 -0.3583 -0.2692  1.4259
13470TIP3   OH261824   4.013   5.907   1.799 -0.7155 -0.2156 -0.0572
13470TIP3    H161825   4.062   5.875   1.874  1.3664 -0.4482 -1.4928
13470TIP3    H261826   3.963   5.831   1.768  1.1080 -1.0512 -1.0061
13471TIP3   OH261827   4.697   5.093  11.898  0.1567  0.2398  0.6021
13471TIP3    H161828   4.775   5.049  11.934 -0.0106 -0.3001  0.3032
13471TIP3    H261829   4.650   5.124  11.975 -0.0936 -0.7330  0.8423
13472TIP3   OH261830   0.715   3.766  12.454  0.5706  0.0810 -0.5085
13472TIP3    H161831   0.789   3.745  12.511 -0.2150  1.1069  0.8929
13472TIP3    H261832   0.714   3.694  12.390  3.1695  0.3692 -0.9478
13473TIP3   OH261833   1.923   5.068  15.681  0.0220 -0.1717  0.1022
13473TIP3    H161834   1.884   4.986  15.649  1.0513 -0.6647  0.0891
13473TIP3    H261835   1.866   5.137  15.648  1.1481 -0.6586 -2.9649
13474TIP3   OH261836   1.789   3.789  15.616 -0.4495  0.3405 -0.1024
13474TIP3    H161837   1.781   3.878  15.649 -2.0734 -0.0019  0.4646
13474TIP3    H261838   1.737   3.788  15.536  0.5001  0.1867 -0.7359
13475TIP3   OH261839   4.911   0.736   5.163  0.1983 -0.0391  0.2052
13475TIP3    H161840   4.909   0.640   5.158  0.2197 -0.1469  1.8382
13475TIP3    H261841   4.822   0.760   5.188 -0.3077  0.5173 -2.0416
13476TIP3   OH261842   2.981   5.948  14.119 -0.7308  0.4665  0.0227
13476TIP3    H161843   3.014   5.966  14.208 -0.0399  3.2720 -0.7528
13476TIP3    H261844   3.060   5.925  14.069 -0.7823  1.1710 -0.3907
13477TIP3   OH261845   1.890   2.788   0.946 -0.0284  0.2285 -0.3629
13477TIP3    H161846   1.945   2.799   1.023 -1.0078  0.5563  0.2983
13477TIP3    H261847   1.951   2.767   0.875  0.7902 -1.1107  0.7145
13478TIP3   OH261848   0.390   0.192   5.888  0.0746  0.3429 -0.2406
13478TIP3    H161849   0.356   0.153   5.808  0.5719 -1.4085  0.3842
13478TIP3    H261850   0.368   0.129   5.957  1.2521  0.9714  0.7300
13479TIP3   OH261851   2.972   1.236  11.293  0.3024 -0.4260  0.4688
13479TIP3    H161852   2.985   1.283  11.375  3.3812 -0.1946 -0.1103
13479TIP3    H261853   3.059   1.204  11.268 -0.7495 -1.4886 -2.1056
13480TIP3   OH261854   1.160   0.510   1.426  0.4501 -0.1225  0.5486
13480TIP3    H161855   1.203   0.515   1.512  0.2414 -0.4304  0.6693
13480TIP3    H261856   1.206   0.440   1.380  0.3592 -0.1661  0.5232
13481TIP3   OH261857   3.274   5.687  12.931  1.1228  0.1334 -0.3134
13481TIP3    H161858   3.207   5.678  12.999 -0.1790  1.4146 -1.3864
13481TIP3    H261859   3.302   5.598  12.912  1.9929 -0.2006  2.3685
13482TIP3   OH261860   1.812   4.626  14.416  0.1231  0.3479  0.2186
13482TIP3    H161861   1.759   4.700  14.387  0.5831  0.9479  0.8991
13482TIP3    H261862   1.819   4.570  14.339 -2.3298 -0.2486  0.3712
13483TIP3   OH261863   3.024   5.360  15.535  0.2920 -0.0556 -0.0851
13483TIP3    H161864   3.048   5.415  15.461 -0.4836 -1.5632 -1.4734
13483TIP3    H261865   2.947   5.312  15.506 -0.8993  0.3912  2.2310
13484TIP3   OH261866   1.826   3.759   4.487 -0.3415  0.3034 -0.2806
13484TIP3    H161867   1.798   3.694   4.551 -1.3059  0.2345 -0.7554
13484TIP3    H261868   1.921   3.756   4.488 -0.3714 -0.2818  0.5467
13485TIP3   OH261869   1.606   5.359   3.637 -0.2941  0.0375  0.8276
13485TIP3    H161870   1.690   5.361   3.684 -0.7158  0.0844  1.5849
13485TIP3    H261871   1.540   5.368   3.706 -0.9897 -1.9463  0.4472
13486TIP3   OH261872   4.668   0.579   1.347 -0.5351  0.2076 -0.3652
13486TIP3    H161873   4.688   0.656   1.295  0.7965  0.0458 -0.1113
13486TIP3    H261874   4.679   0.505   1.286  1.0947  0.0129  0.1357
13487TIP3   OH261875   1.078   6.376   3.676 -0.1366  0.1925  0.0495
13487TIP3    H161876   1.043   6.344   3.759 -0.7473  1.2323  0.2074
13487TIP3    H261877   1.128   6.303   3.641 -0.5258 -0.5204  0.9597
13488TIP3   OH261878   0.833   2.817   0.112 -0.0172  0.3488 -0.1573
13488TIP3    H161879   0.867   2.888   0.166  0.5862  0.9048 -1.2515
13488TIP3    H261880   0.776   2.860   0.049 -2.6880 -0.5586  1.5401
13489TIP3   OH261881   0.081   0.183  11.462 -0.2072 -0.8245  0.4146
13489TIP3    H161882   0.106   0.257  11.407  0.6974 -0.7817  0.8760
13489TIP3    H261883   0.011   0.216  11.518 -0.4726 -0.6021 -0.0422
13490TIP3   OH261884   0.831   5.556  14.282  0.1280  0.0423  0.1946
13490TIP3    H161885   0.783   5.481  14.316 -0.4399 -0.0309 -0.7530
13490TIP3    H261886   0.804   5.562  14.190  1.0862  0.6698 -0.0512
13491TIP3   OH261887   3.079   6.720   0.160  0.0744  0.5579  0.2660
13491TIP3    H161888   2.999   6.672   0.184  0.1110  0.5202  0.3147
13491TIP3    H261889   3.096   6.777   0.235  0.0454  0.6266  0.2191
13492TIP3   OH261890   0.600   1.430  13.841 -0.4617  0.1540  0.0043
13492TIP3    H161891   0.514   1.403  13.875  0.2261 -0.1265  1.5968
13492TIP3    H261892   0.606   1.523  13.863 -0.8650  0.4627 -1.2027
13493TIP3   OH261893   4.776   5.500  11.650  0.5886  0.1818  0.6402
13493TIP3    H161894   4.682   5.500  11.668  0.5925 -1.2087  0.7122
13493TIP3    H261895   4.797   5.592  11.629 -0.8419  0.4239  0.2435
13494TIP3   OH261896   5.993   0.553   4.219 -0.3060  0.1917 -0.3100
13494TIP3    H161897   6.079   0.511   4.233 -0.4399 -0.8695 -2.5803
13494TIP3    H261898   5.944   0.534   4.299  0.9854 -0.6606  0.2884
13495TIP3   OH261899   5.042   0.871   3.426  0.2021 -0.1934  0.1463
13495TIP3    H161900   5.111   0.852   3.363  1.1574  0.5759  0.9487
13495TIP3    H261901   4.962   0.879   3.373  0.6061 -1.6514 -0.7257
13496TIP3   OH261902   2.296   5.945   2.287 -0.0923 -0.1873  0.7583
13496TIP3    H161903   2.330   5.918   2.202  1.1685  2.0396  0.5202
13496TIP3    H261904   2.213   5.897   2.296  0.6760 -1.8682 -0.8683
13497TIP3   OH261905   6.736   2.390  15.612 -0.4537  0.1307  0.2548
13497TIP3    H161906   6.786   2.453  15.664 -0.8471  0.2407  0.5039
13497TIP3    H261907   6.750   2.306  15.656 -0.3610  0.1337  0.2308
13498TIP3   OH261908   5.435   4.328   2.652  0.2547  0.5143  0.1465
13498TIP3    H161909   5.496   4.400   2.639 -2.6977  3.2559  0.9469
13498TIP3    H261910   5.484   4.264   2.704  3.2758  1.4147 -1.4817
13499TIP3   OH261911   6.080   2.831  11.366 -0.0945  0.3400  0.3323
13499TIP3    H161912   6.024   2.864  11.296  0.2045 -0.0622 -0.0929
13499TIP3    H261913   6.027   2.841  11.445 -0.2556  1.2225  0.1174
13500TIP3   OH261914   5.333   0.862  10.852  0.0556  0.0022 -0.3818
13500TIP3    H161915   5.351   0.857  10.758 -0.5239 -0.6949 -0.4597
13500TIP3    H261916   5.256   0.807  10.865 -0.5024  0.9483  0.3420
13501TIP3   OH261917   3.115   0.732  14.183 -0.6745 -0.0558 -0.5169
13501TIP3    H161918   3.183   0.730  14.115 -1.2381 -0.5380 -1.0725
13501TIP3    H261919   3.104   0.641  14.209 -0.7107  0.0877 -0.0245
13502TIP3   OH261920   1.004   2.902  16.863  0.0671  0.6958 -0.0729
13502TIP3    H161921   1.076   2.963  16.844  0.2285  0.7950  0.8412
13502TIP3    H261922   1.046   2.816  16.864  0.3423  0.8321  1.2963
13503TIP3   OH261923   2.942   3.766  14.262 -0.7305  0.1045  0.5435
13503TIP3    H161924   2.893   3.838  14.300  0.2979  1.4136 -0.5642
13503TIP3    H261925   2.892   3.742  14.183  0.4033  1.4831 -0.6218
13504TIP3   OH261926   0.639   5.608  10.327 -0.1175  0.4800 -0.4146
13504TIP3    H161927   0.621   5.519  10.296 -0.2059  0.7747 -1.2011
13504TIP3    H261928   0.672   5.596  10.416 -0.9615 -0.2929 -0.1979
13505TIP3   OH261929   5.423   3.774   2.961 -0.2647 -0.5777 -0.1146
13505TIP3    H161930   5.464   3.783   3.047  0.4814 -1.9131 -0.3275
13505TIP3    H261931   5.495   3.782   2.899 -0.9018  1.1108 -0.6674
13506TIP3   OH261932   6.770   0.659  12.572 -0.2372 -0.5641  0.3131
13506TIP3    H161933   6.743   0.576  12.532  0.4707 -1.3088  1.3618
13506TIP3    H261934   6.820   0.633  12.649 -0.8485  0.8450  1.2011
13507TIP3   OH261935   2.885   1.148   4.000  0.7399  0.3402  0.5008
13507TIP3    H161936   2.959   1.136   4.060 -0.6886 -0.2524  2.1829
13507TIP3    H261937   2.811   1.106   4.044 -0.2359 -0.6050 -1.9512
13508TIP3   OH261938   1.986   3.025   0.374  0.5900  0.5380  0.1686
13508TIP3    H161939   1.996   3.053   0.465  1.7650  1.8785 -0.3490
13508TIP3    H261940   1.909   3.073   0.343  0.3664  0.3085  0.3629
13509TIP3   OH261941   5.029   6.457   1.901 -0.5379  0.5622 -0.0013
13509TIP3    H161942   5.053   6.453   1.808 -0.9122 -1.1188 -0.0304
13509TIP3    H261943   4.961   6.390   1.912 -1.1467  1.3699  1.2997
13510TIP3   OH261944   2.929   4.186   0.430 -0.4214 -0.3312 -0.8716
13510TIP3    H161945   2.965   4.271   0.456  0.2173 -0.1424 -2.3112
13510TIP3    H261946   2.855   4.172   0.489  1.1771 -0.0965  1.2252
13511TIP3   OH261947   3.304   0.210   4.670 -0.1938  0.2160  0.3792
13511TIP3    H161948   3.227   0.159   4.695  1.0007 -1.5999  0.4577
13511TIP3    H261949   3.347   0.158   4.602  0.4492  1.6585 -0.3341
13512TIP3   OH261950   6.523   5.336  11.174  0.6683 -0.2143 -0.3966
13512TIP3    H161951   6.566   5.417  11.200 -0.3365 -0.3518  1.8150
13512TIP3    H261952   6.592   5.270  11.174  1.1435  0.2875 -0.4221
13513TIP3   OH261953   1.171   2.581  14.361  0.0146  0.2315 -0.1584
13513TIP3    H161954   1.146   2.650  14.422 -0.1224  0.5194 -0.5353
13513TIP3    H261955   1.090   2.562  14.313  0.5126  1.1443 -1.3677
13514TIP3   OH261956   4.460   4.564  14.120  0.4648  0.3664  0.1049
13514TIP3    H161957   4.417   4.641  14.083 -1.5191 -0.5358  0.4519
13514TIP3    H261958   4.483   4.510  14.044  2.5072  1.5788 -0.1899
13515TIP3   OH261959   3.325   1.096   1.553  0.2619  0.0811 -0.3529
13515TIP3    H161960   3.368   1.127   1.632  0.8504  0.5279 -0.8434
13515TIP3    H261961   3.379   1.129   1.481 -0.3867 -0.1304 -0.9484
13516TIP3   OH261962   4.185   5.079  13.077 -0.1450  0.4084 -0.6832
13516TIP3    H161963   4.266   5.123  13.103 -0.2189 -0.6344  1.3968
13516TIP3    H261964   4.209   4.986  13.072 -2.0345 -0.4687  3.8157
13517TIP3   OH261965   5.966   2.449  12.178  0.0017 -0.0979 -0.2578
13517TIP3    H161966   5.988   2.392  12.252 -1.1659 -0.5379 -0.2466
13517TIP3    H261967   6.039   2.511  12.173  1.5586 -1.9221 -0.5993
13518TIP3   OH261968   2.063   0.985   3.302  0.2023 -0.6420 -0.8008
13518TIP3    H161969   2.014   0.984   3.219  0.9489 -0.7352 -1.2467
13518TIP3    H261970   2.005   0.944   3.365 -0.0604 -1.3012 -1.4642
13519TIP3   OH261971   3.552   0.399  12.863  0.1689  0.2784 -0.4433
13519TIP3    H161972   3.557   0.313  12.906  1.0902  0.4406 -0.2044
13519TIP3    H261973   3.635   0.407  12.816  0.5657  1.5042  0.4379
13520TIP3   OH261974   2.375   5.005   5.203  0.1748  0.4301  0.3037
13520TIP3    H161975   2.420   5.047   5.277 -1.8573  0.4273  1.5824
13520TIP3    H261976   2.325   4.934   5.243  0.5089 -0.7751 -1.3458
13521TIP3   OH261977   0.308   6.540   1.355 -0.3611  0.1009 -0.0370
13521TIP3    H161978   0.295   6.574   1.443 -0.1002  1.2205 -0.4257
13521TIP3    H261979   0.394   6.573   1.328 -0.6285  0.1365 -0.8789
13522TIP3   OH261980   4.848   2.931  15.708 -0.1412  0.3559  0.3393
13522TIP3    H161981   4.879   2.862  15.649 -0.8174 -0.4526  0.9173
13522TIP3    H261982   4.769   2.895  15.748 -0.0854  1.1744  1.2075
13523TIP3   OH261983   0.061   6.013   4.984  0.3652 -0.2150  0.7294
13523TIP3    H161984   0.122   6.083   4.963 -0.0901  0.1521  0.6161
13523TIP3    H261985   0.100   5.934   4.946  1.0873 -0.0960  1.2261
13524TIP3   OH261986   4.033   4.575   2.298 -0.2210  0.2065 -0.5563
13524TIP3    H161987   4.032   4.636   2.224 -1.4597  1.5090  0.4904
13524TIP3    H261988   3.997   4.626   2.371 -2.1691 -2.0711  0.1356
13525TIP3   OH261989   0.230   3.466   5.962 -0.1094 -0.4105 -0.0835
13525TIP3    H161990   0.282   3.425   5.893 -0.8884 -1.0480 -0.3090
13525TIP3    H261991   0.277   3.546   5.984  0.4119 -0.4566 -1.0083
13526TIP3   OH261992   2.638   3.788  12.300 -0.0390 -0.1651  0.2217
13526TIP3    H161993   2.624   3.873  12.341  2.4344  0.1340  0.5461
13526TIP3    H261994   2.724   3.795  12.259  0.2574 -2.5388  0.3495
13527TIP3   OH261995   0.362   0.558   1.218 -0.0563 -0.8221  0.0895
13527TIP3    H161996   0.420   0.515   1.281 -0.6094 -1.9650 -0.1661
13527TIP3    H261997   0.326   0.486   1.166 -0.9489 -0.0370 -0.3893
13528TIP3   OH261998   3.042   2.565  12.617 -0.3588 -1.0737  0.6423
13528TIP3    H161999   3.053   2.577  12.523  1.8003  1.4926  1.1539
13528TIP3    H262000   2.953   2.596  12.635  0.7202  2.6443  0.0202
13529TIP3   OH262001   1.157   3.652   0.829 -0.3068 -0.4166  0.3528
13529TIP3    H162002   1.102   3.729   0.816  0.0815 -0.1315  0.3687
13529TIP3    H262003   1.234   3.685   0.876  0.7668 -0.4422 -1.3315
13530TIP3   OH262004   6.199   5.367   3.138  0.2798  0.1072  0.4622
13530TIP3    H162005   6.176   5.367   3.046  1.3380  2.5032  0.1633
13530TIP3    H262006   6.121   5.400   3.183  0.2136  0.1666  0.3027
13531TIP3   OH262007   3.554   0.123   3.115 -0.0813  0.0578  0.0586
13531TIP3    H162008   3.644   0.094   3.102 -0.3638 -0.6117 -0.4089
13531TIP3    H262009   3.551   0.153   3.206  0.0980 -1.7952  0.6954
13532TIP3   OH262010   0.565   5.239   4.662  0.0324 -0.2437  0.0214
13532TIP3    H162011   0.634   5.173   4.662  1.6215  1.3714 -1.0846
13532TIP3    H262012   0.506   5.213   4.591  1.5395  0.3856 -1.4988
13533TIP3   OH262013   4.969   1.215   1.608 -0.2904 -0.3652 -0.7531
13533TIP3    H162014   4.943   1.306   1.615  0.5865 -0.1463 -0.2673
13533TIP3    H262015   5.056   1.217   1.568  0.7320 -0.8373  1.3637
13534TIP3   OH262016   6.145   6.443   4.663 -0.1509  0.0940 -0.1826
13534TIP3    H162017   6.098   6.366   4.695  1.3540 -1.7371 -2.1946
13534TIP3    H262018   6.237   6.418   4.669  0.2715  0.9758 -2.7319
13535TIP3   OH262019   4.403   2.634  17.067 -0.3330 -0.2191 -0.3858
13535TIP3    H162020   4.362   2.653  17.152 -3.0438 -0.3497 -1.5969
13535TIP3    H262021   4.482   2.688  17.066 -1.7691  1.9920  1.0610
13536TIP3   OH262022   1.154   2.562   0.287 -0.5506 -0.3340  0.3095
13536TIP3    H162023   1.195   2.597   0.207 -1.6179 -1.9389 -0.9770
13536TIP3    H262024   1.224   2.561   0.351  0.5542  0.1837 -0.8578
13537TIP3   OH262025   1.986   6.312  15.888 -0.3087 -0.0145 -0.8733
13537TIP3    H162026   2.009   6.237  15.834 -1.6289  0.1427 -1.6569
13537TIP3    H262027   2.057   6.318  15.953  0.6376 -0.9314 -1.8255
13538TIP3   OH262028   0.120   5.184  16.330 -0.2428  0.3227  0.4977
13538TIP3    H162029   0.089   5.093  16.325 -0.3409  0.3931 -0.2796
13538TIP3    H262030   0.116   5.206  16.423 -3.4749  0.6552  0.3209
13539TIP3   OH262031   3.782   0.388   5.147 -0.1286  0.5399  0.0201
13539TIP3    H162032   3.862   0.391   5.200  0.8340  2.1298 -1.4770
13539TIP3    H262033   3.742   0.304   5.170  1.5545  0.0685  1.3787
13540TIP3   OH262034   6.280   2.624   4.256 -0.2523  0.2084  0.6124
13540TIP3    H162035   6.317   2.679   4.187  0.0668 -1.2528 -0.3854
13540TIP3    H262036   6.187   2.618   4.234 -0.2780  0.3013  0.6952
13541TIP3   OH262037   3.894   6.083   4.802 -0.0827 -0.2393 -0.2395
13541TIP3    H162038   3.926   6.104   4.714  0.6497  1.0694  0.3240
13541TIP3    H262039   3.963   6.031   4.841 -0.3150 -0.6383 -0.3545
13542TIP3   OH262040   2.927   3.799  13.859  0.4202 -0.2213 -0.2847
13542TIP3    H162041   2.997   3.734  13.859 -0.3328 -1.0539  0.4696
13542TIP3    H262042   2.850   3.751  13.829  0.2534  0.7852 -1.4852
13543TIP3   OH262043   5.677   5.026   6.434  0.5545 -0.1942  0.1288
13543TIP3    H162044   5.764   4.991   6.455  0.7416  0.9332  1.2838
13543TIP3    H262045   5.671   5.107   6.484 -1.1866 -0.2811  0.0980
13544TIP3   OH262046   0.589   1.037   3.585  0.3723 -0.3040 -0.4623
13544TIP3    H162047   0.669   1.027   3.635  2.1039 -2.1186 -3.4141
13544TIP3    H262048   0.599   1.121   3.540 -0.5193  0.6258  1.0390
13545TIP3   OH262049   5.246   6.495   1.173 -0.0081  0.6614  0.0636
13545TIP3    H162050   5.224   6.427   1.110  1.7617  1.6238 -1.6217
13545TIP3    H262051   5.340   6.508   1.164  0.0193  1.9274  1.7908
13546TIP3   OH262052   2.090   3.561  12.111 -0.1202 -0.8127  0.7120
13546TIP3    H162053   2.184   3.552  12.123 -0.0642 -1.7829 -0.3056
13546TIP3    H262054   2.066   3.485  12.058 -1.0671  0.8110 -1.2101
13547TIP3   OH262055   4.228   3.324  16.809 -0.0739 -0.1991  0.6253
13547TIP3    H162056   4.291   3.301  16.878  0.2418  2.5877  1.3285
13547TIP3    H262057   4.274   3.307  16.727  0.7131 -0.5071  1.1218
13548TIP3   OH262058   5.288   6.718  16.531 -0.1115 -0.8507 -0.2820
13548TIP3    H162059   5.315   6.660  16.602  0.8335 -0.8309 -0.6252
13548TIP3    H262060   5.300   6.806  16.567 -0.9469 -0.8451  0.0104
13549TIP3   OH262061   6.200   6.171   2.860  0.1141  0.4904  0.3154
13549TIP3    H162062   6.295   6.165   2.876  0.3564 -0.5172 -1.2841
13549TIP3    H262063   6.184   6.102   2.795 -1.4387  1.7413 -0.6392
13550TIP3   OH262064   4.272   1.112  11.926  0.3415 -0.2854 -0.0779
13550TIP3    H162065   4.262   1.203  11.954 -0.7577 -0.2387 -0.6029
13550TIP3    H262066   4.342   1.115  11.861 -0.2376  0.3239 -0.6846
13551TIP3   OH262067   0.540   5.071  12.825 -0.8039  0.1364 -0.1104
13551TIP3    H162068   0.468   5.093  12.883 -0.2812 -0.8602  0.9299
13551TIP3    H262069   0.515   4.989  12.784 -1.3507  1.0401 -1.6151
13552TIP3   OH262070   0.498   4.194  14.889 -0.1307 -0.3178 -0.3469
13552TIP3    H162071   0.553   4.250  14.944 -2.2301 -0.0574  1.5520
13552TIP3    H262072   0.489   4.242  14.806  3.4196 -0.9172 -1.1562
13553TIP3   OH262073   0.050   5.958   3.775 -0.3193 -0.3592  0.1583
13553TIP3    H162074   0.143   5.961   3.751 -0.2703  0.5470  0.4559
13553TIP3    H262075   0.004   5.967   3.692 -0.1409  0.3937  0.1364
13554TIP3   OH262076   5.791   4.399   2.290 -0.5087 -0.0344  0.3370
13554TIP3    H162077   5.715   4.456   2.299 -1.1402 -0.9792  1.1688
13554TIP3    H262078   5.755   4.317   2.254  0.5328  0.4260 -1.8441
13555TIP3   OH262079   2.254   3.994  12.594 -0.0403 -0.1045 -0.2194
13555TIP3    H162080   2.219   3.905  12.585  1.2508 -0.7619  1.0764
13555TIP3    H262081   2.268   4.005  12.688  1.4445  0.8262 -0.5278
13556TIP3   OH262082   6.404   0.338  14.072  0.1599 -0.3357 -0.0265
13556TIP3    H162083   6.439   0.282  14.142  1.0572 -0.1083 -0.2859
13556TIP3    H262084   6.310   0.343  14.089  0.3460 -0.4590  1.0455
13557TIP3   OH262085   4.855   0.074   6.303  0.1525  0.5382  0.0828
13557TIP3    H162086   4.774   0.024   6.311  0.7492 -0.3433  0.8175
13557TIP3    H262087   4.848   0.142   6.371  0.1913  0.2221  0.4051
13558TIP3   OH262088   2.914   5.018  16.516 -0.0889 -0.2156  0.4163
13558TIP3    H162089   2.998   4.985  16.547 -0.3089  1.0229  2.3389
13558TIP3    H262090   2.936   5.087  16.454  0.3095  0.6736  1.5436
13559TIP3   OH262091   2.137   4.411  11.120  0.5024  0.0429  0.4533
13559TIP3    H162092   2.156   4.492  11.167  0.7331 -0.2239  0.8175
13559TIP3    H262093   2.222   4.378  11.092  0.7015 -1.7164  3.0352
13560TIP3   OH262094   0.888   5.500  13.179  0.2859 -0.1269 -0.3907
13560TIP3    H162095   0.939   5.461  13.250  3.0670  0.4504 -1.9945
13560TIP3    H262096   0.885   5.594  13.201 -1.4865 -0.3567  0.4909
13561TIP3   OH262097   1.194   6.423  15.339  0.2122  0.4263 -0.3344
13561TIP3    H162098   1.263   6.488  15.325 -1.8560  2.8338  0.1816
13561TIP3    H262099   1.182   6.382  15.254  1.5585  0.7351 -0.6759
13562TIP3   OH262100   1.425   3.173   1.258  0.0660  0.5060 -0.5395
13562TIP3    H162101   1.508   3.183   1.305 -0.0241  0.6279 -0.4056
13562TIP3    H262102   1.384   3.259   1.264 -0.0351  0.4664 -0.6730
13563TIP3   OH262103   3.081   1.462  11.947  0.5761 -0.1156 -0.7470
13563TIP3    H162104   3.019   1.390  11.959  0.6980 -0.4301 -1.9033
13563TIP3    H262105   3.143   1.429  11.881  3.7883 -0.9671  2.5255
13564TIP3   OH262106   0.618   6.544  13.869 -0.6331  0.6690  0.0207
13564TIP3    H162107   0.669   6.612  13.826  0.4044 -0.4770 -0.6189
13564TIP3    H262108   0.530   6.552  13.832 -0.0297  0.4063 -1.5058
13565TIP3   OH262109   1.704   5.680   3.961 -0.0242  0.1040 -0.3776
13565TIP3    H162110   1.656   5.749   3.915  1.1032  0.3104 -1.2825
13565TIP3    H262111   1.641   5.608   3.968  0.6812 -1.2343 -5.2882
13566TIP3   OH262112   5.790   5.046   4.611  0.0910 -0.3145  0.4004
13566TIP3    H162113   5.783   5.057   4.516 -1.1812  0.7367  0.6023
13566TIP3    H262114   5.790   4.951   4.624 -1.2926 -0.4616 -0.5524
13567TIP3   OH262115   3.901   3.996   0.277  0.1704 -0.0940  0.3393
13567TIP3    H162116   3.973   3.934   0.267  0.6135  0.2776  1.1930
13567TIP3    H262117   3.897   4.043   0.193  1.2577  0.2453  0.4717
13568TIP3   OH262118   2.957   4.328   0.174  0.1782 -0.2639 -0.2766
13568TIP3    H162119   2.965   4.263   0.244 -0.3748  1.0980  1.0822
13568TIP3    H262120   2.969   4.278   0.094  1.6558 -1.7303  0.8204
13569TIP3   OH262121   6.262   4.692  12.875  0.1518 -0.2899 -0.2088
13569TIP3    H162122   6.289   4.632  12.806 -0.6418 -1.2110  0.2823
13569TIP3    H262123   6.270   4.642  12.956  0.3257  0.5422  0.2962
13570TIP3   OH262124   5.952   2.579  16.384  0.4500  0.0442  0.4264
13570TIP3    H162125   5.920   2.666  16.360  1.2536  0.3964  0.6110
13570TIP3    H262126   5.944   2.527  16.304  0.0391  0.3120  0.2941
13571TIP3   OH262127   5.124   0.318   1.037 -0.3300  0.2511  0.1089
13571TIP3    H162128   5.162   0.359   1.115 -1.4327  0.5998  0.4602
13571TIP3    H262129   5.080   0.240   1.070  1.0103 -0.7788 -0.4466
13572TIP3   OH262130   5.195   2.758  12.589  0.3938  0.0265  0.0251
13572TIP3    H162131   5.230   2.820  12.653  3.4589  0.0766 -1.6242
13572TIP3    H262132   5.234   2.674  12.613 -1.5303 -0.7614  0.5311
13573TIP3   OH262133   1.933   4.806  12.563 -1.0205  0.2552 -0.9026
13573TIP3    H162134   1.899   4.890  12.530  1.0985  1.0925 -0.9900
13573TIP3    H262135   2.028   4.817  12.565 -0.7606 -1.8929 -0.1837
13574TIP3   OH262136   2.946   2.091  15.427  0.0262 -0.4312 -0.6510
13574TIP3    H162137   2.902   2.161  15.475  0.3121 -1.2262  0.7861
13574TIP3    H262138   3.013   2.136  15.375  0.4134  0.3303  0.4924
13575TIP3   OH262139   0.591   1.904  14.405  0.1630 -0.5332  0.0210
13575TIP3    H162140   0.619   1.993  14.427  1.2736 -1.3312  2.0011
13575TIP3    H262141   0.513   1.890  14.459  0.2930 -0.9413  0.1054
13576TIP3   OH262142   6.539   5.542   2.242 -0.4321 -0.2827  0.0844
13576TIP3    H162143   6.474   5.575   2.180 -0.6850 -0.6745  0.1352
13576TIP3    H262144   6.554   5.614   2.302 -1.0850 -0.3048  0.2814
13577TIP3   OH262145   6.576   4.905   1.448 -0.4352  0.4603 -0.5361
13577TIP3    H162146   6.603   4.984   1.402 -2.0403  0.9197 -0.7187
13577TIP3    H262147   6.480   4.908   1.448 -0.4998 -0.2727  1.5239
13578TIP3   OH262148   2.458   1.855  15.237 -0.1376  0.8864 -0.4845
13578TIP3    H162149   2.488   1.945  15.226  0.3480  0.9100  0.8481
13578TIP3    H262150   2.379   1.848  15.183 -0.3618  2.2024 -0.3326
13579TIP3   OH262151   2.066   6.130   5.358 -0.9246  0.3629  0.1326
13579TIP3    H162152   2.130   6.060   5.374 -2.4491 -0.7041  1.6176
13579TIP3    H262153   2.042   6.161   5.445 -1.8234  1.3282 -0.4574
13580TIP3   OH262154   5.977   5.655  15.422 -0.2447  0.3521 -0.3322
13580TIP3    H162155   6.033   5.684  15.494  0.3332 -1.6705  0.0728
13580TIP3    H262156   5.912   5.598  15.463 -1.8400  1.6479 -0.9871
13581TIP3   OH262157   0.223   0.188   0.239 -0.1992 -0.4688 -0.4281
13581TIP3    H162158   0.258   0.251   0.176  0.5920  0.5542  0.9884
13581TIP3    H262159   0.226   0.104   0.194  0.1927  0.2702 -1.8042
13582TIP3   OH262160   0.893   1.732   2.225  0.7129  0.5913 -0.6076
13582TIP3    H162161   0.944   1.803   2.263 -0.6771  1.0033  0.5221
13582TIP3    H262162   0.815   1.774   2.190  1.1106 -0.0357 -2.3008
13583TIP3   OH262163   3.654   2.431   6.124  0.1325 -0.0922  0.2623
13583TIP3    H162164   3.639   2.336   6.123  0.1728 -0.1140  1.1604
13583TIP3    H262165   3.707   2.445   6.202  1.5901  0.4611 -0.8170
13584TIP3   OH262166   2.219   2.037   6.174 -0.6519 -0.1925 -0.4354
13584TIP3    H162167   2.294   2.039   6.234  1.4656 -3.6461 -2.7481
13584TIP3    H262168   2.238   2.105   6.109 -0.3415  0.0573 -0.0805
13585TIP3   OH262169   6.152   0.688   4.898  0.2924  0.1531 -0.2361
13585TIP3    H162170   6.104   0.743   4.961 -1.8828 -0.9669 -0.9154
13585TIP3    H262171   6.156   0.602   4.940  1.0351  0.0423 -0.5349
13586TIP3   OH262172   3.618   4.416  12.780 -0.0476 -0.3178  0.1702
13586TIP3    H162173   3.620   4.475  12.705 -1.3905 -0.5010 -0.0256
13586TIP3    H262174   3.564   4.460  12.845  2.2718  0.4857  1.6232
13587TIP3   OH262175   1.363   2.255   2.494 -0.7027 -0.3064  0.1357
13587TIP3    H162176   1.357   2.201   2.415 -1.0000 -0.3563  0.1945
13587TIP3    H262177   1.423   2.325   2.470 -0.0691 -0.8325  0.1526
13588TIP3   OH262178   2.713   1.170   4.815  0.2266 -0.5485  0.3309
13588TIP3    H162179   2.760   1.101   4.767  0.3895 -0.6044  0.5649
13588TIP3    H262180   2.777   1.200   4.880 -0.1594 -0.8210  0.8391
13589TIP3   OH262181   4.076   4.144   2.811 -0.3874  0.6821 -0.9000
13589TIP3    H162182   4.017   4.177   2.878  0.9089  1.8851 -0.3301
13589TIP3    H262183   4.128   4.220   2.785  2.7266 -0.8770  0.4911
13590TIP3   OH262184   3.480   2.085   2.439 -0.0054  0.0138  0.1030
13590TIP3    H162185   3.447   2.150   2.500  2.3734 -0.7899  2.3500
13590TIP3    H262186   3.536   2.135   2.379 -1.0212  0.5588 -0.3962
13591TIP3   OH262187   0.719   2.609   4.946  0.2281 -0.8409  0.4601
13591TIP3    H162188   0.651   2.646   4.891  0.0131 -0.6834  0.8276
13591TIP3    H262189   0.691   2.519   4.962 -0.3954 -0.4876  1.4104
13592TIP3   OH262190   3.089   6.778  12.541 -0.4003 -0.5293 -0.9274
13592TIP3    H162191   3.164   6.781  12.482  0.0910 -1.3066 -0.3525
13592TIP3    H262192   3.118   6.722  12.614 -0.2716  2.0186  1.0480
13593TIP3   OH262193   3.837   4.614   6.170  0.2660  0.2386 -0.1617
13593TIP3    H162194   3.893   4.546   6.133 -1.9644 -0.9890 -1.4071
13593TIP3    H262195   3.794   4.653   6.093 -1.0625  0.7162  0.8061
13594TIP3   OH262196   0.301   1.626   1.156  0.2268 -0.3291  0.1371
13594TIP3    H162197   0.336   1.615   1.244  0.9502  1.2015  0.0615
13594TIP3    H262198   0.318   1.543   1.112  2.2745 -0.1872  0.6140
13595TIP3   OH262199   6.371   5.295  11.775  0.0798 -0.7545 -0.3196
13595TIP3    H162200   6.373   5.211  11.729 -0.3546 -1.0593  0.2233
13595TIP3    H262201   6.328   5.277  11.858 -1.0162  0.2324 -0.6490
13596TIP3   OH262202   3.279   5.052   1.140 -0.7845  0.1486  0.1829
13596TIP3    H162203   3.330   5.051   1.059 -1.9119 -0.6298 -0.5328
13596TIP3    H262204   3.302   4.970   1.184  1.1131  1.3376  1.4980
13597TIP3   OH262205   6.352   3.229  15.695  0.4242 -0.2714  0.3445
13597TIP3    H162206   6.260   3.249  15.678 -0.5938 -3.1003  2.1568
13597TIP3    H262207   6.401   3.298  15.650 -2.6619  2.9293  1.7083
13598TIP3   OH262208   4.065   1.628  16.926  0.8495 -0.0043  0.2080
13598TIP3    H162209   4.079   1.663  16.838 -0.6384  0.3640  0.1100
13598TIP3    H262210   4.104   1.541  16.924 -2.5883 -1.5848 -2.0379
13599TIP3   OH262211   5.382   6.029   5.167 -0.2545  0.5822 -0.5276
13599TIP3    H162212   5.403   6.102   5.226 -1.9090 -0.4934  1.4474
13599TIP3    H262213   5.339   6.070   5.092  1.3058  1.9056 -0.7306
13600TIP3   OH262214   4.622   1.909   5.493  0.7178  0.1881 -0.4353
13600TIP3    H162215   4.686   1.921   5.423  0.1075  0.1321 -1.0124
13600TIP3    H262216   4.634   1.819   5.522 -0.8197 -0.6638 -2.2953
13601TIP3   OH262217   5.682   2.838  16.680  0.1763  0.1755  0.4494
13601TIP3    H162218   5.766   2.884  16.672  0.0064  0.3874 -0.1116
13601TIP3    H262219   5.616   2.905  16.660 -0.1805  0.2775  1.8920
13602TIP3   OH262220   2.618   3.269   3.883  0.6329  0.0250 -0.2091
13602TIP3    H162221   2.679   3.217   3.829  2.5053  0.8623  1.0389
13602TIP3    H262222   2.587   3.207   3.949 -1.7842 -1.0438 -2.2947
13603TIP3   OH262223   1.894   1.893   2.063  0.2655 -0.0534  0.4323
13603TIP3    H162224   1.838   1.829   2.106 -0.2123 -0.7069 -1.1520
13603TIP3    H262225   1.975   1.893   2.114  0.7753 -2.8779 -0.3124
13604TIP3   OH262226   1.756   3.514   6.333 -0.1434  0.0889  0.2181
13604TIP3    H162227   1.758   3.437   6.390 -0.6502 -0.8133 -0.9527
13604TIP3    H262228   1.836   3.561   6.353  0.5029 -1.0966  0.4720
13605TIP3   OH262229   3.198   1.999  16.549  0.2128  0.0143 -0.4542
13605TIP3    H162230   3.183   2.073  16.609 -1.7865 -2.2063  1.9274
13605TIP3    H262231   3.243   1.934  16.603  0.4512 -1.1642 -2.0404
13606TIP3   OH262232   5.583   4.339  16.367 -0.1734 -0.1418 -0.4420
13606TIP3    H162233   5.627   4.391  16.299  0.5040  0.2103  0.2642
13606TIP3    H262234   5.518   4.398  16.405 -0.0631 -0.1145 -0.2954
13607TIP3   OH262235   0.156   0.946   4.113  0.6309 -0.0194 -0.5307
13607TIP3    H162236   0.233   0.951   4.055  0.0577 -1.8878 -1.4795
13607TIP3    H262237   0.186   0.984   4.196  3.4459 -3.2143  0.0062
13608TIP3   OH262238   0.318   5.462  16.483 -0.0784 -0.0022  0.6142
13608TIP3    H162239   0.377   5.526  16.443 -0.7183  0.6179  0.6577
13608TIP3    H262240   0.364   5.434  16.563 -1.1008  2.6077  2.1692
13609TIP3   OH262241   6.687   3.381  16.008  0.2870 -0.1333  0.6209
13609TIP3    H162242   6.606   3.415  16.046  1.3112  2.0161  0.9647
13609TIP3    H262243   6.671   3.287  15.998 -2.3023  0.2741  0.5141
13610TIP3   OH262244   3.654   2.708  14.571  0.2446  0.3783  0.2453
13610TIP3    H162245   3.631   2.799  14.589 -1.8043 -0.0916  0.1340
13610TIP3    H262246   3.672   2.705  14.477 -2.4416  0.1553 -0.3125
13611TIP3   OH262247   2.683   6.447  11.157  0.0940  0.4148 -0.6202
13611TIP3    H162248   2.613   6.452  11.092 -0.9036  1.2152  0.4930
13611TIP3    H262249   2.729   6.365  11.136 -1.5576 -0.4495 -0.9931
13612TIP3   OH262250   6.410   5.008  14.593 -0.1617 -0.2589  0.3985
13612TIP3    H162251   6.484   4.994  14.534  0.8178  1.2285  1.2290
13612TIP3    H262252   6.427   5.094  14.632 -2.4314  0.1815  0.4592
13613TIP3   OH262253   4.395   0.705   4.759  0.0328  0.1622 -0.0586
13613TIP3    H162254   4.468   0.763   4.736  0.1171  1.1157  2.4318
13613TIP3    H262255   4.340   0.704   4.681  2.7001 -0.6016 -2.0065
13614TIP3   OH262256   6.580   4.635  16.728  0.0689 -0.0928 -0.1211
13614TIP3    H162257   6.531   4.713  16.756 -1.2055 -0.8297 -0.2278
13614TIP3    H262258   6.547   4.616  16.640  0.7645 -0.4409 -0.3129
13615TIP3   OH262259   6.256   6.167  13.227  0.4136  0.6137 -0.0048
13615TIP3    H162260   6.267   6.190  13.319 -0.0776 -0.6002  0.3663
13615TIP3    H262261   6.204   6.238  13.191  0.0669  0.7752  0.7980
13616TIP3   OH262262   3.904   3.412  11.838 -0.1230 -0.0578 -0.3554
13616TIP3    H162263   3.823   3.366  11.859  1.3085 -1.7719  1.5956
13616TIP3    H262264   3.908   3.485  11.900  0.0354 -0.2330 -0.1587
13617TIP3   OH262265   6.111   1.306  14.043  0.0894 -0.2092 -0.1500
13617TIP3    H162266   6.156   1.283  13.962 -1.4350 -1.0866 -0.7634
13617TIP3    H262267   6.179   1.343  14.099  0.9565  1.4500 -2.2441
13618TIP3   OH262268   3.250   1.890  17.091 -0.4791 -0.0710  0.0924
13618TIP3    H162269   3.328   1.838  17.111  0.0798 -0.4952 -3.0493
13618TIP3    H262270   3.177   1.833  17.117  0.2033 -0.7636  0.5053
13619TIP3   OH262271   5.422   2.802   1.693 -0.1614  0.1524 -0.1498
13619TIP3    H162272   5.383   2.861   1.629 -0.2447  1.3260  0.9573
13619TIP3    H262273   5.514   2.827   1.695 -0.0803 -0.1449 -0.0789
13620TIP3   OH262274   4.695   5.522   6.722  0.1876  0.3396 -0.1049
13620TIP3    H162275   4.768   5.467   6.693  2.1357  2.3018  0.8857
13620TIP3    H262276   4.643   5.465   6.778  0.6860 -1.2365 -1.1985
13621TIP3   OH262277   4.728   0.368   2.112 -0.5660  0.2440 -0.5558
13621TIP3    H162278   4.694   0.457   2.121 -0.1434  0.2279  1.2928
13621TIP3    H262279   4.823   0.379   2.101 -0.6556  0.0739 -1.5674
13622TIP3   OH262280   1.631   2.312  10.613  0.1032 -0.4858 -0.1454
13622TIP3    H162281   1.714   2.303  10.566 -0.4502 -3.2353 -0.6695
13622TIP3    H262282   1.567   2.333  10.545  0.1252  0.2590  0.0625
13623TIP3   OH262283   1.537   4.707   5.501  0.4437 -0.2298 -0.6265
13623TIP3    H162284   1.590   4.762   5.444  1.2208 -2.8720 -2.5366
13623TIP3    H262285   1.597   4.677   5.569 -0.6144  3.3823  2.0405
13624TIP3   OH262286   6.140   2.158   3.494  0.0914 -0.6633  0.4518
13624TIP3    H162287   6.185   2.087   3.448 -1.4991 -1.1177 -0.4630
13624TIP3    H262288   6.056   2.119   3.521 -0.4417  0.6239  0.6669
13625TIP3   OH262289   3.525   5.593  15.185  0.1584 -0.4055 -0.2275
13625TIP3    H162290   3.591   5.526  15.200  0.0431 -0.5268 -0.2581
13625TIP3    H262291   3.566   5.654  15.125  0.2483 -0.4715 -0.2336
13626TIP3   OH262292   2.224   6.497  11.015  0.2141  0.5019  0.1224
13626TIP3    H162293   2.239   6.578  10.966  1.3325  0.4318  0.3324
13626TIP3    H262294   2.143   6.461  10.979  0.2809  1.1721 -0.6986
13627TIP3   OH262295   5.323   4.384  12.709  0.3041 -0.0054  0.1771
13627TIP3    H162296   5.414   4.355  12.712  0.3624  0.2883  1.8088
13627TIP3    H262297   5.274   4.309  12.675  0.9752 -0.6694  0.6557
13628TIP3   OH262298   0.911   1.956   4.648 -0.1435 -0.9085  0.1420
13628TIP3    H162299   0.869   1.946   4.562 -1.6093  1.0739  0.5961
13628TIP3    H262300   0.862   2.026   4.691  1.7925 -0.5538  1.8583
13629TIP3   OH262301   3.680   3.716  13.660 -0.2581  0.1598 -0.0800
13629TIP3    H162302   3.663   3.704  13.566  1.8524 -1.0204 -0.3461
13629TIP3    H262303   3.604   3.678  13.703 -1.3410  0.8838 -1.3099
13630TIP3   OH262304   0.256   6.573  15.267  0.5301  0.6657  0.2457
13630TIP3    H162305   0.332   6.568  15.209 -0.0996  1.5815 -0.6599
13630TIP3    H262306   0.190   6.620  15.217  0.3926  2.5995  2.1555
13631TIP3   OH262307   2.017   2.860  17.050  0.1136 -0.4597  0.4056
13631TIP3    H162308   1.998   2.919  16.978 -0.4376 -0.4268  0.5764
13631TIP3    H262309   1.982   2.903  17.128 -0.5237 -1.1243  0.4942
13632TIP3   OH262310   0.695   4.856   1.383  0.1343  0.0628  0.2711
13632TIP3    H162311   0.721   4.849   1.474 -0.5926  0.4893  0.5156
13632TIP3    H262312   0.643   4.937   1.379  0.8736  0.5029 -0.6873
13633TIP3   OH262313   5.365   6.015  16.777 -0.0965 -0.3692 -0.4704
13633TIP3    H162314   5.397   6.105  16.766  0.1183 -0.1537  1.7107
13633TIP3    H262315   5.278   6.025  16.816  0.3161 -1.1290  0.6496
13634TIP3   OH262316   2.392   0.580   1.615 -0.1129 -0.0173 -0.4968
13634TIP3    H162317   2.424   0.671   1.609 -0.4511  0.1838  0.6386
13634TIP3    H262318   2.463   0.528   1.578  0.7742  0.5848  0.3246
13635TIP3   OH262319   5.362   2.064   5.183 -0.6432 -0.0617  0.0799
13635TIP3    H162320   5.455   2.055   5.162 -0.6302  1.4363 -0.5594
13635TIP3    H262321   5.323   1.981   5.155 -0.0527  0.5690 -2.7482
13636TIP3   OH262322   5.224   3.599   2.840  0.2499  0.3965  0.5755
13636TIP3    H162323   5.297   3.658   2.860  0.6687  0.6468 -1.5563
13636TIP3    H262324   5.250   3.515   2.879  1.4767  0.5989  0.2250
13637TIP3   OH262325   4.554   6.421  14.175 -0.1556 -0.8439 -0.4109
13637TIP3    H162326   4.594   6.341  14.140 -0.6517 -1.0856 -0.4443
13637TIP3    H262327   4.522   6.467  14.097 -1.3386 -1.4235 -0.2856
13638TIP3   OH262328   5.350   6.278   3.704 -0.3253  0.5249  0.6472
13638TIP3    H162329   5.292   6.337   3.753 -4.2241 -3.1408  0.7704
13638TIP3    H262330   5.302   6.260   3.622  0.9846 -1.9595  0.3678
13639TIP3   OH262331   0.640   3.249   3.851  0.4392 -0.0506  0.1016
13639TIP3    H162332   0.706   3.212   3.910 -1.1850  0.2093  2.1457
13639TIP3    H262333   0.583   3.300   3.908  0.0022  1.9264 -2.0278
13640TIP3   OH262334   4.108   1.498   0.267 -0.4179  0.4838  0.3244
13640TIP3    H162335   4.130   1.555   0.193 -0.7418  0.0845 -0.0884
13640TIP3    H262336   4.186   1.497   0.321 -0.0200  0.4280 -0.2493
13641TIP3   OH262337   0.574   2.438   5.302 -0.3334  0.0147  0.0542
13641TIP3    H162338   0.485   2.442   5.337 -0.2378  1.3649  0.1969
13641TIP3    H262339   0.592   2.528   5.272  1.4891  0.1343  1.3574
13642TIP3   OH262340   0.236   5.200   2.458  0.1216 -0.1059 -0.1905
13642TIP3    H162341   0.178   5.276   2.462 -0.7529 -0.7229 -1.1661
13642TIP3    H262342   0.181   5.126   2.482 -0.1839 -1.0633 -3.6497
13643TIP3   OH262343   0.938   1.581  11.120  0.4635  0.2005  0.2215
13643TIP3    H162344   0.952   1.667  11.160 -0.6111  0.1359  0.7479
13643TIP3    H262345   0.979   1.520  11.180 -0.4548  0.1778  0.8413
13644TIP3   OH262346   2.463   3.933   2.266  0.0100  0.1925 -0.1306
13644TIP3    H162347   2.431   4.023   2.273  0.5399  0.3984 -0.3022
13644TIP3    H262348   2.384   3.880   2.251 -0.5734  0.3269  2.3280
13645TIP3   OH262349   6.456   5.805  14.161 -0.3614  0.0991  0.3480
13645TIP3    H162350   6.410   5.889  14.156 -1.4216 -0.5238 -0.6203
13645TIP3    H262351   6.390   5.740  14.137  0.9944 -0.8246 -0.9811
13646TIP3   OH262352   0.351   1.980  15.704  0.1163  0.3828  0.7660
13646TIP3    H162353   0.341   2.062  15.656  1.1647  0.2143  0.2383
13646TIP3    H262354   0.444   1.977  15.726 -0.3853  0.5736  3.0213
13647TIP3   OH262355   0.263   1.468  10.789  0.3143  0.1846 -0.0653
13647TIP3    H162356   0.215   1.439  10.712 -0.1461  0.3095  0.1746
13647TIP3    H262357   0.271   1.390  10.843 -1.3104  0.5897  0.7842
13648TIP3   OH262358   5.564   2.155   3.592 -0.2510 -0.5824  0.4135
13648TIP3    H162359   5.523   2.209   3.658 -1.7072 -1.8979  0.6076
13648TIP3    H262360   5.580   2.214   3.518 -2.9268 -0.1460  0.1517
13649TIP3   OH262361   6.556   4.450  13.752 -0.4532  0.3997  0.0590
13649TIP3    H162362   6.620   4.388  13.717  1.0789  1.8482  0.2154
13649TIP3    H262363   6.557   4.436  13.846  0.8146  1.4780  0.2251
13650TIP3   OH262364   5.952   5.098  15.486 -0.1172  0.0897  0.2260
13650TIP3    H162365   5.897   5.173  15.464  1.6311  1.4089  0.3031
13650TIP3    H262366   6.006   5.084  15.408  0.1520 -0.5839  0.5267
13651TIP3   OH262367   4.236   3.683   1.046  0.3393  0.0984 -0.1409
13651TIP3    H162368   4.236   3.779   1.053 -0.5689  0.0727  0.2551
13651TIP3    H262369   4.146   3.661   1.022  0.7067 -0.6111 -0.8561
13652TIP3   OH262370   3.458   0.112   0.158  0.5291 -0.1195 -0.8530
13652TIP3    H162371   3.392   0.129   0.092  1.2567 -0.2867 -1.6256
13652TIP3    H262372   3.418   0.142   0.240  0.0371  1.0656 -1.5172
13653TIP3   OH262373   3.503   5.438  15.808  0.2036  0.5389  0.3252
13653TIP3    H162374   3.584   5.393  15.829  0.5234  0.5300 -0.8809
13653TIP3    H262375   3.515   5.527  15.842 -0.2372 -0.1210  2.2682
13654TIP3   OH262376   0.659   6.470   4.378 -0.3270 -0.2238 -0.6559
13654TIP3    H162377   0.589   6.517   4.424 -0.0962  0.9317 -1.4612
13654TIP3    H262378   0.722   6.539   4.354  1.4516 -1.3258  0.6679
13655TIP3   OH262379   3.266   3.765   4.342 -0.0617  0.0420  0.0765
13655TIP3    H162380   3.293   3.689   4.291 -0.6029  1.0285 -1.7113
13655TIP3    H262381   3.172   3.756   4.351  0.1105 -0.5183  1.6008
13656TIP3   OH262382   5.836   4.841   5.991 -0.0544 -0.1267 -0.7394
13656TIP3    H162383   5.771   4.779   5.960  1.0850 -1.6758 -0.1144
13656TIP3    H262384   5.811   4.925   5.952  0.4024 -1.6465 -4.4773
13657TIP3   OH262385   4.287   3.172   3.838 -0.1085  0.5560  0.1287
13657TIP3    H162386   4.257   3.082   3.850 -4.0134  1.7716  0.2762
13657TIP3    H262387   4.288   3.184   3.743 -2.1024  1.0505  0.1316
13658TIP3   OH262388   4.696   4.395   6.390 -0.1817  0.3799 -0.4820
13658TIP3    H162389   4.687   4.395   6.485  2.2249 -0.0646 -0.2329
13658TIP3    H262390   4.677   4.304   6.364  2.9278 -0.4561  0.0008
13659TIP3   OH262391   3.803   1.681   2.862 -0.0174 -0.6846 -0.4360
13659TIP3    H162392   3.729   1.667   2.921  0.2118 -1.8194 -0.4002
13659TIP3    H262393   3.879   1.688   2.920 -0.2125  1.4729 -0.4126
13660TIP3   OH262394   1.882   1.959  12.249  0.4512  0.2685 -0.5342
13660TIP3    H162395   1.892   2.053  12.266  0.5837  0.0872  0.4053
13660TIP3    H262396   1.961   1.919  12.286 -0.5132 -0.4209  0.8392
13661TIP3   OH262397   6.277   2.549   5.433  0.1512  0.4159 -0.1297
13661TIP3    H162398   6.357   2.580   5.389 -0.2880  1.6365 -0.0799
13661TIP3    H262399   6.279   2.590   5.519 -0.8974  1.0428 -0.3938
13662TIP3   OH262400   6.331   0.379  17.015  0.1641  0.0635 -0.1116
13662TIP3    H162401   6.286   0.408  16.935 -1.6624  0.4183  1.0028
13662TIP3    H262402   6.399   0.445  17.030 -0.7219  1.0483 -0.3475
13663TIP3   OH262403   5.111   1.126   2.375 -0.3605 -0.0151  0.4957
13663TIP3    H162404   5.158   1.196   2.419 -0.2578  0.2382 -0.0077
13663TIP3    H262405   5.133   1.137   2.282  0.0768 -1.0313  0.4693
13664TIP3   OH262406   4.681   3.177   5.431  0.3534 -0.9872  0.1377
13664TIP3    H162407   4.745   3.149   5.497  0.6294 -0.2422  0.1904
13664TIP3    H262408   4.602   3.199   5.481  1.3053  1.8249  0.4823
13665TIP3   OH262409   3.238   1.695   1.062 -0.1345 -0.1333  0.1567
13665TIP3    H162410   3.287   1.660   0.987 -1.6327  0.3590 -1.0753
13665TIP3    H262411   3.260   1.788   1.064 -0.4034 -0.0652  0.0631
13666TIP3   OH262412   3.427   1.923   3.545 -0.1839 -0.3468  0.4196
13666TIP3    H162413   3.425   1.979   3.623  0.3344 -1.3702  1.1781
13666TIP3    H262414   3.361   1.855   3.562  0.0952 -0.7100  0.0671
13667TIP3   OH262415   2.174   1.350   5.954  0.2877  0.7769  0.3863
13667TIP3    H162416   2.217   1.314   5.877  1.1723  2.7712 -0.1051
13667TIP3    H262417   2.135   1.275   5.998  1.6821 -0.6753 -0.8097
13668TIP3   OH262418   5.489   2.481  14.306  0.4199  0.2279  0.4263
13668TIP3    H162419   5.563   2.426  14.282  0.1969  0.6027 -1.1698
13668TIP3    H262420   5.415   2.445  14.256 -0.2006  0.6601  1.0084
13669TIP3   OH262421   5.469   0.381  16.949  0.2209  0.6459 -0.3932
13669TIP3    H162422   5.518   0.430  16.884  0.5476  1.6533  0.5994
13669TIP3    H262423   5.524   0.305  16.969  0.0760  0.2868 -1.3489
13670TIP3   OH262424   5.889   1.136  10.814 -0.0826 -0.0477  0.0366
13670TIP3    H162425   5.970   1.089  10.836 -0.0061  0.3829  0.6901
13670TIP3    H262426   5.839   1.138  10.896  0.3529  1.8800  0.2871
13671TIP3   OH262427   6.216   0.506   0.002 -0.3004 -0.1184 -0.0367
13671TIP3    H162428   6.237   0.592  -0.034 -2.9039  0.2436 -0.7812
13671TIP3    H262429   6.247   0.444  -0.064  1.0405  0.2366  0.2313
13672TIP3   OH262430   1.962   5.649   3.249 -0.5523  0.1114  0.3231
13672TIP3    H162431   1.881   5.615   3.287  0.6841 -2.2883  0.9606
13672TIP3    H262432   1.939   5.674   3.160 -1.6102 -2.3551 -0.1467
13673TIP3   OH262433   4.008   0.100   5.396  0.1402 -0.2163  0.3711
13673TIP3    H162434   3.999   0.086   5.301  0.8947 -0.3420  0.3187
13673TIP3    H262435   3.999   0.195   5.406  0.7330 -0.1260  0.0942
13674TIP3   OH262436   4.847   2.293   3.131  0.3299  0.6282  0.7684
13674TIP3    H162437   4.818   2.250   3.211 -0.4255 -0.5052 -0.1052
13674TIP3    H262438   4.846   2.387   3.152 -1.1973  0.4215  1.6390
13675TIP3   OH262439   1.005   0.549  12.501  0.8376  0.0826 -0.3493
13675TIP3    H162440   0.944   0.551  12.427  0.1151 -0.4716  0.2361
13675TIP3    H262441   1.043   0.637  12.503  0.2475  0.3498 -0.8693
13676TIP3   OH262442   5.271   0.944  13.889  0.0450 -0.0974  0.0235
13676TIP3    H162443   5.270   0.855  13.855  0.8452  0.1061 -0.5377
13676TIP3    H262444   5.181   0.975  13.876 -0.5268 -1.1726  1.2073
13677TIP3   OH262445   6.686   4.834  13.773 -0.6148  0.0172  0.1476
13677TIP3    H162446   6.654   4.865  13.857 -2.6248  0.0031 -0.5826
13677TIP3    H262447   6.607   4.822  13.720  0.4837 -1.6538 -1.1711
13678TIP3   OH262448   3.403   1.324   0.714 -0.3099 -0.1168 -0.0400
13678TIP3    H162449   3.473   1.263   0.694 -0.6824 -0.4812 -0.2515
13678TIP3    H262450   3.332   1.299   0.654  0.2633  1.8481 -1.6320
13679TIP3   OH262451   4.602   2.225  17.048  0.1263  0.1325 -0.1379
13679TIP3    H162452   4.531   2.210  17.110  0.5254 -3.0109 -0.3569
13679TIP3    H262453   4.649   2.302  17.082 -1.2752  0.0948  1.9204
13680TIP3   OH262454   1.418   2.360   5.890 -0.4556  0.1071  0.0657
13680TIP3    H162455   1.501   2.322   5.920 -0.4906  0.5529  0.7460
13680TIP3    H262456   1.383   2.295   5.829  0.1854 -0.2870  0.1054
13681TIP3   OH262457   4.205   2.650  12.589  0.4465  0.4753  0.6569
13681TIP3    H162458   4.196   2.560  12.621  0.8342 -0.2047 -1.0749
13681TIP3    H262459   4.253   2.695  12.658  1.0287 -0.8739  1.1585
13682TIP3   OH262460   3.053   5.087   2.329  0.2083  0.6155  0.1796
13682TIP3    H162461   3.022   5.111   2.242  1.8608 -0.2240 -0.6517
13682TIP3    H262462   3.026   4.995   2.339  3.4981 -0.5394 -1.0807
13683TIP3   OH262463   3.952   0.083   5.108  0.0556 -0.0517 -0.2831
13683TIP3    H162464   3.933   0.018   5.040 -3.4733 -0.7876  1.2710
13683TIP3    H262465   3.894   0.156   5.088  0.7460  0.7367  0.5721
13684TIP3   OH262466   1.663   6.606   1.451 -0.4184  0.9191  0.2431
13684TIP3    H162467   1.677   6.663   1.526 -1.3379 -0.4787  1.5101
13684TIP3    H262468   1.673   6.517   1.486 -0.3530  0.2519 -1.3929
13685TIP3   OH262469   0.165   1.915   1.262 -0.8539  0.4633 -0.4229
13685TIP3    H162470   0.228   1.843   1.265 -0.9506  0.2893 -2.3643
13685TIP3    H262471   0.086   1.876   1.224 -0.8367  1.6325 -1.6794
13686TIP3   OH262472   0.140   0.366  11.209 -0.1807 -0.2923  0.2855
13686TIP3    H162473   0.066   0.412  11.170  0.1900 -0.5351 -0.7133
13686TIP3    H262474   0.213   0.428  11.203  0.1140 -0.6994 -0.2888
13687TIP3   OH262475   0.263   0.413  11.540  0.1885  0.1367  0.2337
13687TIP3    H162476   0.260   0.376  11.629  2.3561 -0.8442 -0.0735
13687TIP3    H262477   0.316   0.492  11.549 -0.1947  0.4332 -0.0783
13688TIP3   OH262478   5.050   6.211   6.162  0.1211  0.7230  0.2723
13688TIP3    H162479   5.004   6.276   6.108 -0.2868 -0.5903 -0.9615
13688TIP3    H262480   5.139   6.211   6.129  0.5034  1.7083  1.2551
13689TIP3   OH262481   0.013   0.242  10.743  0.4723 -0.0743  0.0676
13689TIP3    H162482   0.065   0.320  10.727  1.7557 -0.5358  1.8172
13689TIP3    H262483  -0.011   0.248  10.835 -0.2168 -1.2654 -0.0254
13690TIP3   OH262484   3.706   3.542  17.194 -0.1335  0.6534  0.2722
13690TIP3    H162485   3.666   3.630  17.195 -0.2097  0.6137  1.8211
13690TIP3    H262486   3.761   3.540  17.273  2.1121  0.3153 -1.2588
13691TIP3   OH262487   6.347   0.176   1.923 -0.6114  0.1905 -0.1246
13691TIP3    H162488   6.385   0.261   1.900  0.4014 -0.2691 -0.1600
13691TIP3    H262489   6.401   0.144   1.995 -1.6246  0.0329  0.5841
13692TIP3   OH262490   6.470   2.304  15.142  0.0748 -0.1377  0.3056
13692TIP3    H162491   6.536   2.349  15.195  2.2753 -1.2836 -1.3269
13692TIP3    H262492   6.485   2.336  15.053 -0.4203 -1.6562 -0.3539
13693TIP3   OH262493   5.094   6.231  13.383  0.1145 -0.3355 -0.5388
13693TIP3    H162494   5.163   6.279  13.429  0.8747 -1.7885 -0.1351
13693TIP3    H262495   5.112   6.245  13.290  0.4768 -0.0418 -0.4241
13694TIP3   OH262496   4.202   5.670  12.175  0.4362 -0.3446 -0.4900
13694TIP3    H162497   4.114   5.633  12.183  0.7810 -1.0022  0.3336
13694TIP3    H262498   4.242   5.623  12.103 -0.3546  0.9175 -1.7863
13695TIP3   OH262499   5.366   5.132   3.519 -0.0592  0.3048 -0.4480
13695TIP3    H162500   5.359   5.064   3.453  3.1368 -0.2681 -0.2833
13695TIP3    H262501   5.349   5.213   3.472  2.3264 -0.0871 -2.0829
13696TIP3   OH262502   6.159   0.396   5.733 -0.1030  0.8042  0.3515
13696TIP3    H162503   6.149   0.350   5.816  1.0441 -0.3253 -0.1218
13696TIP3    H262504   6.201   0.479   5.756  0.3773  0.4127  0.8707
13697TIP3   OH262505   0.137   5.561  14.558 -0.3666 -0.2540 -0.2677
13697TIP3    H162506   0.092   5.528  14.480  0.1527 -1.8416  0.0782
13697TIP3    H262507   0.066   5.581  14.619 -0.7082 -0.6907 -0.5129
13698TIP3   OH262508   6.069   5.993  14.311  0.3864 -0.0056 -0.0287
13698TIP3    H162509   5.997   5.947  14.356  0.7352 -1.1967 -0.6914
13698TIP3    H262510   6.029   6.074  14.279 -0.3404 -0.0519  0.7353
13699TIP3   OH262511   4.375   1.408  12.362 -0.2510 -0.4823  0.7059
13699TIP3    H162512   4.442   1.359  12.315  0.0102  0.6352 -0.1010
13699TIP3    H262513   4.293   1.363  12.342  0.0640 -0.9784  0.5181
13700TIP3   OH262514   0.517   1.915  13.104 -0.7720  0.0803 -0.1809
13700TIP3    H162515   0.560   1.931  13.188 -0.8296  1.6480 -0.4309
13700TIP3    H262516   0.566   1.968  13.041 -1.0405 -0.6904 -1.0445
13701TIP3   OH262517   4.911   0.899  11.668 -0.4276  0.0168  0.2655
13701TIP3    H162518   4.989   0.933  11.712 -1.0533 -0.9021  2.1498
13701TIP3    H262519   4.939   0.885  11.578  1.3548  0.4898  0.7216
13702TIP3   OH262520   4.259   1.975  13.743  0.0588  0.2113 -0.9575
13702TIP3    H162521   4.318   2.051  13.745  1.0539 -0.5400 -1.6194
13702TIP3    H262522   4.296   1.917  13.677 -0.8485 -0.7459 -0.6375
13703TIP3   OH262523   3.831   0.807   1.855  0.7484 -0.1402  0.4225
13703TIP3    H162524   3.772   0.830   1.784  0.8809 -3.3537 -0.7980
13703TIP3    H262525   3.819   0.876   1.920 -1.4836  1.3005 -1.4728
13704TIP3   OH262526   3.185   0.960  11.494 -0.4667  0.0460  0.1652
13704TIP3    H162527   3.178   0.865  11.503  0.9771 -0.0143  0.8830
13704TIP3    H262528   3.223   0.974  11.407  0.1180 -0.0838  0.3953
13705TIP3   OH262529   0.100   6.405   3.823  0.5079  0.6164 -0.6073
13705TIP3    H162530   0.053   6.384   3.742  0.4986  0.9885 -0.7023
13705TIP3    H262531   0.186   6.434   3.795 -0.1267  2.5724 -0.6224
13706TIP3   OH262532   0.391   5.039  11.028  0.4422  0.1566  0.0475
13706TIP3    H162533   0.336   4.967  11.059 -0.9575  0.5017 -1.5485
13706TIP3    H262534   0.437   5.004  10.952 -0.7170  1.0970 -1.1201
13707TIP3   OH262535   4.305   5.961  17.198  0.3819  0.0121  0.4333
13707TIP3    H162536   4.362   6.037  17.196 -1.8118  1.6997 -0.5292
13707TIP3    H262537   4.302   5.931  17.106 -0.5845  0.1769  0.4096
13708TIP3   OH262538   4.209   0.993  16.790  0.8389 -0.6747 -0.2198
13708TIP3    H162539   4.118   0.970  16.775  0.0880  1.7946  0.4047
13708TIP3    H262540   4.253   0.973  16.707 -0.1330 -2.3797 -0.3465
13709TIP3   OH262541   1.309   2.758   1.521  0.0973 -0.4478  0.1496
13709TIP3    H162542   1.362   2.810   1.461 -0.6081  0.5447  0.3649
13709TIP3    H262543   1.346   2.670   1.516  1.7122  0.2009  0.2459
13710TIP3   OH262544   2.307   4.119  15.756  0.1639 -0.2704 -0.5095
13710TIP3    H162545   2.285   4.188  15.694  2.4791 -0.3579 -1.4580
13710TIP3    H262546   2.334   4.165  15.835  0.6365 -0.0932 -0.7715
13711TIP3   OH262547   2.463   3.115   3.609 -0.3180  1.1961 -0.3380
13711TIP3    H162548   2.530   3.085   3.548 -0.2661 -0.2624  0.4232
13711TIP3    H262549   2.381   3.081   3.574 -0.0420 -1.6977  1.6116
13712TIP3   OH262550   6.761   4.587   4.326 -0.1480  0.3133 -0.2306
13712TIP3    H162551   6.850   4.587   4.362 -0.7179 -1.0861  1.2079
13712TIP3    H262552   6.721   4.666   4.362 -0.1331 -0.1335  0.7784
13713TIP3   OH262553   1.274   3.427   4.621 -0.1350 -0.8707 -0.1791
13713TIP3    H162554   1.288   3.405   4.714 -1.0547 -1.3932 -0.1557
13713TIP3    H262555   1.287   3.344   4.575  1.2228 -0.4298 -0.6312
13714TIP3   OH262556   3.463   3.537   1.611 -0.6099 -0.4065 -0.2388
13714TIP3    H162557   3.413   3.586   1.545 -0.8813 -1.2092 -0.6322
13714TIP3    H262558   3.525   3.485   1.561  1.2682  1.2511  0.2841
13715TIP3   OH262559   6.224   4.732  15.682  0.3276  0.0839  0.3221
13715TIP3    H162560   6.284   4.780  15.738  0.9748  0.6917 -0.8674
13715TIP3    H262561   6.254   4.641  15.686  0.4461  0.1449  0.8518
13716TIP3   OH262562   6.333   1.658   4.214  0.1569  0.2300 -0.3485
13716TIP3    H162563   6.347   1.602   4.137  0.7260  0.9095 -0.7507
13716TIP3    H262564   6.254   1.623   4.255 -0.9401  0.6848 -2.0102
13717TIP3   OH262565   5.054   2.139  11.873 -0.8916  0.5285 -0.4647
13717TIP3    H162566   4.966   2.144  11.910 -0.1006  0.3659  1.5117
13717TIP3    H262567   5.067   2.225  11.831 -1.6262  0.9177  0.0950
13718TIP3   OH262568   5.791   2.487   4.413  0.5670 -0.0215 -0.4729
13718TIP3    H162569   5.871   2.459   4.457  0.9651  0.4557 -0.8826
13718TIP3    H262570   5.758   2.559   4.466  0.6664  0.0902 -0.5618
13719TIP3   OH262571   4.281   3.530  17.103 -0.4144  0.5324 -0.3488
13719TIP3    H162572   4.222   3.478  17.157 -0.7109 -1.2999 -2.3678
13719TIP3    H262573   4.336   3.465  17.059  0.1660  1.9995 -1.8170
13720TIP3   OH262574   0.004   1.739   0.023  0.2758 -0.2516  0.6766
13720TIP3    H162575   0.099   1.752   0.019  0.4001 -0.7813  1.7717
13720TIP3    H262576  -0.033   1.821  -0.010  1.1183 -0.4525 -0.7976
13721TIP3   OH262577   3.150   2.060  11.712 -0.8712  0.6641  0.0203
13721TIP3    H162578   3.162   1.975  11.669  1.7280 -0.0099  1.9152
13721TIP3    H262579   3.215   2.117  11.670 -1.1058  1.1149  0.2679
13722TIP3   OH262580   3.291   3.948   0.922  0.3572 -0.7872 -0.1753
13722TIP3    H162581   3.198   3.969   0.934  1.2137  1.9864  2.2208
13722TIP3    H262582   3.299   3.857   0.951 -1.2211 -0.3162  1.8712
13723TIP3   OH262583   4.328   2.405  15.587 -0.9078  0.2440  0.1307
13723TIP3    H162584   4.378   2.438  15.513 -0.5899 -0.4028  0.0508
13723TIP3    H262585   4.261   2.471  15.602 -1.0374  0.3274 -0.7979
13724TIP3   OH262586   5.787   6.751   0.222 -0.1972 -0.3714 -0.0579
13724TIP3    H162587   5.845   6.826   0.209 -1.3306  0.4791 -0.2283
13724TIP3    H262588   5.836   6.677   0.188  0.6380  0.3995 -0.5472
13725TIP3   OH262589   4.674   0.718  15.021  0.0114  0.4358 -0.4385
13725TIP3    H162590   4.710   0.804  15.000  0.3220  0.6697  1.0043
13725TIP3    H262591   4.590   0.715  14.975 -0.3815  1.8292  0.1733
13726TIP3   OH262592   3.875   0.614   3.657 -0.4710 -0.3610 -0.4327
13726TIP3    H162593   3.968   0.591   3.656 -0.8076 -1.7443  0.0154
13726TIP3    H262594   3.861   0.656   3.742  0.0500  1.2240 -1.0924
13727TIP3   OH262595   6.526   2.327   4.893  0.1659  0.0938 -0.1891
13727TIP3    H162596   6.519   2.401   4.833 -1.4543 -0.2389 -0.4404
13727TIP3    H262597   6.522   2.366   4.980  1.6331  0.4969 -0.2854
13728TIP3   OH262598   1.078   5.551  14.821 -0.1132 -0.3961 -1.0728
13728TIP3    H162599   1.107   5.494  14.750 -1.0748 -0.9388 -1.0280
13728TIP3    H262600   0.994   5.515  14.849 -0.2371  0.4306 -0.3545
13729TIP3   OH262601   6.384   0.151   0.505 -0.3661  0.4140 -0.2915
13729TIP3    H162602   6.433   0.221   0.548 -0.3023  0.5378 -0.5667
13729TIP3    H262603   6.300   0.150   0.550  0.0008 -0.0122  0.4016
13730TIP3   OH262604   3.814   2.064   1.987 -0.0875  0.0629  0.0786
13730TIP3    H162605   3.725   2.094   1.967 -0.4986 -0.7705  0.6472
13730TIP3    H262606   3.870   2.137   1.960 -1.0104  0.9740  0.5693
13731TIP3   OH262607   6.239   5.982  16.427  0.5830  0.2568 -0.1438
13731TIP3    H162608   6.284   5.943  16.353  0.2870  0.3244 -0.3595
13731TIP3    H262609   6.161   6.022  16.389 -0.4091 -1.0991  0.4266
13732TIP3   OH262610   6.049   4.140  13.017  0.1266 -0.2385  0.3871
13732TIP3    H162611   6.116   4.083  13.054 -1.2181 -1.8458  0.4278
13732TIP3    H262612   6.011   4.089  12.946  0.8000  1.7395 -1.4467
13733TIP3   OH262613   2.614   0.848   3.074 -0.3553 -0.0271 -0.3104
13733TIP3    H162614   2.539   0.850   3.134 -0.1034  1.2891 -0.0170
13733TIP3    H262615   2.690   0.851   3.132 -0.1129  1.6864 -0.6985
13734TIP3   OH262616   4.501   1.539   3.127  0.0489  0.4107 -0.5070
13734TIP3    H162617   4.590   1.573   3.132  0.5589 -1.1342  1.4529
13734TIP3    H262618   4.508   1.462   3.071 -0.3419  1.1496 -1.5800
13735TIP3   OH262619   5.629   4.724   5.814 -0.2796 -0.2242 -0.2763
13735TIP3    H162620   5.567   4.671   5.763  1.1932 -0.0017 -2.3231
13735TIP3    H262621   5.678   4.773   5.749  0.7687  1.0387  1.4420
13736TIP3   OH262622   5.679   2.378   1.829  0.7374  0.7857 -0.0167
13736TIP3    H162623   5.636   2.459   1.857 -3.3141 -0.6766 -1.6435
13736TIP3    H262624   5.658   2.315   1.898 -0.1429 -0.0470 -1.0217
13737TIP3   OH262625   5.045   1.287   2.826  0.0966  0.5656 -0.0461
13737TIP3    H162626   5.067   1.214   2.768  0.9124 -0.2326  1.2568
13737TIP3    H262627   5.116   1.290   2.890 -1.9655 -0.1080  2.3652
13738TIP3   OH262628   1.399   2.497   4.333 -0.2742 -0.3619  0.4062
13738TIP3    H162629   1.367   2.416   4.374 -0.7773  0.5037  1.7789
13738TIP3    H262630   1.333   2.563   4.356  0.4360  0.5691 -0.1942
13739TIP3   OH262631   3.228   2.878   1.395  0.1981  0.2438  0.1846
13739TIP3    H162632   3.177   2.960   1.399 -0.1525  0.0026  0.8064
13739TIP3    H262633   3.247   2.866   1.302  0.7617  1.3458  0.1538
13740TIP3   OH262634   2.154   5.403   1.211  0.7053 -0.8590 -0.1682
13740TIP3    H162635   2.204   5.396   1.292  0.3973  1.1715  0.2268
13740TIP3    H262636   2.220   5.393   1.142  1.8001  2.2753  0.3433
13741TIP3   OH262637   2.715   5.696  16.082 -0.0631  0.4782  0.1348
13741TIP3    H162638   2.690   5.787  16.063 -0.4367  0.1865 -0.7660
13741TIP3    H262639   2.666   5.643  16.019  0.6109 -0.3072  0.2553
13742TIP3   OH262640   6.650   4.135  15.094 -1.0621 -0.2795  0.0144
13742TIP3    H162641   6.565   4.125  15.137 -1.0647 -0.0952  0.0522
13742TIP3    H262642   6.681   4.222  15.121  0.1332 -1.2119  1.7438
13743TIP3   OH262643   0.618   0.518   5.096  0.3875  0.7210  0.5389
13743TIP3    H162644   0.692   0.507   5.037 -0.6121  0.3226 -0.6682
13743TIP3    H262645   0.586   0.429   5.112 -1.0203  1.0029 -0.5398
13744TIP3   OH262646   5.770   1.316   3.373  0.7056  0.7100 -0.1921
13744TIP3    H162647   5.758   1.405   3.337  0.3022  0.5411 -0.4890
13744TIP3    H262648   5.682   1.290   3.399  0.7385  0.1894 -0.6035
13745TIP3   OH262649   0.883   5.473   4.123 -0.7865  0.3152 -0.1003
13745TIP3    H162650   0.804   5.521   4.101 -1.6664 -2.0867 -2.4296
13745TIP3    H262651   0.943   5.492   4.051 -0.3665 -0.3489  0.0698
13746TIP3   OH262652   0.224   2.784   3.306  0.1433 -0.6717 -0.2706
13746TIP3    H162653   0.233   2.760   3.215 -0.4001  0.5247 -0.6624
13746TIP3    H262654   0.313   2.795   3.338  0.3388  1.9407 -1.5309
13747TIP3   OH262655   6.058   4.530  16.269  0.0581 -0.3616 -0.4000
13747TIP3    H162656   6.028   4.477  16.196  1.2026  0.1844 -1.2920
13747TIP3    H262657   6.081   4.467  16.337 -0.0453 -0.9227 -0.8831
13748TIP3   OH262658   1.410   3.548   1.502 -0.4212  0.2445  0.8530
13748TIP3    H162659   1.458   3.611   1.448  0.3726  1.4081  2.9012
13748TIP3    H262660   1.318   3.573   1.491 -0.2847  0.3428 -0.1163
13749TIP3   OH262661   5.825   5.650  10.812  0.0007  0.3919 -0.4723
13749TIP3    H162662   5.750   5.631  10.756 -1.0408 -0.2315  1.0905
13749TIP3    H262663   5.867   5.565  10.826 -0.1570  0.4323  0.2655
13750TIP3   OH262664   2.410   3.289   6.452 -0.4298  0.3917 -0.7056
13750TIP3    H162665   2.453   3.270   6.535 -0.7360 -1.0606 -0.8611
13750TIP3    H262666   2.466   3.248   6.386 -1.8005 -1.1480 -0.9444
13751TIP3   OH262667   1.510   6.667  16.971  0.1555  0.3461  0.3237
13751TIP3    H162668   1.542   6.586  16.930 -1.7296 -0.0855 -0.3323
13751TIP3    H262669   1.525   6.654  17.064  0.7076 -0.3836  0.1426
13752TIP3   OH262670   5.173   2.174  13.744 -0.4602 -0.1123  0.2797
13752TIP3    H162671   5.195   2.267  13.754  0.8671 -0.1962 -1.6403
13752TIP3    H262672   5.087   2.165  13.786  0.5443  1.4375  2.8045
13753TIP3   OH262673   3.218   4.633   6.138 -0.8092  0.2821 -0.4220
13753TIP3    H162674   3.253   4.638   6.049 -2.2887 -2.1418 -1.1862
13753TIP3    H262675   3.275   4.690   6.189  0.6047  1.0332 -2.7451
13754TIP3   OH262676   3.583   2.175  13.181  0.2609  0.6328  0.4616
13754TIP3    H162677   3.660   2.232  13.179 -1.6907  3.3212 -2.0732
13754TIP3    H262678   3.586   2.127  13.099 -0.2388  0.0031  0.8039
13755TIP3   OH262679   3.221   3.186   5.967  0.6843 -0.4319 -0.6839
13755TIP3    H162680   3.288   3.231   5.916  0.8395  0.3040  0.1572
13755TIP3    H262681   3.237   3.214   6.057  0.1714 -1.4102 -0.2802
13756TIP3   OH262682   3.210   6.447  13.471 -0.9362 -0.2622 -0.5757
13756TIP3    H162683   3.248   6.515  13.525 -0.4214 -0.8877 -0.1535
13756TIP3    H262684   3.239   6.365  13.510 -0.3704 -0.7239 -1.9199
13757TIP3   OH262685   0.923   5.681   0.176 -0.3265 -0.1080 -0.2209
13757TIP3    H162686   0.981   5.616   0.214  0.7516  0.5672 -0.6975
13757TIP3    H262687   0.907   5.744   0.247 -0.2417 -0.1350 -0.1789
13758TIP3   OH262688   2.528   2.766  16.061 -0.1365  0.1453  0.1610
13758TIP3    H162689   2.600   2.797  16.005  0.3480 -1.0867  0.0650
13758TIP3    H262690   2.572   2.721  16.133 -0.7953  0.1643  0.5757
13759TIP3   OH262691   2.919   5.867  16.393 -0.3232 -0.5232 -0.0639
13759TIP3    H162692   2.929   5.774  16.374  1.0942 -0.4509  0.2549
13759TIP3    H262693   2.986   5.885  16.459 -2.2448  0.1781  1.7582
13760TIP3   OH262694   2.522   2.320  11.279  0.2150  0.7420  0.0795
13760TIP3    H162695   2.537   2.367  11.361  2.2328 -0.9086  0.7073
13760TIP3    H262696   2.610   2.297  11.249 -0.5875  0.0168 -1.7784
13761TIP3   OH262697   4.983   2.940  11.015  0.1569  0.0192  0.5207
13761TIP3    H162698   5.022   2.988  10.942 -0.4060  1.3584  1.0748
13761TIP3    H262699   5.013   2.850  11.004  0.7410  0.3750 -0.8915
13762TIP3   OH262700   0.190   1.344  15.082 -0.6120  0.0332  0.2485
13762TIP3    H162701   0.127   1.299  15.025  2.2089 -0.0425 -2.9637
13762TIP3    H262702   0.245   1.274  15.117  0.4799  0.4727 -0.5561
13763TIP3   OH262703   4.876   2.178   4.866 -0.1877 -0.1864 -0.0069
13763TIP3    H162704   4.850   2.243   4.931 -0.8424 -0.2086 -0.2422
13763TIP3    H262705   4.928   2.114   4.915  0.2106  0.3546  0.2800
13764TIP3   OH262706   0.524   3.043   3.729  0.0234  0.2870  0.3695
13764TIP3    H162707   0.522   2.987   3.806  2.1034 -1.0540 -0.4799
13764TIP3    H262708   0.565   3.124   3.759 -1.1627  0.5994  1.1581
13765TIP3   OH262709   3.461   1.049   2.582  0.2309  0.3336  0.0777
13765TIP3    H162710   3.419   1.126   2.543 -0.3950 -0.5400 -0.9901
13765TIP3    H262711   3.431   1.050   2.673 -0.1884  1.0656 -0.0606
13766TIP3   OH262712   2.866   3.205   0.423  0.0440 -0.0153  0.4985
13766TIP3    H162713   2.871   3.132   0.362 -1.3771 -0.3995  0.8169
13766TIP3    H262714   2.850   3.282   0.368  2.3706  0.2246  0.0838
13767TIP3   OH262715   3.269   2.570  13.641  0.1382 -0.3080  0.0080
13767TIP3    H162716   3.261   2.652  13.591  0.1907  1.6583  3.1102
13767TIP3    H262717   3.361   2.567  13.667  0.0820 -1.2663  0.0916
13768TIP3   OH262718   5.009   0.743   0.051  0.3729  0.0834 -0.3997
13768TIP3    H162719   4.970   0.716   0.134  0.5510  4.2710  1.1695
13768TIP3    H262720   4.935   0.772  -0.003  0.4090 -1.2173 -1.1736
13769TIP3   OH262721   3.297   0.371  12.680 -0.3132 -0.4875  0.5134
13769TIP3    H162722   3.356   0.413  12.742 -0.0522 -0.6969  0.4104
13769TIP3    H262723   3.277   0.286  12.720  0.1977 -0.8048  0.1191
13770TIP3   OH262724   5.777   1.470  17.211 -0.2063  0.2067  0.2986
13770TIP3    H162725   5.732   1.555  17.213 -1.4385 -0.3915 -1.0392
13770TIP3    H262726   5.818   1.467  17.125 -2.3141 -1.6141 -0.6812
13771TIP3   OH262727   0.811   6.730   2.220  0.3719  0.5671 -0.2300
13771TIP3    H162728   0.791   6.710   2.128  0.2431 -0.0017 -0.0823
13771TIP3    H262729   0.826   6.644   2.260 -1.0096  0.7150  0.6187
13772TIP3   OH262730   5.871   1.483  14.683 -0.6229  0.2517  0.2289
13772TIP3    H162731   5.846   1.391  14.696 -1.5668  0.6709  1.4728
13772TIP3    H262732   5.854   1.499  14.590  0.5136 -1.1108 -0.2377
13773TIP3   OH262733   2.778   4.001  14.035  0.5915 -0.5563 -0.3842
13773TIP3    H162734   2.824   3.938  13.980 -0.3201 -1.6193  0.0382
13773TIP3    H262735   2.831   4.080  14.032  0.7442 -0.7171 -2.5071
13774TIP3   OH262736   3.611   5.057   1.308  0.4947  0.1521 -0.6327
13774TIP3    H162737   3.697   5.033   1.344  0.4851  2.0221  0.7162
13774TIP3    H262738   3.553   5.058   1.384 -0.3011  0.7874 -1.2349
13775TIP3   OH262739   0.446   5.573  10.624  0.3788 -0.1126 -0.2750
13775TIP3    H162740   0.422   5.585  10.716 -1.1701  2.8694 -1.0063
13775TIP3    H262741   0.541   5.574  10.623  0.3990  0.1775  1.2446
13776TIP3   OH262742   1.990   1.486   6.561 -0.2773  0.0292  0.3885
13776TIP3    H162743   2.068   1.451   6.519  0.1346  0.9338  0.3903
13776TIP3    H262744   1.982   1.437   6.642 -0.0129 -0.4336  0.1356
13777TIP3   OH262745   0.810   6.142   2.013 -0.1359  0.3433  0.3334
13777TIP3    H162746   0.856   6.124   1.931 -0.3016 -0.5960  0.4340
13777TIP3    H262747   0.877   6.130   2.080  0.0612  1.3614  0.3198
13778TIP3   OH262748   6.576   5.317   3.491  0.4916  0.1384 -0.7023
13778TIP3    H162749   6.632   5.299   3.567 -0.2932  0.6023 -0.0083
13778TIP3    H262750   6.500   5.260   3.503 -0.6417  1.7494 -0.0045
13779TIP3   OH262751   6.732   0.778  14.457  0.2364 -0.2466  0.9053
13779TIP3    H162752   6.704   0.869  14.465 -1.7331 -0.7451  0.1512
13779TIP3    H262753   6.670   0.739  14.395  3.7245 -1.0042 -2.3127
13780TIP3   OH262754   0.981   0.586   3.416 -0.2145 -0.2121 -0.3396
13780TIP3    H162755   0.995   0.679   3.436  0.3185 -0.1022 -1.1859
13780TIP3    H262756   0.886   0.575   3.420 -0.3884  0.7011 -1.6396
13781TIP3   OH262757   5.822   3.584   1.204  0.0032 -0.2568  0.7254
13781TIP3    H162758   5.796   3.559   1.115 -0.2611  0.3306  0.6383
13781TIP3    H262759   5.918   3.586   1.201 -0.0066 -0.1541  0.4265
13782TIP3   OH262760   5.585   3.064   4.470 -0.4648 -0.1837 -0.1513
13782TIP3    H162761   5.651   3.133   4.461 -0.4040 -0.4268 -1.5693
13782TIP3    H262762   5.585   3.044   4.564  0.9431  0.3382 -0.0259
13783TIP3   OH262763   4.002   0.657  14.213 -0.6562 -0.5338  0.1118
13783TIP3    H162764   4.026   0.599  14.285 -1.7999 -0.7067  0.3653
13783TIP3    H262765   3.928   0.707  14.246  0.5979  1.4290  0.0635
13784TIP3   OH262766   5.027   0.056  13.664 -0.1905 -0.1779 -0.1880
13784TIP3    H162767   4.951   0.019  13.709 -0.4761  0.1887 -0.3674
13784TIP3    H262768   5.102   0.012  13.704 -0.2546  2.1058  2.5858
13785TIP3   OH262769   2.448   2.398  12.620 -0.2139 -0.0912 -0.5308
13785TIP3    H162770   2.495   2.466  12.668 -1.4961  0.6426 -0.2795
13785TIP3    H262771   2.358   2.403  12.653 -0.4008 -1.6762 -0.7707
13786TIP3   OH262772   0.500   1.085   2.754 -0.1386  0.1301 -0.2573
13786TIP3    H162773   0.432   1.105   2.690 -0.7241 -0.6751  0.1147
13786TIP3    H262774   0.471   1.129   2.834  0.0589  0.2417 -0.2458
13787TIP3   OH262775   4.845   4.703  15.552 -0.1916 -0.1086 -0.0976
13787TIP3    H162776   4.786   4.641  15.510  3.2336 -2.2780 -1.9224
13787TIP3    H262777   4.831   4.785  15.504 -1.7563 -0.5702 -0.4590
13788TIP3   OH262778   6.248   2.346  12.924  0.5135 -0.3523  0.2111
13788TIP3    H162779   6.341   2.346  12.949 -0.0444 -0.2578  2.3645
13788TIP3    H262780   6.201   2.339  13.006 -1.3971 -3.0851 -1.0435
13789TIP3   OH262781   0.919   5.408  10.600  0.1213  0.4753 -0.1117
13789TIP3    H162782   0.965   5.342  10.548 -0.3536 -0.5288  0.7249
13789TIP3    H262783   0.985   5.445  10.657  0.4649  0.9712 -0.8298
13790TIP3   OH262784   4.357   0.084  14.035 -0.1245  0.0224 -0.2545
13790TIP3    H162785   4.320   0.065  14.121 -0.8401 -1.4680 -0.8658
13790TIP3    H262786   4.384  -0.001  14.001 -0.7559  0.4452 -1.8978
13791TIP3   OH262787   4.605   3.378  10.649  0.0599  0.3063 -0.9172
13791TIP3    H162788   4.683   3.427  10.627 -0.6374  2.6187  1.4748
13791TIP3    H262789   4.552   3.439  10.701 -0.6544 -3.0646  2.5447
13792TIP3   OH262790   0.018   6.712   1.944 -0.4710 -0.3616  0.0324
13792TIP3    H162791  -0.003   6.799   1.978  2.9283  1.2334 -1.6461
13792TIP3    H262792   0.093   6.683   1.996 -0.3417 -1.4268 -0.7253
13793TIP3   OH262793   5.978   6.485  13.614 -0.4327 -0.1779 -0.1022
13793TIP3    H162794   6.021   6.410  13.574 -1.5873  0.0585 -1.8519
13793TIP3    H262795   5.891   6.452  13.638  0.0058 -0.1305  1.6337
13794TIP3   OH262796   2.757   6.276   4.587  0.1311  0.8938 -0.5047
13794TIP3    H162797   2.689   6.218   4.552  0.9183 -0.9083  0.8385
13794TIP3    H262798   2.835   6.257   4.535  0.1572  1.4051 -0.6515
13795TIP3   OH262799   4.331   3.951   3.847 -0.1793  0.3303  0.1398
13795TIP3    H162800   4.384   3.945   3.767  0.7042 -0.2306  0.7520
13795TIP3    H262801   4.275   4.028   3.833  0.3992  0.5985 -0.7580
13796TIP3   OH262802   6.478   5.362   1.321  0.7160  0.1770  0.4240
13796TIP3    H162803   6.453   5.440   1.270  0.5012 -1.7370 -2.4958
13796TIP3    H262804   6.403   5.346   1.378 -0.8650 -0.0512 -1.6391
13797TIP3   OH262805   2.328   4.677   1.356 -0.1315 -0.2105 -0.3853
13797TIP3    H162806   2.329   4.582   1.364 -1.7124 -0.1983  0.3165
13797TIP3    H262807   2.320   4.694   1.262  2.2555 -0.7079 -0.7058
13798TIP3   OH262808   4.457   4.000  13.653 -0.2089 -0.8537  0.1255
13798TIP3    H162809   4.369   3.999  13.690 -0.3747  0.8025 -0.1739
13798TIP3    H262810   4.443   4.004  13.558  0.1477  1.6314  0.1479
13799TIP3   OH262811   5.510   2.532   5.485  0.0571  0.6641 -0.0007
13799TIP3    H162812   5.434   2.566   5.532  0.1541 -0.6456  1.0991
13799TIP3    H262813   5.472   2.475   5.417  0.0105  1.0172 -0.2763
13800TIP3   OH262814   6.409   1.608  13.216 -0.2181  0.1705 -0.4765
13800TIP3    H162815   6.393   1.623  13.309 -0.3073  1.6593 -0.7238
13800TIP3    H262816   6.454   1.524  13.214  1.0822  0.7851  1.0466
13801TIP3   OH262817   2.811   1.593  14.395  0.2247 -0.3960 -0.0299
13801TIP3    H162818   2.786   1.670  14.446 -0.7871 -0.6610 -0.1028
13801TIP3    H262819   2.752   1.524  14.427 -0.5051 -0.5347 -1.6514
13802TIP3   OH262820   4.025   2.177  11.835  0.1417  0.2874  0.4350
13802TIP3    H162821   3.963   2.118  11.878  0.2119 -0.1371 -0.0468
13802TIP3    H262822   4.111   2.140  11.853  0.2664  0.8750  1.0975
13803TIP3   OH262823   2.061   3.363   4.521 -0.0833 -0.2450 -0.4005
13803TIP3    H162824   2.154   3.349   4.501 -0.2619 -1.8437 -0.1650
13803TIP3    H262825   2.022   3.389   4.438  0.9903  2.7283 -0.0301
13804TIP3   OH262826   0.356   3.258   4.984  0.2286 -0.8876  0.7261
13804TIP3    H162827   0.434   3.229   4.937  1.9418  1.1930  2.1748
13804TIP3    H262828   0.343   3.191   5.052  2.5375  0.2355  2.3386
13805TIP3   OH262829   0.318   6.296   4.187  0.0376  0.4045  0.0363
13805TIP3    H162830   0.316   6.344   4.270  1.0289 -0.4262  0.5513
13805TIP3    H262831   0.230   6.306   4.151 -0.4247  0.7052  1.2364
13806TIP3   OH262832   4.998   5.975   4.855 -0.6894  0.2135 -0.4397
13806TIP3    H162833   5.023   6.028   4.930  0.1403 -0.4710 -0.2180
13806TIP3    H262834   4.921   6.018   4.819 -1.0795  0.5575  0.7973
13807TIP3   OH262835   6.557   4.804   5.566 -0.1826  0.4962  0.3549
13807TIP3    H162836   6.481   4.857   5.543  0.1314  0.0939 -1.7189
13807TIP3    H262837   6.551   4.727   5.509  1.7626  0.4381  0.1933
13808TIP3   OH262838   4.935   3.754   4.767  0.5510 -0.1060  0.7492
13808TIP3    H162839   4.858   3.762   4.711  0.3010 -0.2951  1.0697
13808TIP3    H262840   4.942   3.660   4.785  1.7676 -0.2844 -0.5792
13809TIP3   OH262841   6.298   0.501   0.378  0.0219 -0.1527 -0.1516
13809TIP3    H162842   6.278   0.532   0.466  0.1375  0.1056 -0.2162
13809TIP3    H262843   6.293   0.579   0.323  0.8909 -0.1392 -0.2194
13810TIP3   OH262844   1.321   0.840   0.142 -0.2824 -0.4617 -0.1969
13810TIP3    H162845   1.273   0.860   0.062 -1.2855  0.5478  0.6444
13810TIP3    H262846   1.326   0.744   0.143 -0.6316 -0.4991 -1.2412
13811TIP3   OH262847   3.553   3.196  13.691 -0.2839 -0.0127  0.2653
13811TIP3    H162848   3.640   3.170  13.660 -0.6540  0.2810 -1.0276
13811TIP3    H262849   3.571   3.262  13.759  0.5386 -1.0845  1.1206
13812TIP3   OH262850   3.641   1.372   3.735  0.0748  0.1068 -0.2633
13812TIP3    H162851   3.581   1.299   3.753  1.3007 -0.5596  1.2441
13812TIP3    H262852   3.717   1.355   3.791  0.8076  2.0130 -0.6367
13813TIP3   OH262853   6.315   2.481   2.417 -0.0753 -0.4260  0.1282
13813TIP3    H162854   6.310   2.555   2.478  1.2735 -0.6654  0.5347
13813TIP3    H262855   6.377   2.421   2.457  0.7544 -0.6395 -1.4325
13814TIP3   OH262856   1.541   1.814  17.101 -0.5989  0.0559 -0.2506
13814TIP3    H162857   1.466   1.835  17.157 -0.0813  0.3808  0.3369
13814TIP3    H262858   1.544   1.886  17.038 -0.3793  0.3928  0.1427
13815TIP3   OH262859   3.585   2.511   5.536  0.5401 -0.6849 -0.6106
13815TIP3    H162860   3.580   2.587   5.479 -0.5883 -0.9724 -0.8970
13815TIP3    H262861   3.506   2.516   5.590 -0.1387 -2.3003 -1.4404
13816TIP3   OH262862   1.730   1.013  13.933  0.1880  0.0831  0.4691
13816TIP3    H162863   1.731   1.058  14.017  0.8400  1.7696 -0.4322
13816TIP3    H262864   1.670   1.063  13.878 -0.8948 -1.4920  0.1569
13817TIP3   OH262865   2.110   3.261  12.261  0.1907  0.1722  0.1162
13817TIP3    H162866   2.062   3.261  12.179  1.2066  2.1231 -0.5252
13817TIP3    H262867   2.143   3.172  12.270  0.6538  0.1100 -1.9397
13818TIP3   OH262868   6.668   2.009   2.706  0.4360  0.4912  0.0335
13818TIP3    H162869   6.752   2.045   2.678  0.6129 -0.2184 -0.3586
13818TIP3    H262870   6.641   1.953   2.633 -0.8965  1.5642 -0.3234
13819TIP3   OH262871   4.208   4.313  14.101 -0.2111  0.1199 -0.4369
13819TIP3    H162872   4.207   4.407  14.083 -1.5198  0.4393  1.1989
13819TIP3    H262873   4.261   4.304  14.180  0.1785 -0.5513 -0.7716
13820TIP3   OH262874   4.740   2.729  16.210 -0.1584  0.4314  0.4513
13820TIP3    H162875   4.741   2.820  16.238 -1.5971  0.0881  1.6197
13820TIP3    H262876   4.662   2.722  16.155  0.6571  0.2067 -0.7016
13821TIP3   OH262877   4.679   6.615   6.305 -0.4174 -0.8102  0.5363
13821TIP3    H162878   4.702   6.605   6.397  2.9277  0.7376 -0.0591
13821TIP3    H262879   4.621   6.691   6.303 -1.6239 -1.6836  1.4972
13822TIP3   OH262880   2.844   1.884   0.910 -0.0942  0.0944  0.1851
13822TIP3    H162881   2.897   1.823   0.859 -2.1506 -1.2236 -0.4311
13822TIP3    H262882   2.863   1.863   1.002 -0.6231 -1.3662 -0.0237
13823TIP3   OH262883   3.454   3.416  11.445  0.9143 -0.0335 -0.5547
13823TIP3    H162884   3.376   3.360  11.444 -0.1164  1.3379  1.2483
13823TIP3    H262885   3.524   3.358  11.474 -0.3595 -0.1990  2.3900
13824TIP3   OH262886   5.206   4.811   6.754 -0.0034  0.3466  0.2461
13824TIP3    H162887   5.300   4.809   6.772 -0.2573  0.4699  1.6212
13824TIP3    H262888   5.183   4.904   6.752 -0.3872  0.2858  1.5118
13825TIP3   OH262889   0.528   0.021   2.264  0.1363 -0.1680  0.7013
13825TIP3    H162890   0.561   0.030   2.175  1.2575  1.1413  1.2201
13825TIP3    H262891   0.556  -0.066   2.292 -1.0766 -0.9707 -0.5546
13826TIP3   OH262892   2.047   5.876  16.389 -0.3597 -0.4019  0.1053
13826TIP3    H162893   1.955   5.856  16.408 -0.1250 -1.6123  0.0044
13826TIP3    H262894   2.089   5.791  16.384  0.3094  0.0456 -2.2508
13827TIP3   OH262895   4.437   1.358  14.374 -0.5222 -0.0095  0.3333
13827TIP3    H162896   4.531   1.341  14.382 -0.6052 -0.9230 -0.4965
13827TIP3    H262897   4.404   1.352  14.464  0.4449  1.8170  0.8277
13828TIP3   OH262898   4.784   1.031  14.133 -0.2376  0.0380  0.5948
13828TIP3    H162899   4.783   0.942  14.099 -1.2861  0.0079  0.7047
13828TIP3    H262900   4.748   1.025  14.221 -1.6910  0.7757  0.0697
13829TIP3   OH262901   2.457   0.975   0.144  0.0286  1.0336  0.0660
13829TIP3    H162902   2.546   1.003   0.121  0.3922 -0.9078 -0.9937
13829TIP3    H262903   2.460   0.879   0.138 -2.0954  0.9442  0.1963
13830TIP3   OH262904   0.725   3.124  15.057  0.5868 -0.2797  0.3559
13830TIP3    H162905   0.772   3.108  14.975  0.3989 -0.8370  0.3511
13830TIP3    H262906   0.774   3.074  15.122 -0.3564 -1.3950  0.2365
13831TIP3   OH262907   4.907   1.315   5.034  0.7246  0.5827 -0.3373
13831TIP3    H162908   4.923   1.339   4.943  1.6910  0.5755 -0.1752
13831TIP3    H262909   4.944   1.227   5.042 -0.9110 -0.1239 -0.3819
13832TIP3   OH262910   6.319   5.695   3.550 -0.1681 -0.2026  0.7569
13832TIP3    H162911   6.354   5.633   3.614 -0.4793 -0.3826  0.7534
13832TIP3    H262912   6.321   5.780   3.595  0.5944 -0.1490  0.6361
13833TIP3   OH262913   4.170   4.020  12.941 -0.2506  0.4614 -0.0925
13833TIP3    H162914   4.086   3.987  12.974 -0.8210  0.5958 -1.4026
13833TIP3    H262915   4.153   4.111  12.916  0.6608  0.9478  1.0172
13834TIP3   OH262916   6.740   5.156   4.498 -0.4100 -0.4386 -0.2093
13834TIP3    H162917   6.827   5.121   4.484 -0.0631  0.8302 -1.3628
13834TIP3    H262918   6.731   5.164   4.593  1.3801  0.9917 -0.1347
13835TIP3   OH262919   0.451   1.552   0.006  0.0398  0.4139  0.0445
13835TIP3    H162920   0.519   1.542  -0.060  1.7690  1.5022  1.6192
13835TIP3    H262921   0.496   1.538   0.090 -2.0934 -0.8676  1.0175
13836TIP3   OH262922   5.947   4.281  14.884  0.0888  0.3383 -0.1374
13836TIP3    H162923   5.925   4.372  14.863 -1.8004 -0.1412 -0.3167
13836TIP3    H262924   6.033   4.268  14.844  0.6790  2.2422  0.4576
13837TIP3   OH262925   2.859   5.002   2.623 -0.5293  0.1594  0.3176
13837TIP3    H162926   2.834   4.922   2.670  1.7819 -0.2962  0.8096
13837TIP3    H262927   2.845   4.981   2.531  0.3575 -0.9289  0.4245
13838TIP3   OH262928   1.318   3.934  16.140 -0.3046  0.4805  0.2359
13838TIP3    H162929   1.412   3.942  16.124 -0.1127 -0.4233  0.8966
13838TIP3    H262930   1.280   3.919  16.054  0.4623 -2.0256  0.3085
13839TIP3   OH262931   5.345   4.834   4.973  0.2620 -0.3042 -0.5907
13839TIP3    H162932   5.398   4.820   5.052  1.1134  0.8965 -0.9255
13839TIP3    H262933   5.343   4.749   4.930  0.3474 -0.8118  0.3846
13840TIP3   OH262934   4.618   6.524   6.003  0.2734 -0.6173  0.3028
13840TIP3    H162935   4.550   6.573   5.957  2.0376  1.4546 -0.1732
13840TIP3    H262936   4.631   6.445   5.950  0.1557  0.2945 -1.1225
13841TIP3   OH262937   6.723   6.036   4.019  0.0548 -0.1943  0.1228
13841TIP3    H162938   6.733   5.961   4.079 -1.8307 -0.6414 -0.1133
13841TIP3    H262939   6.745   6.000   3.933  0.1779 -0.2007  0.1560
13842TIP3   OH262940   3.140   2.496   3.074 -0.1766  0.2970 -0.4867
13842TIP3    H162941   3.058   2.540   3.099 -1.0094  1.2738 -4.5450
13842TIP3    H262942   3.112   2.417   3.028  1.1598  0.2578 -1.2678
13843TIP3   OH262943   3.527   4.037   5.917  0.7436 -0.0390  0.2910
13843TIP3    H162944   3.564   3.967   5.863  1.9390  0.1697  0.8157
13843TIP3    H262945   3.603   4.090   5.941 -0.1480  1.3696 -0.0080
13844TIP3   OH262946   2.650   4.710  16.744  0.1442 -0.0307  0.4935
13844TIP3    H162947   2.605   4.696  16.828  0.8023 -0.3486  0.7979
13844TIP3    H262948   2.690   4.796  16.752 -0.1805  0.1329  0.3330
13845TIP3   OH262949   3.080   4.048  15.107 -0.1039 -0.1718 -0.0542
13845TIP3    H162950   3.167   4.056  15.066  0.5600 -0.5166  1.2679
13845TIP3    H262951   3.039   4.133  15.091  0.5433  0.0670 -0.5231
13846TIP3   OH262952   1.043   0.809  11.174 -0.2980 -0.0122 -0.1787
13846TIP3    H162953   1.059   0.771  11.088 -1.1336  0.7698 -0.6914
13846TIP3    H262954   1.047   0.735  11.234 -2.4975 -1.0394 -1.2268
13847TIP3   OH262955   3.414   5.957   6.000  0.2168  0.5492  0.2438
13847TIP3    H162956   3.402   6.018   6.073  1.5152  1.9277 -0.6498
13847TIP3    H262957   3.501   5.920   6.014  0.9407  1.6406 -1.1405
13848TIP3   OH262958   4.315   4.980   6.415  0.6436 -0.3174 -0.1432
13848TIP3    H162959   4.236   4.990   6.468 -0.1946 -0.7942 -1.2774
13848TIP3    H262960   4.358   5.066   6.418 -1.2328  0.6999 -1.5782
13849TIP3   OH262961   1.618   6.713  16.588  0.3199 -0.4597  0.2716
13849TIP3    H162962   1.574   6.714  16.503  1.1582  0.5663 -0.1491
13849TIP3    H262963   1.565   6.652  16.641 -2.1150  1.3562  0.0302
13850TIP3   OH262964   3.515   4.523  15.281 -0.2677 -0.5302 -0.1377
13850TIP3    H162965   3.527   4.448  15.222 -0.4541 -0.6543 -0.0203
13850TIP3    H262966   3.492   4.483  15.366  1.6328 -0.4304  0.4506
13851TIP3   OH262967   3.235   0.367  13.600  0.1669 -0.7341  0.6977
13851TIP3    H162968   3.141   0.388  13.599 -0.1354 -1.8409  2.2992
13851TIP3    H262969   3.238   0.275  13.627  1.7779 -0.2253  2.3609
13852TIP3   OH262970   3.304   2.911   2.758  0.0408  0.0200 -0.0763
13852TIP3    H162971   3.236   2.956   2.808  0.1316 -1.8332  1.7633
13852TIP3    H262972   3.382   2.916   2.812  0.5390 -0.6433 -0.7180
13853TIP3   OH262973   0.971   4.974   4.965 -0.1553 -0.1254  0.0458
13853TIP3    H162974   1.015   4.984   5.049  1.4203 -3.1314 -0.3490
13853TIP3    H262975   0.988   5.056   4.918  0.5963  0.7927  1.9034
13854TIP3   OH262976   1.876   0.078  16.829  0.2103 -0.3049 -0.6126
13854TIP3    H162977   1.840   0.145  16.771 -0.2900  0.7765  0.9275
13854TIP3    H262978   1.896   0.004  16.771 -3.9767 -0.7481 -1.6329
13855TIP3   OH262979   3.165   6.480  15.731 -0.7272  0.5576 -0.5055
13855TIP3    H162980   3.158   6.426  15.652  0.9273  0.7246 -0.7646
13855TIP3    H262981   3.177   6.417  15.802  0.7273  0.5547 -0.7503
13856TIP3   OH262982   5.407   4.452   3.894 -0.0065 -0.1761  0.1425
13856TIP3    H162983   5.382   4.381   3.835  0.7035  1.0624 -1.6908
13856TIP3    H262984   5.500   4.467   3.875  0.2405  0.2022  1.6184
13857TIP3   OH262985   5.564   1.865   3.604 -0.4511  0.0439 -0.3939
13857TIP3    H162986   5.504   1.937   3.627  1.1380  0.8050  1.4835
13857TIP3    H262987   5.524   1.788   3.645 -0.1659  0.5468  0.8555
13858TIP3   OH262988   2.671   6.478  14.596 -0.0571  0.5286  0.3470
13858TIP3    H162989   2.596   6.537  14.600  1.2622  2.2286  0.5993
13858TIP3    H262990   2.708   6.481  14.684 -0.6953 -1.6793  0.7242
13859TIP3   OH262991   1.874   5.975   0.790  0.3507 -0.5063  0.2716
13859TIP3    H162992   1.918   6.022   0.720  0.2524 -0.9447 -0.0848
13859TIP3    H262993   1.876   5.883   0.763  2.1274 -0.9564  1.7961
13860TIP3   OH262994   2.952   5.596  16.412  0.3605  0.4258  0.0973
13860TIP3    H162995   2.895   5.519  16.420 -0.0678  0.9832  3.0692
13860TIP3    H262996   3.004   5.580  16.334 -0.9535 -2.0645 -0.3074
13861TIP3   OH262997   5.161   1.280   1.359  0.1509  0.1719 -0.5795
13861TIP3    H162998   5.175   1.194   1.398  0.3524  1.1995  1.6997
13861TIP3    H262999   5.066   1.286   1.346 -0.2134  0.7589  2.0972
13862TIP3   OH263000   3.117   2.069   2.788  0.0740 -0.3080 -0.4166
13862TIP3    H163001   3.152   1.984   2.762  0.4432 -0.4644  0.5885
13862TIP3    H263002   3.103   2.115   2.705 -0.1603 -1.3516 -0.9710
13863TIP3   OH263003   0.117   4.942  15.654  0.4077 -0.4298  0.0625
13863TIP3    H163004   0.085   4.961  15.742  1.9767 -1.2302  0.8311
13863TIP3    H263005   0.121   4.846  15.650 -0.6311 -0.4248 -1.2441
13864TIP3   OH263006   3.364   3.153  14.206  0.1269 -0.0209  0.0420
13864TIP3    H163007   3.279   3.192  14.225 -0.1637 -1.1725  1.1924
13864TIP3    H263008   3.403   3.139  14.292  1.0404 -0.4482 -0.4392
13865TIP3   OH263009   2.590   1.504  14.146 -0.7240  0.0345  0.0651
13865TIP3    H163010   2.641   1.575  14.186 -1.6102 -0.5427  2.2408
13865TIP3    H263011   2.650   1.429  14.147 -0.3986  0.2704 -0.6615
13866TIP3   OH263012   3.500   3.265  16.223  0.2932 -0.4327 -0.4702
13866TIP3    H163013   3.595   3.265  16.238  0.2927 -1.0994 -0.4559
13866TIP3    H263014   3.476   3.173  16.225 -0.2976 -0.2863 -0.8541
13867TIP3   OH263015   1.310   5.888   0.918  0.8618 -0.2974  0.1809
13867TIP3    H163016   1.298   5.803   0.877  0.5373 -0.2616  0.2041
13867TIP3    H263017   1.405   5.902   0.916  0.9759 -0.9425  0.7418
13868TIP3   OH263018   0.295   2.662  14.243 -0.4808 -0.0243 -0.3598
13868TIP3    H163019   0.264   2.599  14.178  1.2348 -1.1470 -0.1271
13868TIP3    H263020   0.330   2.608  14.314  2.5460  1.1576 -0.8910
13869TIP3   OH263021   3.239   6.112   3.464 -0.4981  0.0844  0.3319
13869TIP3    H163022   3.211   6.132   3.553 -1.6584 -0.5230  0.1152
13869TIP3    H263023   3.323   6.157   3.455 -1.2827  1.7575  1.0698
13870TIP3   OH263024   3.165   5.333  11.766  0.0411  0.1227  0.2921
13870TIP3    H163025   3.091   5.388  11.794 -1.0152 -0.9217 -0.3779
13870TIP3    H263026   3.201   5.378  11.690 -0.4707  0.1698  0.0773
13871TIP3   OH263027   4.138   1.516  13.891 -0.1149  0.1338 -0.0350
13871TIP3    H163028   4.154   1.514  13.796 -0.0213  0.4679 -0.0287
13871TIP3    H263029   4.080   1.592  13.903  1.5501  1.3569  0.4165
13872TIP3   OH263030   6.769   5.921   3.068 -0.2897  0.0745 -0.2324
13872TIP3    H163031   6.829   5.909   3.143  0.8378  0.1488 -1.1027
13872TIP3    H263032   6.691   5.960   3.106  0.1954 -0.0703  0.9466
13873TIP3   OH263033   1.509   5.907  17.060 -0.3636 -0.3584 -0.3825
13873TIP3    H163034   1.527   5.816  17.036 -0.5499 -0.1108 -1.4586
13873TIP3    H263035   1.595   5.949  17.065 -0.2917 -0.5398 -0.0888
13874TIP3   OH263036   3.544   4.136   2.479  0.1696 -0.1259  0.7227
13874TIP3    H163037   3.456   4.159   2.510 -0.2886  0.9680 -1.2955
13874TIP3    H263038   3.579   4.217   2.443  0.3463 -1.4920 -2.3109
13875TIP3   OH263039   0.388   2.484  13.043 -0.1343  0.8283 -0.3807
13875TIP3    H163040   0.407   2.397  13.078 -0.7370  0.7982 -0.1264
13875TIP3    H263041   0.311   2.472  12.988 -0.2036  1.1989 -0.3656
13876TIP3   OH263042   4.746   4.058   1.057  0.3729 -0.4843  0.1296
13876TIP3    H163043   4.747   3.962   1.054  1.9165 -0.5250  1.1939
13876TIP3    H263044   4.788   4.080   1.140 -2.3722  1.1105  1.1468
13877TIP3   OH263045   1.567   4.716   4.407  0.1243 -0.4071  0.9863
13877TIP3    H163046   1.483   4.690   4.444  0.2785  0.5758  2.0332
13877TIP3    H263047   1.591   4.796   4.453  0.8052  0.2959 -0.5265
13878TIP3   OH263048   2.488   5.545  15.279 -0.3493  0.1520  0.2485
13878TIP3    H163049   2.507   5.455  15.252  2.1470  2.0397 -4.9787
13878TIP3    H263050   2.395   5.557  15.259 -0.2502 -0.7357 -0.8022
13879TIP3   OH263051   5.241   4.991   0.267 -0.1207 -0.0243  0.1488
13879TIP3    H163052   5.229   4.912   0.321  0.8324  1.6283  2.8826
13879TIP3    H263053   5.277   5.056   0.328  2.9555  1.3319 -2.9451
13880TIP3   OH263054   3.700   5.790   2.681 -0.4948  0.6573 -0.4699
13880TIP3    H163055   3.795   5.791   2.690 -0.5020  1.3254 -0.4404
13880TIP3    H263056   3.669   5.850   2.748 -1.0244 -0.5803  0.4201
13881TIP3   OH263057   0.343   5.647  17.086  0.2438  0.1178 -0.1252
13881TIP3    H163058   0.414   5.660  17.023  0.5105 -0.6524  0.0099
13881TIP3    H263059   0.363   5.563  17.127 -0.4446  0.1658  0.3115
13882TIP3   OH263060   5.191   0.414   4.206 -0.6764 -0.3652  0.2243
13882TIP3    H163061   5.280   0.427   4.240 -0.3956 -1.4622 -0.0701
13882TIP3    H263062   5.193   0.454   4.119 -0.0400 -1.6516 -0.3694
13883TIP3   OH263063   0.497   4.615  13.795 -0.1017 -0.4178  0.0066
13883TIP3    H163064   0.517   4.536  13.744 -1.2622 -1.0667  0.5291
13883TIP3    H263065   0.577   4.668  13.789  0.3102 -1.1520 -1.2316
13884TIP3   OH263066   3.451   6.238  13.273 -0.2579  0.4341  0.0068
13884TIP3    H163067   3.489   6.208  13.190 -0.7435  0.7972 -0.3499
13884TIP3    H263068   3.422   6.157  13.316 -2.8172  0.4519 -1.5596
13885TIP3   OH263069   0.371   2.281  15.747 -0.3651  0.0529 -0.1882
13885TIP3    H163070   0.336   2.269  15.658 -1.1283 -0.1071  0.1286
13885TIP3    H263071   0.293   2.286  15.803  0.1296 -0.5816  0.5651
13886TIP3   OH263072   4.089   5.576   4.975 -0.3584  0.1433  0.1015
13886TIP3    H163073   4.024   5.511   5.002 -1.0403  1.1990  1.0359
13886TIP3    H263074   4.172   5.528   4.974 -0.9282 -0.8544  0.3207
13887TIP3   OH263075   3.950   5.133   2.652 -0.0250  0.8407 -0.1600
13887TIP3    H163076   4.011   5.203   2.675 -0.2410  1.9187 -2.6095
13887TIP3    H263077   3.864   5.168   2.676  0.1402  0.1322  1.4759
13888TIP3   OH263078   5.904   3.312   0.210  0.3782 -0.0270  1.1509
13888TIP3    H163079   5.997   3.334   0.198 -0.0723  1.2159 -0.2240
13888TIP3    H263080   5.885   3.251   0.138 -0.8183  2.7469 -0.9767
13889TIP3   OH263081   6.303   4.737   1.211 -1.0704  0.7554  0.4221
13889TIP3    H163082   6.277   4.828   1.228 -1.1708  0.8772 -0.3514
13889TIP3    H263083   6.386   4.744   1.164  0.5096  0.3628  3.0526
13890TIP3   OH263084   5.709   2.240   4.503  0.2127  0.3881 -0.1558
13890TIP3    H163085   5.615   2.228   4.515  0.2540  0.9893  0.8224
13890TIP3    H263086   5.716   2.321   4.452  0.1694 -0.1123 -0.9548
13891TIP3   OH263087   0.878   3.142  16.582  0.3329  0.3210  0.2929
13891TIP3    H163088   0.905   3.051  16.573  1.7136  0.6302  1.2575
13891TIP3    H263089   0.914   3.170  16.666 -2.4658  0.9391  1.3407
13892TIP3   OH263090   0.442   2.269   4.045  0.0767  0.2773  0.1595
13892TIP3    H163091   0.494   2.265   3.965  1.6251  0.1062  1.1513
13892TIP3    H263092   0.498   2.315   4.108 -1.3971  1.0431  0.9336
13893TIP3   OH263093   4.965   4.085   2.687 -0.3836  0.5238 -0.3673
13893TIP3    H163094   4.995   4.125   2.768 -1.6332  0.3862  0.1795
13893TIP3    H263095   4.911   4.152   2.646 -2.5590 -0.5829  0.5943
13894TIP3   OH263096   6.624   4.865   0.351  0.3483 -0.7139 -0.1672
13894TIP3    H163097   6.594   4.940   0.403 -0.1821  0.0684 -1.5647
13894TIP3    H263098   6.549   4.805   0.352  0.8608 -1.3604  1.1575
13895TIP3   OH263099   6.463   2.660   0.895  0.3488 -0.1118 -0.3401
13895TIP3    H163100   6.379   2.692   0.930  0.0989 -1.6706  0.5407
13895TIP3    H263101   6.520   2.654   0.972  1.8154  2.5007 -1.1663
13896TIP3   OH263102   1.773   0.548   3.720 -0.1496 -0.1829  0.0171
13896TIP3    H163103   1.698   0.608   3.719 -0.2415 -0.3067 -1.6542
13896TIP3    H263104   1.848   0.604   3.699  0.6319  0.3941  3.9125
13897TIP3   OH263105   3.830   5.841   4.678 -0.6946 -0.3138 -0.1997
13897TIP3    H163106   3.908   5.819   4.627  1.8379 -0.6680  3.6002
13897TIP3    H263107   3.845   5.931   4.707 -2.0741 -0.1108 -0.0859
13898TIP3   OH263108   0.195   5.146  17.034  0.1486  0.2328  0.8393
13898TIP3    H163109   0.208   5.195  16.954  0.8853  0.1203  0.8879
13898TIP3    H263110   0.201   5.054  17.007  1.3582  0.2089  1.1806
13899TIP3   OH263111   5.667   6.490  15.820  0.1944  0.0065  0.3301
13899TIP3    H163112   5.733   6.552  15.790  0.9692 -0.9108  0.1202
13899TIP3    H263113   5.667   6.421  15.754  0.2229 -0.8374  1.1995
13900TIP3   OH263114   4.369   0.832   0.692  0.0056 -0.2839  0.5223
13900TIP3    H163115   4.383   0.769   0.621  0.6271  0.3552  0.0777
13900TIP3    H263116   4.404   0.915   0.658 -0.8766  0.3246  1.0710
13901TIP3   OH263117   3.972   4.224   1.487  0.3304 -0.1832  0.1354
13901TIP3    H163118   3.974   4.174   1.568 -4.7718 -0.9776 -0.0741
13901TIP3    H263119   3.998   4.161   1.420  0.3169 -0.7176  0.6319
13902TIP3   OH263120   1.308   2.459  12.681 -0.0900 -0.1346  0.0069
13902TIP3    H163121   1.296   2.392  12.749 -1.5998  0.9575  0.8213
13902TIP3    H263122   1.403   2.470  12.676  0.0430 -0.2815  1.8836
13903TIP3   OH263123   2.319   0.152  15.702  0.1010  0.3622  0.1523
13903TIP3    H163124   2.246   0.152  15.763 -0.5311  2.3094 -0.5580
13903TIP3    H263125   2.279   0.141  15.616  0.8033 -0.3103 -0.0929
13904TIP3   OH263126   2.716   5.903   3.964  0.0808 -0.8453  0.3483
13904TIP3    H163127   2.697   5.907   4.057 -0.8407  0.2696  0.1313
13904TIP3    H263128   2.803   5.943   3.955 -0.4856  0.4711  0.5655
13905TIP3   OH263129   5.350   5.990   4.224 -0.4809  0.3836  0.3426
13905TIP3    H163130   5.378   5.904   4.256 -1.9675  0.1925  1.1450
13905TIP3    H263131   5.340   5.978   4.130  0.5292  0.0242  0.2703
13906TIP3   OH263132   1.931   1.628   3.956  0.4148  0.2514 -0.0894
13906TIP3    H163133   1.926   1.677   4.039 -1.1210 -0.4682  0.2461
13906TIP3    H263134   1.933   1.536   3.982 -2.5235 -0.0869 -0.9061
13907TIP3   OH263135   6.361   1.865   2.865 -0.7747 -0.3227 -0.2615
13907TIP3    H163136   6.412   1.844   2.943 -1.0357  0.0679  0.0158
13907TIP3    H263137   6.287   1.806   2.868 -0.4952 -0.6860 -0.5059
13908TIP3   OH263138   4.226   2.697  14.456 -0.1366 -0.7129 -0.3082
13908TIP3    H163139   4.188   2.692  14.368  0.8161 -0.5229 -0.7391
13908TIP3    H263140   4.162   2.655  14.512 -1.4606  0.5234 -0.8681
13909TIP3   OH263141   5.012   4.136   0.139  0.1437  0.1010  0.4993
13909TIP3    H163142   5.038   4.070   0.203  1.1785  0.9876  1.0109
13909TIP3    H263143   5.093   4.183   0.118  0.1910 -1.4133 -2.9412
13910TIP3   OH263144   0.577   0.543   3.632 -1.0068  0.4091  0.3415
13910TIP3    H163145   0.632   0.614   3.598 -1.4575  1.8658  2.5289
13910TIP3    H263146   0.570   0.562   3.726 -1.0776 -2.5876  0.9882
13911TIP3   OH263147   0.263   3.203  15.319  0.1940  0.0327  0.3246
13911TIP3    H163148   0.357   3.215  15.308  0.4628 -0.6600  1.7481
13911TIP3    H263149   0.228   3.203  15.230  1.4321  1.1359 -0.1767
13912TIP3   OH263150   5.846   6.365  10.402 -1.0158 -0.1220  0.2337
13912TIP3    H163151   5.787   6.409  10.341 -0.7372 -1.4055 -1.0073
13912TIP3    H263152   5.910   6.432  10.426  0.0540 -0.0739 -2.4887
13913TIP3   OH263153   4.830   6.011   0.807  0.2125  0.1176 -0.2129
13913TIP3    H163154   4.851   5.929   0.761  0.4736 -0.3518  0.7289
13913TIP3    H263155   4.740   5.998   0.838  0.0167  0.4554 -0.6450
13914TIP3   OH263156   6.755   1.336   4.249 -0.1121  0.0995  0.0110
13914TIP3    H163157   6.723   1.368   4.164  0.2992 -0.0555 -0.2024
13914TIP3    H263158   6.798   1.253   4.229  3.1102  1.7257 -0.1890
13915TIP3   OH263159   2.496   6.188   3.704  1.0415 -0.4478 -0.5347
13915TIP3    H163160   2.570   6.228   3.749  0.5207  1.2004 -1.1164
13915TIP3    H263161   2.426   6.185   3.770  0.5475  1.1828 -0.9694
13916TIP3   OH263162   5.295   3.065   2.921  0.0002  0.0606  0.9079
13916TIP3    H163163   5.285   3.029   2.833  0.5157  0.0597  0.8451
13916TIP3    H263164   5.389   3.057   2.939  0.0673  1.0521  1.0358
13917TIP3   OH263165   6.447   6.009  13.507 -0.5249  0.0138 -0.0320
13917TIP3    H163166   6.426   5.953  13.432 -0.5901 -1.2538  0.9320
13917TIP3    H263167   6.375   5.995  13.569 -0.5099  1.1204  0.2528
13918TIP3   OH263168   0.556   2.490  15.383 -0.4711  0.7761  0.0121
13918TIP3    H163169   0.553   2.528  15.295 -2.3837 -1.3261 -0.8852
13918TIP3    H263170   0.589   2.401  15.369  2.7768  1.5906  1.9227
13919TIP3   OH263171   5.470   0.786   0.324  0.0663 -0.5137  0.0239
13919TIP3    H163172   5.530   0.770   0.397 -1.0228  0.4120  1.1370
13919TIP3    H263173   5.425   0.703   0.311  1.3746 -1.1392 -0.6437
13920TIP3   OH263174   0.671   0.417  13.959 -0.1881  0.6894  0.1912
13920TIP3    H163175   0.663   0.468  13.879  2.6352  1.5028  0.3732
13920TIP3    H263176   0.612   0.460  14.022 -0.2762  1.7444 -0.6047
13921TIP3   OH263177   4.105   3.741   2.509  0.1215 -0.2213  0.1011
13921TIP3    H163178   4.072   3.816   2.558  0.7652 -0.0803  0.3314
13921TIP3    H263179   4.034   3.718   2.449 -0.3627  0.1042  0.5449
13922TIP3   OH263180   1.820   5.265   4.875 -0.4099 -0.2935  0.5609
13922TIP3    H163181   1.795   5.211   4.800  3.0263  2.4286 -2.7194
13922TIP3    H263182   1.901   5.225   4.907 -0.5289  0.0234  1.2595
13923TIP3   OH263183   5.720   6.405   5.074  0.0532 -0.1358 -0.7308
13923TIP3    H163184   5.628   6.383   5.067 -0.3162  1.4611 -1.0219
13923TIP3    H263185   5.721   6.493   5.111  1.4874 -0.4490  0.0409
13924TIP3   OH263186   5.250   4.352  16.851  0.5025  0.5997  0.1906
13924TIP3    H163187   5.194   4.428  16.862 -0.6240 -0.3654  1.2603
13924TIP3    H263188   5.235   4.299  16.930  0.4454 -1.2505 -1.0398
13925TIP3   OH263189   4.622   6.056  15.589 -0.5674 -0.0913 -0.6162
13925TIP3    H163190   4.669   6.124  15.542 -0.7418 -0.0923 -0.7910
13925TIP3    H263191   4.679   5.979  15.583  0.9720  0.7694  1.9731
13926TIP3   OH263192   3.762   5.628  11.517 -0.0020  0.1641 -0.6623
13926TIP3    H163193   3.798   5.541  11.535 -1.8878 -0.4507  0.2642
13926TIP3    H263194   3.834   5.687  11.538  0.3779 -1.0196  1.5880
13927TIP3   OH263195   3.279   0.499  14.683 -0.5333 -0.0703  0.3224
13927TIP3    H163196   3.272   0.426  14.745  0.4890 -0.7090 -0.3001
13927TIP3    H263197   3.373   0.509  14.668 -0.7491  0.4410 -0.7117
13928TIP3   OH263198   3.797   0.046   4.640 -0.3786 -0.0538  0.7351
13928TIP3    H163199   3.889   0.047   4.616 -0.0941 -0.4764  1.7763
13928TIP3    H263200   3.757   0.114   4.586  0.5463  0.1548  0.3077
13929TIP3   OH263201   5.226   1.694  14.142 -0.4979 -0.7429  0.2293
13929TIP3    H163202   5.189   1.782  14.131  0.1267 -0.6052 -0.8719
13929TIP3    H263203   5.151   1.637  14.154 -0.8988 -0.0187  1.2791
13930TIP3   OH263204   1.452   1.927  12.696  0.4595  0.0333 -1.2086
13930TIP3    H163205   1.423   1.930  12.788 -1.5601 -2.1940 -1.7310
13930TIP3    H263206   1.403   1.998  12.654  0.7960  0.5532 -0.7433
13931TIP3   OH263207   4.882   6.281   1.373 -0.2382  0.2056 -0.3287
13931TIP3    H163208   4.926   6.229   1.306  1.0713  1.7144 -0.6857
13931TIP3    H263209   4.802   6.233   1.392  0.7179 -1.6975 -0.9567
13932TIP3   OH263210   6.463   1.566   3.957  0.5795 -0.2284  0.4075
13932TIP3    H163211   6.491   1.654   3.932  1.6123 -0.3506  1.1112
13932TIP3    H263212   6.542   1.525   3.993 -0.4973 -0.5945  2.3926
13933TIP3   OH263213   1.008   1.286  13.155 -0.5095 -0.3655  0.0876
13933TIP3    H163214   1.055   1.301  13.237 -2.7289  1.2640  1.1285
13933TIP3    H263215   0.917   1.309  13.175 -0.7376  2.2928 -3.4196
13934TIP3   OH263216   2.880   3.060  11.532  0.3176  0.2556  0.5194
13934TIP3    H163217   2.793   3.097  11.546  0.2147 -0.8727  3.1683
13934TIP3    H263218   2.869   2.966  11.548  1.5007 -0.2737 -1.6442
13935TIP3   OH263219   2.905   4.338   1.005 -0.5437  0.0605  0.2590
13935TIP3    H163220   2.994   4.361   1.028 -1.0724  1.9629  0.4842
13935TIP3    H263221   2.851   4.379   1.072 -1.6386 -0.5234 -0.2427
13936TIP3   OH263222   0.337   3.326   0.689  0.1944 -0.0307  0.1229
13936TIP3    H163223   0.266   3.368   0.737 -0.3676 -1.5548  0.6547
13936TIP3    H263224   0.381   3.397   0.642 -0.7650  1.1172  0.9703
13937TIP3   OH263225   5.885   0.235   5.691  0.5030  0.2073  0.1595
13937TIP3    H163226   5.842   0.227   5.776  0.2508  3.2580  0.3990
13937TIP3    H263227   5.974   0.266   5.712  1.4941 -2.0948 -0.5430
13938TIP3   OH263228   6.274   2.469  15.390  0.3421 -0.5310 -0.0087
13938TIP3    H163229   6.191   2.513  15.410  2.4617  3.1837  1.0781
13938TIP3    H263230   6.308   2.442  15.475  1.6802  0.7927 -0.0914
13939TIP3   OH263231   5.174   1.022  16.874 -0.2621  0.8634 -0.2639
13939TIP3    H163232   5.150   0.960  16.942 -1.7126  3.1876  1.3944
13939TIP3    H263233   5.267   1.041  16.890  0.0804 -0.5252 -0.5452
13940TIP3   OH263234   3.917   4.348  12.644 -0.0566 -0.4702  0.4678
13940TIP3    H163235   3.917   4.442  12.627 -0.5224 -0.7503 -1.2201
13940TIP3    H263236   3.976   4.336  12.718  2.2483  0.8502 -1.0803
13941TIP3   OH263237   5.640   0.833  15.648  0.0577  0.0958  0.0311
13941TIP3    H163238   5.632   0.757  15.706 -0.9193  0.9892  1.1155
13941TIP3    H263239   5.734   0.842  15.632  0.3058 -0.4367  1.1259
13942TIP3   OH263240   1.859   6.350   2.730  0.3722  0.2407 -0.3184
13942TIP3    H163241   1.937   6.351   2.786  0.0709  0.3906  0.1000
13942TIP3    H263242   1.793   6.304   2.782  0.0759  0.4213 -0.5347
13943TIP3   OH263243   0.996   1.407  15.748  0.2190 -0.0645  0.3186
13943TIP3    H163244   0.916   1.459  15.760 -0.4954 -1.1962  0.5573
13943TIP3    H263245   1.047   1.456  15.684 -0.6632  0.6859  0.1804
13944TIP3   OH263246   1.946   3.216  13.446 -0.2540  0.4022 -0.3356
13944TIP3    H163247   1.881   3.154  13.413 -0.9822  0.2706  1.2802
13944TIP3    H263248   1.896   3.274  13.504  0.7152  1.5184 -0.6031
13945TIP3   OH263249   0.673   3.979  14.756  0.1284  0.6592 -0.6996
13945TIP3    H163250   0.636   4.051  14.808  1.2047  0.6107  0.1375
13945TIP3    H263251   0.683   3.907  14.818  2.3127  0.9073 -0.7391
13946TIP3   OH263252   2.421   2.417  14.009 -0.0336  0.1948 -0.4053
13946TIP3    H163253   2.421   2.361  14.087 -1.2049 -0.2301 -0.7021
13946TIP3    H263254   2.427   2.356  13.935 -2.2660  0.3803 -0.7667
13947TIP3   OH263255   3.972   6.010  16.130  0.0607  1.0145  0.5693
13947TIP3    H163256   3.939   5.927  16.162  0.9760  0.0931 -0.8238
13947TIP3    H263257   3.895   6.057  16.098 -0.4639  0.7435  1.4412
13948TIP3   OH263258   3.279   1.873   1.881 -0.1248 -0.4026  0.0818
13948TIP3    H163259   3.295   1.878   1.787  1.4587  0.7272  0.3895
13948TIP3    H263260   3.235   1.956   1.902  1.0210  0.0723  0.6094
13949TIP3   OH263261   0.864   4.196   2.191 -0.3363 -0.2449  0.5283
13949TIP3    H163262   0.952   4.207   2.225 -0.4445 -1.3353  1.1813
13949TIP3    H263263   0.821   4.280   2.208  0.3716  0.0626  0.8130
13950TIP3   OH263264   0.029   6.349  15.542  0.6464 -0.1252  0.0545
13950TIP3    H163265   0.108   6.401  15.532  0.8165 -0.6217 -1.3387
13950TIP3    H263266   0.039   6.304  15.626  1.6005  0.2096  0.1189
13951TIP3   OH263267   3.194   5.803   4.943 -0.1615  0.1626  0.0208
13951TIP3    H163268   3.220   5.752   5.019  3.4361 -0.4594 -1.5147
13951TIP3    H263269   3.128   5.865   4.976  0.9353 -0.4200  3.4726
13952TIP3   OH263270   3.373   2.895   4.083 -0.7081  0.1096 -0.1410
13952TIP3    H163271   3.317   2.973   4.091 -1.4583 -0.3894 -0.4735
13952TIP3    H263272   3.312   2.824   4.062  0.0569 -0.4338 -0.5359
13953TIP3   OH263273   0.566   4.892   3.895  0.2302  0.4074 -0.0484
13953TIP3    H163274   0.557   4.809   3.942 -1.5338  1.0869  0.8342
13953TIP3    H263275   0.479   4.932   3.899  0.8082  1.8276 -1.3557
13954TIP3   OH263276   3.470   5.394   1.539  0.0705  0.0636  0.2752
13954TIP3    H163277   3.421   5.435   1.468  0.2083  1.1319  0.7921
13954TIP3    H263278   3.551   5.364   1.498 -0.1067  0.1536 -0.1386
13955TIP3   OH263279   6.025   5.865   5.660  0.0683  0.0050  0.0612
13955TIP3    H163280   5.975   5.929   5.711 -1.0447 -1.8041  1.3135
13955TIP3    H263281   6.115   5.873   5.693 -0.2942  0.1089  1.0310
13956TIP3   OH263282   4.228   2.823   4.854 -0.3441 -0.2409  0.3751
13956TIP3    H163283   4.323   2.829   4.842 -0.3686 -1.9278 -0.7552
13956TIP3    H263284   4.207   2.897   4.911  1.8028 -0.4833  1.5367
13957TIP3   OH263285   5.969   0.689  14.342  0.4150 -0.0076  0.1989
13957TIP3    H163286   5.909   0.645  14.401 -0.4638  0.2648 -0.4756
13957TIP3    H263287   5.950   0.782  14.354  1.6241  0.1516  0.9458
13958TIP3   OH263288   0.623   3.704  12.738  0.0966  0.2725  0.1073
13958TIP3    H163289   0.648   3.697  12.830 -0.3672 -1.2158  0.1425
13958TIP3    H263290   0.706   3.707  12.691  0.3649  3.1026  0.6678
13959TIP3   OH263291   6.371   4.432   0.690  0.2264  0.3650  0.1741
13959TIP3    H163292   6.294   4.393   0.730 -0.8341  2.4099  0.1721
13959TIP3    H263293   6.352   4.433   0.597  0.1601  1.0871  0.1966
13960TIP3   OH263294   4.117   5.111  12.617  0.0544  0.3772 -0.5115
13960TIP3    H163295   4.114   5.049  12.690 -0.9440 -0.2089 -1.0385
13960TIP3    H263296   4.071   5.188  12.649  0.2585  0.4025 -0.2726
13961TIP3   OH263297   4.191   6.192  11.335 -0.3039 -0.2838 -0.2757
13961TIP3    H163298   4.142   6.162  11.259 -1.2907  0.8689 -0.0976
13961TIP3    H263299   4.244   6.116  11.360  0.0752 -0.6655 -2.1272
13962TIP3   OH263300   5.461   1.369  11.194  0.0161  0.3577 -0.2861
13962TIP3    H163301   5.458   1.437  11.262 -0.3905  0.1332 -0.0798
13962TIP3    H263302   5.371   1.340  11.186  0.2488 -0.4033 -0.1362
13963TIP3   OH263303   5.138   0.403   4.947  0.2316 -0.2630  0.3303
13963TIP3    H163304   5.086   0.360   4.880 -1.7902  0.2282  1.5548
13963TIP3    H263305   5.128   0.497   4.929 -0.8287 -0.1089  1.6821
13964TIP3   OH263306   3.158   2.108   1.929 -0.6588 -0.2998 -0.3593
13964TIP3    H163307   3.107   2.105   2.010  0.8787  0.7804  0.6554
13964TIP3    H263308   3.128   2.188   1.886 -0.7185 -0.3321 -0.3795
13965TIP3   OH263309   2.911   6.739  14.539 -0.2057  0.3037 -0.1697
13965TIP3    H163310   2.989   6.793  14.548 -0.6431  0.9184 -0.0406
13965TIP3    H263311   2.875   6.734  14.627 -1.0134  1.0850 -0.4505
13966TIP3   OH263312   0.282   5.083   3.622 -0.0043 -0.0884 -0.0286
13966TIP3    H163313   0.287   5.059   3.714 -3.5549 -1.0226 -0.0170
13966TIP3    H263314   0.285   5.179   3.622 -1.2719 -0.0293  1.2006
13967TIP3   OH263315   1.458   1.269   5.705 -1.1847 -0.2839  1.4166
13967TIP3    H163316   1.531   1.322   5.738 -1.2408 -0.3258  1.6090
13967TIP3    H263317   1.380   1.322   5.722 -1.4238 -1.2091  3.2791
13968TIP3   OH263318   3.320   3.235  10.991 -0.2376 -0.3672  0.3497
13968TIP3    H163319   3.293   3.321  11.022 -0.3321 -0.2577 -0.0332
13968TIP3    H263320   3.408   3.248  10.957  0.2115 -0.6756  1.3846
13969TIP3   OH263321   0.084   2.936  16.835  0.6872 -0.0387 -0.3550
13969TIP3    H163322   0.056   2.888  16.757  0.4151  0.9899 -0.8901
13969TIP3    H263323   0.142   2.875  16.880 -0.0233 -1.0520 -0.7903
13970TIP3   OH263324   2.169   1.001  17.124  0.1441  0.2043 -0.4163
13970TIP3    H163325   2.137   0.988  17.034  0.7519  0.4503 -0.6705
13970TIP3    H263326   2.264   1.007  17.115  0.1455  1.1494  0.1279
13971TIP3   OH263327   4.478   0.055   0.054 -0.5588  0.1437 -0.6181
13971TIP3    H163328   4.384   0.054   0.037 -0.6530  0.2464 -0.1078
13971TIP3    H263329   4.499   0.147   0.069 -0.4984  0.0448 -0.0709
13972TIP3   OH263330   1.213   4.296  12.053 -0.3680 -0.3655 -0.3982
13972TIP3    H163331   1.245   4.339  11.973 -0.9075 -0.9886 -0.9512
13972TIP3    H263332   1.247   4.207  12.047 -0.6715 -0.5018 -0.0828
13973TIP3   OH263333   6.155   3.133  15.982  0.1141  0.7419  0.6082
13973TIP3    H163334   6.245   3.104  15.972 -0.1365  0.6609 -1.5561
13973TIP3    H263335   6.111   3.059  16.025  0.3005 -0.6696 -1.5468
13974TIP3   OH263336   5.587   2.529  15.788 -0.4538  0.1967 -0.0591
13974TIP3    H163337   5.675   2.492  15.777 -0.9859 -1.0450 -0.2273
13974TIP3    H263338   5.557   2.544  15.698 -0.8328 -0.4002 -0.0328
13975TIP3   OH263339   1.314   2.066   2.273  0.1123 -0.7436  0.4527
13975TIP3    H163340   1.334   2.108   2.189  1.1628  0.2501  1.1815
13975TIP3    H263341   1.364   1.985   2.272  2.3500  0.5696  1.2416
13976TIP3   OH263342   0.899   2.209   6.382 -0.3701 -0.2173  0.2302
13976TIP3    H163343   0.956   2.134   6.367 -0.1896 -0.5003  2.1056
13976TIP3    H263344   0.826   2.173   6.432 -0.0665  0.9056  1.5195
13977TIP3   OH263345   6.467   1.210   2.698  0.5772  0.3576 -0.1099
13977TIP3    H163346   6.549   1.210   2.748  0.9102  0.8271 -0.6569
13977TIP3    H263347   6.399   1.208   2.765  1.0396 -1.8708  0.3207
13978TIP3   OH263348   6.019   1.428  12.209 -0.6615  0.3720 -0.0283
13978TIP3    H163349   5.956   1.499  12.197 -1.4114 -0.4012 -0.7304
13978TIP3    H263350   6.025   1.386  12.123 -2.3742 -2.1698  1.0375
13979TIP3   OH263351   1.984   0.735   4.551 -0.2054  0.3655  0.0928
13979TIP3    H163352   1.923   0.661   4.556  0.2549  0.1214  2.8480
13979TIP3    H263353   1.929   0.813   4.559 -0.4146  0.2220  0.0620
13980TIP3   OH263354   5.221   2.820  13.098  0.0233  0.4588 -0.2320
13980TIP3    H163355   5.173   2.875  13.036 -0.5107  0.8078  0.4928
13980TIP3    H263356   5.184   2.733  13.086 -1.7583  0.9818  1.2877
13981TIP3   OH263357   4.267   4.172   1.514 -0.6944 -0.1305  0.4550
13981TIP3    H163358   4.233   4.092   1.474 -2.0858  0.4218  0.4938
13981TIP3    H263359   4.239   4.166   1.605 -1.0984  0.5455  0.3783
13982TIP3   OH263360   0.943   2.210  15.976 -0.4930  0.9655 -0.2664
13982TIP3    H163361   0.925   2.218  15.883 -2.9197 -0.6621  0.0114
13982TIP3    H263362   0.857   2.197  16.016  0.5298  1.3443  2.1770
13983TIP3   OH263363   4.468   3.734   3.567  0.3807  0.3871 -0.4806
13983TIP3    H163364   4.494   3.825   3.549 -1.2433  0.7591 -0.9709
13983TIP3    H263365   4.527   3.682   3.512  2.2134  1.0620  0.7954
13984TIP3   OH263366   4.301   0.037   5.657  0.4064 -0.7374 -0.0993
13984TIP3    H163367   4.331   0.074   5.573  0.3179  2.5396  1.2187
13984TIP3    H263368   4.380   0.031   5.710  0.5386 -3.2542 -0.5208
13985TIP3   OH263369   5.456   3.892  15.385  0.5891 -0.1780 -0.2973
13985TIP3    H163370   5.534   3.925  15.429 -0.2382 -0.2783  1.2784
13985TIP3    H263371   5.427   3.964  15.329  0.4617  0.7268  0.9165
13986TIP3   OH263372   6.716   3.883   5.059 -0.4336 -0.2708 -0.4177
13986TIP3    H163373   6.792   3.885   5.116 -0.3173 -0.0986 -0.5798
13986TIP3    H263374   6.646   3.925   5.110 -0.2959 -0.0010 -0.4502
13987TIP3   OH263375   2.577   3.529  16.949 -0.2885  0.3515  0.5663
13987TIP3    H163376   2.582   3.614  16.907 -0.0856 -0.3204 -0.7917
13987TIP3    H263377   2.608   3.467  16.883 -2.8267 -1.0761  0.6372
13988TIP3   OH263378   2.124   3.765   2.893  0.1359 -0.0867 -0.0035
13988TIP3    H163379   2.109   3.819   2.816 -0.4257 -1.2328 -0.7088
13988TIP3    H263380   2.176   3.691   2.861  0.6320 -0.1288  0.8838
13989TIP3   OH263381   1.812   3.193  12.279 -0.1819  0.0064  0.2301
13989TIP3    H163382   1.864   3.191  12.198 -0.3361  1.1665  0.0905
13989TIP3    H263383   1.869   3.238  12.342 -0.1967 -0.5959  0.6759
13990TIP3   OH263384   6.087   3.989   4.615 -0.4381  0.2355 -0.1889
13990TIP3    H163385   6.066   4.072   4.659 -0.0414  0.3460 -0.2058
13990TIP3    H263386   6.007   3.966   4.568 -1.0936 -0.2387  1.1545
13991TIP3   OH263387   6.299   6.287  14.077 -0.0669 -0.7321 -0.2417
13991TIP3    H163388   6.342   6.272  13.993  0.4187 -0.0963 -0.1092
13991TIP3    H263389   6.276   6.380  14.076  0.8833 -0.4776  0.7664
13992TIP3   OH263390   1.150   0.265  15.440  0.2389  0.6287  0.0807
13992TIP3    H163391   1.082   0.333  15.438  1.5001  1.9005 -0.1118
13992TIP3    H263392   1.123   0.202  15.374 -1.6250  0.2646  1.1474
13993TIP3   OH263393   5.566   4.791  14.188  0.1028 -0.1164 -0.0579
13993TIP3    H163394   5.533   4.763  14.274  0.4922 -0.8388 -0.1429
13993TIP3    H263395   5.488   4.822  14.142 -0.1076  0.2897  0.5630
13994TIP3   OH263396   4.557   4.351   4.754 -0.2325  1.0462 -0.0154
13994TIP3    H163397   4.521   4.274   4.798  1.5090 -0.3113 -0.9296
13994TIP3    H263398   4.634   4.374   4.805  0.4857  0.8532 -1.0022
13995TIP3   OH263399   1.310   1.456   4.961  0.1518  0.7868 -0.2222
13995TIP3    H163400   1.302   1.521   5.031 -0.4505  0.3686  0.1038
13995TIP3    H263401   1.363   1.499   4.894  2.8829  0.3463  1.5352
13996TIP3   OH263402   6.193   5.234  13.159  0.1969  0.0360  0.2383
13996TIP3    H163403   6.263   5.173  13.133 -0.3928 -1.5381  2.2615
13996TIP3    H263404   6.223   5.271  13.242 -1.2289 -0.4276  0.9661
13997TIP3   OH263405   5.164   1.978  12.846 -0.2017  0.8235 -0.0517
13997TIP3    H163406   5.248   1.955  12.806 -1.5170 -2.6045 -1.0676
13997TIP3    H263407   5.105   1.992  12.772 -1.0409  1.0650  0.6510
13998TIP3   OH263408   6.513   6.169  14.419  0.6211 -0.3439  0.3246
13998TIP3    H163409   6.488   6.232  14.351 -2.7644 -1.7300  0.1824
13998TIP3    H263410   6.584   6.118  14.379 -0.6699 -0.5127 -1.8391
13999TIP3   OH263411   5.345   6.407   2.854 -0.1240  0.1199 -0.4723
13999TIP3    H163412   5.384   6.385   2.939  1.3001  0.2471 -1.0841
13999TIP3    H263413   5.417   6.401   2.792 -0.8258  1.5225 -1.4496
14000TIP3   OH263414   1.292   5.071   0.032 -0.4270 -0.1028 -0.4079
14000TIP3    H163415   1.309   4.990   0.079 -0.7492 -0.2104 -0.4763
14000TIP3    H263416   1.231   5.119   0.088  1.3020  0.9702  0.5833
14001TIP3   OH263417   0.393   3.806   4.690  0.2828  0.2492 -0.1866
14001TIP3    H163418   0.411   3.872   4.624  2.4177 -0.1347  0.0000
14001TIP3    H263419   0.407   3.851   4.774  0.4356 -0.0674 -0.0395
14002TIP3   OH263420   6.518   5.526  11.929  0.0204 -0.1064  0.5163
14002TIP3    H163421   6.483   5.456  11.985  0.0483 -0.8597 -0.3935
14002TIP3    H263422   6.519   5.488  11.841 -0.6331  1.2895 -0.1084
14003TIP3   OH263423   2.882   5.243   4.807  0.0277 -0.4160  0.0955
14003TIP3    H163424   2.911   5.166   4.757 -0.4597 -0.4620 -0.1155
14003TIP3    H263425   2.817   5.209   4.868 -0.7798 -0.0476 -0.5438
14004TIP3   OH263426   6.221   0.299  15.492  0.0695 -0.2130  0.4175
14004TIP3    H163427   6.291   0.238  15.469  1.5847  1.0458  1.5841
14004TIP3    H263428   6.141   0.254  15.465  1.3289 -1.4931 -1.3425
14005TIP3   OH263429   5.679   2.702   0.402 -0.6165  0.0878 -0.4152
14005TIP3    H163430   5.726   2.785   0.392 -1.1176  0.2267 -1.7259
14005TIP3    H263431   5.725   2.641   0.345 -0.8111 -0.2935 -0.1658
14006TIP3   OH263432   3.868   5.373  12.994 -0.3768 -0.2998  0.0080
14006TIP3    H163433   3.951   5.413  12.968 -0.7636  0.5385  0.0385
14006TIP3    H263434   3.888   5.280  13.004  0.2159 -0.3449 -1.4611
14007TIP3   OH263435   2.073   0.976  12.022 -0.1116 -0.4519  0.0478
14007TIP3    H163436   2.069   1.058  12.072 -1.8355 -0.9573  0.7580
14007TIP3    H263437   2.151   0.932  12.055  0.7019  0.7976 -0.1756
14008TIP3   OH263438   2.069   1.130   2.183 -0.2985 -0.2744  0.2972
14008TIP3    H163439   2.020   1.128   2.100 -1.3572  0.4510  0.8914
14008TIP3    H263440   2.104   1.041   2.192  0.7478 -0.0721 -1.4554
14009TIP3   OH263441   2.116   2.643  17.186 -0.0085 -0.4331 -0.3543
14009TIP3    H163442   2.196   2.680  17.223  0.2843 -0.9724 -0.4336
14009TIP3    H263443   2.078   2.714  17.135  0.2328 -0.0653 -0.0162
14010TIP3   OH263444   0.663   6.418   5.638 -0.0052 -0.2130  0.6189
14010TIP3    H163445   0.629   6.331   5.618 -1.3049  0.1751  1.1364
14010TIP3    H263446   0.683   6.416   5.731  3.0768 -0.9989 -0.0057
14011TIP3   OH263447   4.302   2.083  12.383  0.4213  0.1961  0.2285
14011TIP3    H163448   4.225   2.105  12.330 -0.8420 -0.7517  1.6551
14011TIP3    H263449   4.351   2.021  12.328 -1.7006 -2.0488  0.7634
14012TIP3   OH263450   4.847   1.577  11.043 -0.1689  0.5713 -0.3518
14012TIP3    H163451   4.931   1.557  11.086  0.0716  0.6012 -0.7986
14012TIP3    H263452   4.785   1.516  11.082  0.4154 -0.5885 -1.2238
14013TIP3   OH263453   2.628   1.883   5.003  0.1481 -0.3244  0.0166
14013TIP3    H163454   2.689   1.846   4.940  0.0049  0.7237 -0.7468
14013TIP3    H263455   2.572   1.941   4.952  0.8598  1.5387  1.2955
14014TIP3   OH263456   1.694   4.363   5.027 -0.4477  0.4140  0.2647
14014TIP3    H163457   1.778   4.405   5.007 -0.3631  0.9941  1.7647
14014TIP3    H263458   1.658   4.414   5.099 -2.7529  1.0174 -1.2441
14015TIP3   OH263459   5.958   3.479   1.827  0.2597  0.0291  0.3721
14015TIP3    H163460   5.992   3.555   1.780 -2.7421 -0.0719 -2.1642
14015TIP3    H263461   5.933   3.513   1.913  0.0810  1.6486 -0.3051
14016TIP3   OH263462   4.851   5.634   6.399  0.4457 -0.4970 -0.3910
14016TIP3    H163463   4.910   5.679   6.339 -0.7100  2.6749  0.7062
14016TIP3    H263464   4.859   5.682   6.482 -3.4877 -0.0202 -0.1532
14017TIP3   OH263465   3.659   6.638  15.850 -0.2884  0.1953 -0.0952
14017TIP3    H163466   3.721   6.688  15.904 -0.7059  2.8446 -1.9762
14017TIP3    H263467   3.610   6.585  15.913  0.5779  1.7030  1.9139
14018TIP3   OH263468   0.600   4.613   1.854  0.0553  0.4188  0.3573
14018TIP3    H163469   0.524   4.627   1.910  0.5377 -3.4583  2.1487
14018TIP3    H263470   0.609   4.518   1.849  1.8616  0.7078 -3.8819
14019TIP3   OH263471   4.898   5.708  14.136 -0.0292 -0.4209  0.5763
14019TIP3    H163472   4.818   5.665  14.167 -0.1056 -0.6610  0.0532
14019TIP3    H263473   4.949   5.637  14.096 -1.1238  0.3426 -2.2745
14020TIP3   OH263474   4.486   0.556  13.642 -0.6007  0.1806 -0.5005
14020TIP3    H163475   4.499   0.635  13.695  0.9038 -0.5497  0.2618
14020TIP3    H263476   4.406   0.517  13.675 -0.0342  0.0983  0.7913
14021TIP3   OH263477   2.945   6.280   6.380  0.2015  0.0354 -0.3232
14021TIP3    H163478   2.852   6.261   6.389 -0.0453  1.1042 -0.6085
14021TIP3    H263479   2.978   6.281   6.470 -0.0142 -0.5241 -0.2314
14022TIP3   OH263480   5.257   6.349  14.530  0.4075  0.7613  0.7695
14022TIP3    H163481   5.259   6.410  14.604 -0.1263  1.0533  0.5432
14022TIP3    H263482   5.346   6.352  14.494  0.9383 -0.0874  1.9748
14023TIP3   OH263483   1.137   2.398   2.928 -0.1374 -0.5816  0.2476
14023TIP3    H163484   1.170   2.346   2.854  1.1207  2.2033 -1.2468
14023TIP3    H263485   1.214   2.444   2.961 -1.0915 -0.1983  1.9822
14024TIP3   OH263486   5.519   3.411  12.711 -0.8181 -0.2928  0.2618
14024TIP3    H163487   5.499   3.395  12.619 -0.1133  0.3266 -0.0075
14024TIP3    H263488   5.506   3.326  12.754 -2.4620 -0.2705 -0.1640
14025TIP3   OH263489   5.576   0.472   2.414  0.4539  0.0107 -0.2919
14025TIP3    H163490   5.488   0.493   2.446  0.9021  2.8682 -0.8050
14025TIP3    H263491   5.619   0.431   2.488 -0.5017  0.9375  0.7994
14026TIP3   OH263492   1.426   6.293   4.131 -0.0990 -0.7914  0.3076
14026TIP3    H163493   1.435   6.311   4.038  1.9937 -2.2740  0.1799
14026TIP3    H263494   1.514   6.305   4.167 -0.5068 -1.9166  1.7635
14027TIP3   OH263495   4.293   1.131  15.136  0.2078  0.1042  0.7706
14027TIP3    H163496   4.244   1.194  15.188 -1.0003 -1.5670  1.7303
14027TIP3    H263497   4.227   1.069  15.105  1.4032 -0.9283  0.2050
14028TIP3   OH263498   2.981   6.218   4.430  0.4944 -0.6942  0.0109
14028TIP3    H163499   2.980   6.135   4.383  0.1646 -0.1913 -0.8775
14028TIP3    H263500   3.073   6.239   4.441  0.5762 -1.0862  0.0779
14029TIP3   OH263501   5.091   6.624   0.961 -0.5423 -0.5220  0.0600
14029TIP3    H163502   5.171   6.612   1.012 -0.6484 -0.4791  0.2381
14029TIP3    H263503   5.053   6.705   0.994 -0.5319 -0.4131 -0.1964
14030TIP3   OH263504   3.920   0.513  13.968  0.1193  0.2337  0.5040
14030TIP3    H163505   3.949   0.555  14.049 -1.6430  0.9017  0.7912
14030TIP3    H263506   3.899   0.424  13.994  0.4901  0.1651  0.5796
14031TIP3   OH263507   1.745   1.482  15.046 -0.2206 -0.3750 -0.3662
14031TIP3    H163508   1.686   1.413  15.077 -0.7861  0.6745  0.9550
14031TIP3    H263509   1.686   1.549  15.009  0.2110  0.1351 -0.1350
14032TIP3   OH263510   1.653   2.933  11.752 -0.2338 -0.6678 -0.2292
14032TIP3    H163511   1.704   2.852  11.745 -0.3712 -0.8007  0.3230
14032TIP3    H263512   1.664   2.975  11.666  3.6020  0.9778  0.9509
14033TIP3   OH263513   0.792   5.274   5.474  0.7705  0.3553  0.3064
14033TIP3    H163514   0.761   5.188   5.501  0.8361  0.6050  1.2128
14033TIP3    H263515   0.729   5.335   5.513  0.6756  0.7143 -0.4031
14034TIP3   OH263516   3.417   1.727  15.421 -0.4043 -0.4538 -0.8217
14034TIP3    H163517   3.424   1.760  15.331 -0.5013 -0.3011 -0.7730
14034TIP3    H263518   3.335   1.765  15.454 -0.4625 -0.6588 -0.7305
14035TIP3   OH263519   4.870   2.303   4.007  0.1700 -0.0491 -0.6041
14035TIP3    H163520   4.920   2.225   4.031 -0.0301  0.3104  1.0128
14035TIP3    H263521   4.866   2.355   4.087 -0.6167  1.1267 -1.3883
14036TIP3   OH263522   2.262   6.041   3.408  0.2022  0.4259  0.1295
14036TIP3    H163523   2.244   5.949   3.388 -0.4885  0.4795  0.4914
14036TIP3    H263524   2.356   6.046   3.420  0.2725 -0.1800 -0.1755
14037TIP3   OH263525   3.001   3.537   2.818 -0.1636 -0.0520 -0.1021
14037TIP3    H163526   2.997   3.447   2.785  0.6851  0.0252 -0.4240
14037TIP3    H263527   3.088   3.569   2.792 -0.0354  0.4986  0.9627
14038TIP3   OH263528   4.608   2.323   3.969  0.1388 -0.1141 -0.0959
14038TIP3    H163529   4.700   2.321   3.996 -0.0360 -0.4803  0.4715
14038TIP3    H263530   4.579   2.232   3.978 -1.1190  0.5011  2.5853
14039TIP3   OH263531   0.358   2.659  15.747  0.3632  0.0252  0.1355
14039TIP3    H163532   0.409   2.580  15.731  1.9414  1.2377 -0.9821
14039TIP3    H263533   0.324   2.683  15.660  0.8623  1.2009  0.2471
14040TIP3   OH263534   1.634   1.744  12.611  0.0264  0.4055 -0.0866
14040TIP3    H163535   1.568   1.681  12.639  0.7414 -0.1398  0.4079
14040TIP3    H263536   1.598   1.829  12.635 -1.6365  0.3147 -2.1260
14041TIP3   OH263537   4.623   2.730  11.228  0.1975  0.3489 -0.0822
14041TIP3    H163538   4.696   2.790  11.245 -2.4089  3.3929  0.9843
14041TIP3    H263539   4.615   2.728  11.133  0.9933  0.8855 -0.1662
14042TIP3   OH263540   6.032   2.003   0.087  0.3806 -0.0646  0.3625
14042TIP3    H163541   6.126   2.016   0.071  0.2702 -0.8317 -0.9764
14042TIP3    H263542   5.989   2.065   0.027  0.0151 -0.4929  0.1820
14043TIP3   OH263543   3.924   5.459  15.636  0.6340 -0.1171 -0.8896
14043TIP3    H163544   3.920   5.365  15.617  0.6357 -0.5707  1.2681
14043TIP3    H263545   4.017   5.479  15.640  0.6523 -0.4827  0.7654
14044TIP3   OH263546   3.456   2.500   2.456 -0.2005  0.8693  0.4949
14044TIP3    H163547   3.475   2.462   2.370  0.6029  3.2408 -0.4330
14044TIP3    H263548   3.372   2.543   2.445 -0.7853 -0.0581  1.3327
14045TIP3   OH263549   5.180   1.503  11.147  0.3447 -0.8354  1.0168
14045TIP3    H163550   5.169   1.413  11.118 -1.7791 -0.4587  0.5977
14045TIP3    H263551   5.244   1.540  11.086 -1.4953 -1.0323 -1.1175
14046TIP3   OH263552   6.705   5.352  10.911  0.3926  0.6167 -0.0754
14046TIP3    H163553   6.769   5.415  10.877  0.3711  0.6916  0.0226
14046TIP3    H263554   6.747   5.267  10.898  0.5198  0.6673  0.0038
14047TIP3   OH263555   5.557   0.841  15.185  0.2360 -0.0407 -0.4754
14047TIP3    H163556   5.578   0.754  15.151  2.0922 -0.0433  0.6333
14047TIP3    H263557   5.617   0.854  15.259  0.3988  2.4226 -0.9826
14048TIP3   OH263558   6.491   4.155  13.611 -0.2154 -0.7486  0.1974
14048TIP3    H163559   6.563   4.216  13.593  0.7176 -1.5831  0.9936
14048TIP3    H263560   6.526   4.070  13.585 -1.4388 -0.9698 -0.7297
14049TIP3   OH263561   3.298   5.778  11.799 -0.2259 -0.4500 -0.3625
14049TIP3    H163562   3.388   5.750  11.810 -0.4632 -0.9572  0.3274
14049TIP3    H263563   3.298   5.828  11.717  0.3305 -1.8585 -1.2258
14050TIP3   OH263564   5.574   4.769   0.891 -0.1411  0.6288 -0.1269
14050TIP3    H163565   5.631   4.830   0.844 -0.9119  1.4690  0.0217
14050TIP3    H263566   5.507   4.745   0.828 -0.1580  0.3699 -0.0111
14051TIP3   OH263567   2.126   6.466   0.482  0.5722  0.0920 -0.2186
14051TIP3    H163568   2.176   6.390   0.513 -2.5703 -2.7010 -1.6005
14051TIP3    H263569   2.180   6.502   0.411  1.7780 -1.3103 -0.0540
14052TIP3   OH263570   6.052   0.744   3.355 -0.3503  0.1338  0.1579
14052TIP3    H163571   6.033   0.653   3.380 -1.0430  0.1468 -0.3078
14052TIP3    H263572   6.140   0.759   3.388 -0.5872 -0.4017  1.0682
14053TIP3   OH263573   6.095   3.811   2.444 -0.4659  0.4513 -0.0210
14053TIP3    H163574   6.075   3.718   2.428  1.7460  0.0434 -0.6015
14053TIP3    H263575   6.166   3.810   2.507 -1.8407  1.8419  1.5932
14054TIP3   OH263576   2.132   2.300  15.764 -0.1439 -0.3078 -0.7111
14054TIP3    H163577   2.164   2.240  15.831  2.0939 -0.5846 -1.9811
14054TIP3    H263578   2.105   2.378  15.813 -0.4885 -1.2859  0.6888
14055TIP3   OH263579   3.937   5.501  16.695 -0.7383  0.6647 -0.1016
14055TIP3    H163580   3.882   5.490  16.618 -1.1179  1.2927  0.0778
14055TIP3    H263581   3.953   5.595  16.701 -1.5375  0.7405  1.1376
14056TIP3   OH263582   0.539   6.429  17.033  0.3256 -0.7135  0.2286
14056TIP3    H163583   0.622   6.409  17.075  0.0266 -2.3993  0.0679
14056TIP3    H263584   0.562   6.461  16.946  0.9256  2.2945  1.4538
14057TIP3   OH263585   1.896   1.639  14.891  0.7548 -0.5341  0.2131
14057TIP3    H163586   1.844   1.573  14.936  0.6273 -0.4990  0.1173
14057TIP3    H263587   1.930   1.594  14.813 -1.8759  0.3779 -1.5156
14058TIP3   OH263588   0.704   5.249  12.693 -0.8019  0.3316  0.5819
14058TIP3    H163589   0.652   5.188  12.744 -0.0493  0.9316  2.0891
14058TIP3    H263590   0.693   5.333  12.738 -2.2095  1.4237 -1.7293
14059TIP3   OH263591   0.436   0.762   2.796  0.2646 -0.4577 -0.1485
14059TIP3    H163592   0.471   0.689   2.745  0.8563  0.9346 -1.7922
14059TIP3    H263593   0.416   0.829   2.731 -1.8085  0.2498  1.1698
14060TIP3   OH263594   1.336   0.088   0.236 -0.1876 -0.1700  0.0592
14060TIP3    H163595   1.324   0.025   0.307  2.0142  0.2322  0.8241
14060TIP3    H263596   1.398   0.153   0.271  0.9620  0.0149 -2.2262
14061TIP3   OH263597   4.415   4.780   2.578 -0.2512  0.3764 -0.1149
14061TIP3    H163598   4.473   4.801   2.651  1.4934  0.0292 -1.3682
14061TIP3    H263599   4.417   4.684   2.573 -0.3285  0.4008 -0.6374
14062TIP3   OH263600   4.422   0.230   4.276 -0.1683 -0.6211 -0.4051
14062TIP3    H163601   4.514   0.251   4.289 -0.2783  0.8781 -1.8274
14062TIP3    H263602   4.422   0.167   4.203 -0.3650  0.7108 -1.5717
14063TIP3   OH263603   0.420   2.667   5.440 -0.3889  0.3797  0.0933
14063TIP3    H163604   0.357   2.651   5.370 -0.2799  1.3030 -0.2216
14063TIP3    H263605   0.501   2.690   5.395 -0.1086  0.2243  0.5136
14064TIP3   OH263606   2.568   6.127   1.810  0.1794 -0.0614  0.0330
14064TIP3    H163607   2.614   6.046   1.832  0.3984 -0.1363 -0.6724
14064TIP3    H263608   2.533   6.111   1.722 -1.3526 -0.0736  0.6350
14065TIP3   OH263609   3.183   3.310  13.835 -0.1169 -0.0492 -0.3006
14065TIP3    H163610   3.247   3.250  13.873  0.1800  0.4806  0.0441
14065TIP3    H263611   3.225   3.344  13.756 -0.6557 -0.9980 -1.0105
14066TIP3   OH263612   4.088   5.869  13.429  0.1234  0.0084  0.2755
14066TIP3    H163613   4.099   5.815  13.350 -1.6405 -1.0768  0.7647
14066TIP3    H263614   4.027   5.938  13.402  0.5111  0.3801  0.3427
14067TIP3   OH263615   6.162   6.160   3.546 -0.0248 -0.2985  0.2935
14067TIP3    H163616   6.127   6.141   3.459  2.1992 -3.1779 -0.0581
14067TIP3    H263617   6.089   6.142   3.605 -0.5433 -1.7449 -0.7470
14068TIP3   OH263618   6.666   1.160   1.836 -0.8316 -0.5592  0.2067
14068TIP3    H163619   6.631   1.093   1.896 -0.9596 -1.0957 -0.4608
14068TIP3    H263620   6.588   1.199   1.796 -0.6987 -1.4020 -0.8992
14069TIP3   OH263621   0.742   0.723  16.236 -0.4289  0.2897  0.5032
14069TIP3    H163622   0.801   0.798  16.235 -1.7507  1.3681  0.9205
14069TIP3    H263623   0.662   0.754  16.193 -1.8710 -0.0811  2.7837
14070TIP3   OH263624   0.720   6.715   0.191 -0.4335  0.1228 -0.0255
14070TIP3    H163625   0.650   6.773   0.164  1.4781  2.6592  0.3105
14070TIP3    H263626   0.800   6.764   0.175  1.2234 -2.2497  0.6820
14071TIP3   OH263627   0.722   3.475  13.279 -0.6084  0.7749 -0.2902
14071TIP3    H163628   0.756   3.386  13.271 -2.5631  0.1620 -2.6804
14071TIP3    H263629   0.774   3.527  13.217 -0.9907  0.7981 -0.5961
14072TIP3   OH263630   2.662   1.400   0.743  0.0792 -0.3291 -0.2879
14072TIP3    H163631   2.660   1.305   0.748 -1.4574 -0.2816  0.2958
14072TIP3    H263632   2.663   1.429   0.835  1.2490  0.2135 -0.4623
14073TIP3   OH263633   2.544   1.282   2.342  0.0508 -0.0618  0.4701
14073TIP3    H163634   2.585   1.212   2.292  0.5084 -0.0850  0.8736
14073TIP3    H263635   2.454   1.285   2.310 -0.2656 -1.5253  1.1763
14074TIP3   OH263636   4.879   3.792   2.069 -0.3820  0.7601 -0.2505
14074TIP3    H163637   4.837   3.818   2.151  0.1324  0.3735  0.1379
14074TIP3    H263638   4.905   3.874   2.028  0.4000  0.9061  0.5237
14075TIP3   OH263639   1.081   1.098  12.138  0.2507  0.8035  0.0817
14075TIP3    H163640   1.163   1.142  12.117  0.1093  0.7543 -0.5908
14075TIP3    H263641   1.060   1.127  12.227  1.0613  0.7115  0.3067
14076TIP3   OH263642   2.126   2.117  12.537 -0.2447  0.2749 -0.5220
14076TIP3    H163643   2.095   2.027  12.525 -0.1852 -0.1721  2.2801
14076TIP3    H263644   2.051   2.162  12.577  0.3438  0.9941 -0.2260
14077TIP3   OH263645   6.711   1.786   3.522  0.3698 -0.1603 -0.2877
14077TIP3    H163646   6.688   1.709   3.574 -3.8615  1.1574  0.0153
14077TIP3    H263647   6.770   1.836   3.578  0.0743 -1.3413  1.1078
14078TIP3   OH263648   1.990   4.596  12.355  0.4971 -0.0580 -0.5197
14078TIP3    H163649   1.974   4.609  12.448 -0.0434  0.7699 -0.7170
14078TIP3    H263650   2.057   4.661  12.333  1.3444 -0.9191 -0.5026
14079TIP3   OH263651   2.988   1.815  12.795 -0.5792  0.2022  0.2261
14079TIP3    H163652   2.961   1.801  12.885 -2.9127 -2.4111 -0.8127
14079TIP3    H263653   3.021   1.730  12.766  0.3197  1.0571 -1.3226
14080TIP3   OH263654   1.785   2.777   5.616 -0.7518  0.9569  0.1319
14080TIP3    H163655   1.743   2.809   5.536  0.3331 -2.0368 -1.7581
14080TIP3    H263656   1.736   2.697   5.638  1.5280 -0.5256  0.0253
14081TIP3   OH263657   5.379   1.053   2.815  0.2447  0.2894 -0.0884
14081TIP3    H163658   5.292   1.052   2.775 -0.0628 -1.9465  0.6081
14081TIP3    H263659   5.438   1.070   2.742 -0.3892 -2.9581 -1.4446
14082TIP3   OH263660   1.277   3.491   0.650  0.1167 -0.5700 -0.5270
14082TIP3    H163661   1.225   3.563   0.686  0.5008 -0.2057 -0.6937
14082TIP3    H263662   1.215   3.419   0.642 -0.3208 -0.1972 -0.5455
14083TIP3   OH263663   2.994   0.761   2.798 -0.1428 -0.2756 -0.1375
14083TIP3    H163664   3.019   0.746   2.889 -1.4785  2.2217  0.6905
14083TIP3    H263665   3.040   0.842   2.774 -0.7813 -0.2443 -1.2784
14084TIP3   OH263666   2.687   2.412  11.515  0.8192  0.0988 -0.5752
14084TIP3    H163667   2.737   2.352  11.460  0.1114 -0.1139 -1.0025
14084TIP3    H263668   2.741   2.426  11.592 -0.2041 -3.3090  0.8491
14085TIP3   OH263669   4.572   4.740   0.252 -0.6701  0.2040  0.6485
14085TIP3    H163670   4.644   4.679   0.268  0.6656  1.5661 -0.0628
14085TIP3    H263671   4.535   4.757   0.338 -0.0215 -0.3458  1.0428
14086TIP3   OH263672   1.144   1.223  11.549 -0.6642  0.6216  0.1623
14086TIP3    H163673   1.229   1.268  11.541 -0.3654  0.6321  2.7997
14086TIP3    H263674   1.151   1.147  11.492  1.1293  0.6698  0.2908
14087TIP3   OH263675   0.065   4.485  11.059 -0.7563 -0.3388 -0.3285
14087TIP3    H163676   0.068   4.552  11.127 -2.2912  0.9027 -1.4457
14087TIP3    H263677   0.156   4.459  11.047 -0.2410  0.9264  0.7181
14088TIP3   OH263678   2.988   5.062   3.596  0.5178  0.8333 -0.1935
14088TIP3    H163679   3.028   5.020   3.673 -2.0875 -0.7147  0.3654
14088TIP3    H263680   2.903   5.094   3.628 -0.2296  0.9181 -2.2298
14089TIP3   OH263681   5.532   3.700   0.002  0.0136 -0.1000 -0.1691
14089TIP3    H163682   5.453   3.653  -0.024 -1.4080  0.6069  2.6745
14089TIP3    H263683   5.590   3.633   0.036  0.2089 -0.4817 -1.2424
14090TIP3   OH263684   4.890   3.497  17.067 -0.1689  0.5875  0.1058
14090TIP3    H163685   4.822   3.442  17.107  0.8890 -1.5524 -0.9581
14090TIP3    H263686   4.908   3.563  17.134  0.4871 -2.0117  2.6350
14091TIP3   OH263687   5.104   3.777   1.285  0.1319 -0.9371 -0.2748
14091TIP3    H163688   5.055   3.813   1.211 -1.5147 -0.7804  0.8818
14091TIP3    H263689   5.101   3.682   1.271 -1.6380 -1.0065  0.4866
14092TIP3   OH263690   0.173   1.997   4.894  0.7972 -0.3367 -0.2235
14092TIP3    H163691   0.253   2.025   4.940 -0.0778 -0.5137  1.4662
14092TIP3    H263692   0.128   2.078   4.872  0.7152 -0.2734  0.1736
14093TIP3   OH263693   5.641   4.780  13.478 -0.6445  0.1311  0.0775
14093TIP3    H163694   5.700   4.748  13.410  0.8961 -0.6938  1.7496
14093TIP3    H263695   5.652   4.875  13.477  1.2993 -0.0588  0.8473
14094TIP3   OH263696   0.387   6.449   5.764  0.8583 -0.2399  0.0658
14094TIP3    H163697   0.438   6.428   5.843  2.2311 -0.0997 -0.7675
14094TIP3    H263698   0.325   6.376   5.756  1.2692 -0.6847  0.8070
14095TIP3   OH263699   2.736   3.720  16.690 -0.4807  0.2944 -0.6115
14095TIP3    H163700   2.769   3.746  16.776 -0.7279 -1.3063 -0.0126
14095TIP3    H263701   2.767   3.630  16.679  0.0812  0.6973 -2.4787
14096TIP3   OH263702   3.728   3.634  12.976  0.7086  0.3902 -0.3980
14096TIP3    H163703   3.651   3.682  13.006  1.2563  1.3213 -0.4718
14096TIP3    H263704   3.715   3.623  12.882 -0.2246 -1.1055 -0.1234
14097TIP3   OH263705   4.030   5.686  12.490 -0.2168  0.1630  0.0549
14097TIP3    H163706   4.066   5.775  12.488  1.7595 -0.6310 -1.5293
14097TIP3    H263707   4.004   5.669  12.400 -0.1973 -1.0141  0.2649
14098TIP3   OH263708   2.921   2.884   0.507  0.3783 -0.0819 -0.0011
14098TIP3    H163709   2.842   2.923   0.543  0.4508  1.0140 -1.0244
14098TIP3    H263710   2.890   2.831   0.433  0.5634  0.1567 -0.2527
14099TIP3   OH263711   2.880   1.893  12.468 -0.1571 -0.3269  0.0094
14099TIP3    H163712   2.843   1.825  12.523 -1.7423 -0.6719 -1.4514
14099TIP3    H263713   2.806   1.927  12.418  0.8184  1.6312 -0.1866
14100TIP3   OH263714   4.763   1.969  17.022 -0.6513 -0.4223  0.1559
14100TIP3    H163715   4.840   1.936  17.067  1.1375 -0.0758 -2.5561
14100TIP3    H263716   4.767   2.064  17.034 -1.0698 -0.4640  0.6400
14101TIP3   OH263717   4.282   5.664  13.494  0.0568  0.1599  0.1926
14101TIP3    H163718   4.239   5.747  13.473 -1.6092 -0.2327  1.9123
14101TIP3    H263719   4.332   5.643  13.415 -1.1424  1.7629 -1.0491
14102TIP3   OH263720   4.725   5.787  16.422 -0.2569 -0.2712  0.2962
14102TIP3    H163721   4.646   5.840  16.432  0.3232  0.6424  0.1283
14102TIP3    H263722   4.785   5.819  16.489 -0.0028 -0.9062  0.3749
14103TIP3   OH263723   4.216   6.334  11.909 -0.2040 -0.1790  0.0428
14103TIP3    H163724   4.125   6.356  11.932 -0.8675 -0.7850 -1.9276
14103TIP3    H263725   4.210   6.294  11.823  1.8603 -1.0440  0.2763
14104TIP3   OH263726   0.269   5.371  17.187  0.4368 -0.1777 -0.1460
14104TIP3    H163727   0.349   5.325  17.215 -0.3496 -1.0768  0.6681
14104TIP3    H263728   0.211   5.301  17.155 -0.9169  0.1944  1.4334
14105TIP3   OH263729   6.112   3.987   4.232  0.4163  0.1481  0.2602
14105TIP3    H163730   6.128   4.077   4.205  1.4855 -0.6923 -2.0442
14105TIP3    H263731   6.028   3.964   4.191  0.7653 -0.2898 -0.2194
14106TIP3   OH263732   0.292   0.588  16.896 -0.5377  0.9384  0.2308
14106TIP3    H163733   0.237   0.511  16.878 -0.2770  0.9753 -0.7517
14106TIP3    H263734   0.327   0.572  16.983  1.6215 -1.3674 -0.9673
14107TIP3   OH263735   0.356   3.420   2.180 -0.2665  0.1615 -0.5576
14107TIP3    H163736   0.410   3.398   2.256  0.3271  0.3733 -0.9132
14107TIP3    H263737   0.267   3.424   2.214  0.2425  2.4790  0.5908
14108TIP3   OH263738   5.131   6.109  12.039 -0.3137  0.1784  0.3265
14108TIP3    H163739   5.101   6.020  12.056  1.9947 -0.6270  0.3160
14108TIP3    H263740   5.176   6.104  11.955 -0.8517  1.5336 -0.0593
14109TIP3   OH263741   2.409   1.477  16.911  0.5379 -0.4086 -0.5970
14109TIP3    H163742   2.435   1.446  16.998  0.1612  0.3986 -0.1947
14109TIP3    H263743   2.315   1.461  16.907  0.5361 -0.3426 -0.8151
14110TIP3   OH263744   2.270   4.051  16.214 -0.1919 -0.2451  0.4954
14110TIP3    H163745   2.258   4.075  16.306 -0.5296  0.3141  0.3069
14110TIP3    H263746   2.197   4.093  16.169  1.4047  1.6192 -0.4134
14111TIP3   OH263747   2.112   0.244   2.507 -0.0842 -0.7053  0.0172
14111TIP3    H163748   2.065   0.171   2.468  0.8501 -1.9451  1.1486
14111TIP3    H263749   2.069   0.259   2.591  0.6332 -0.9069  0.4272
14112TIP3   OH263750   4.207   6.471  12.415 -0.2441 -0.2807  0.1607
14112TIP3    H163751   4.249   6.554  12.394 -0.5684  0.0963  0.9944
14112TIP3    H263752   4.116   6.494  12.433 -0.3915 -0.8520  0.1441
14113TIP3   OH263753   5.111   1.502  15.749 -0.0721  0.0888  0.2524
14113TIP3    H163754   5.197   1.495  15.708  0.2623  0.0849  0.9402
14113TIP3    H263755   5.088   1.595  15.743  0.1649  0.1586  0.4360
14114TIP3   OH263756   5.165   6.146   0.200 -0.1958  0.9387  0.5101
14114TIP3    H163757   5.192   6.055   0.213 -0.9924  0.1638 -2.8269
14114TIP3    H263758   5.077   6.151   0.237 -1.0535 -0.2550 -1.3574
14115TIP3   OH263759   0.186   3.899   2.492  0.4730  0.2404  0.1926
14115TIP3    H163760   0.179   3.804   2.491  0.7230  0.2214 -1.3518
14115TIP3    H263761   0.277   3.917   2.467  0.6843  0.8628  1.3975
14116TIP3   OH263762   1.025   4.468   2.014  0.3395 -0.1290 -0.1616
14116TIP3    H163763   1.107   4.425   2.037  0.9914  0.9156 -0.4607
14116TIP3    H263764   0.988   4.494   2.098  1.7895  2.0041 -0.1199
14117TIP3   OH263765   3.372   4.724   6.345 -0.2550  0.1737  0.4299
14117TIP3    H163766   3.366   4.658   6.414 -0.3736 -0.6466 -0.3510
14117TIP3    H263767   3.458   4.711   6.305 -0.7869 -0.3694 -0.5665
14118TIP3   OH263768   6.659   0.457   2.450  0.4930  0.4261 -0.1778
14118TIP3    H163769   6.727   0.408   2.403 -0.5299 -1.1218 -0.0760
14118TIP3    H263770   6.692   0.464   2.539  2.2077  2.9301 -0.9466
14119TIP3   OH263771   2.399   1.344  16.084 -0.0523 -0.3914  1.2586
14119TIP3    H163772   2.450   1.311  16.158  1.7419  0.0763  0.2609
14119TIP3    H263773   2.449   1.317  16.007 -0.7047  1.1064  0.2996
14120TIP3   OH263774   6.769   4.601  13.462  0.1740  0.7731  0.4952
14120TIP3    H163775   6.743   4.684  13.501 -2.3027 -0.1242  0.8111
14120TIP3    H263776   6.803   4.550  13.536 -0.6992  0.5716  0.7627
14121TIP3   OH263777   2.681   6.238   6.393 -0.0439 -0.2451 -0.4887
14121TIP3    H163778   2.672   6.168   6.328 -1.3499 -0.8668  0.3361
14121TIP3    H263779   2.606   6.295   6.377  0.2004  0.1609 -0.1940
14122TIP3   OH263780   1.053   1.897  13.618  0.3419 -0.2431 -0.0295
14122TIP3    H163781   1.068   1.809  13.582 -0.9691 -0.7552  0.6404
14122TIP3    H263782   1.070   1.956  13.545 -0.4441 -1.1687 -0.9863
14123TIP3   OH263783   0.863   5.808   1.072  0.0590 -0.0187 -0.2875
14123TIP3    H163784   0.799   5.868   1.033 -1.2325  0.6406  2.6671
14123TIP3    H263785   0.917   5.864   1.127  0.1967 -1.2625  0.8576
14124TIP3   OH263786   1.701   4.619  15.825 -0.1028 -0.2414 -0.5901
14124TIP3    H163787   1.703   4.715  15.823 -0.1838 -0.2435 -0.8722
14124TIP3    H263788   1.781   4.593  15.780 -0.7497 -0.3037 -1.7352
14125TIP3   OH263789   1.360   5.533  14.279 -0.3810  0.2932  0.1563
14125TIP3    H163790   1.274   5.510  14.314 -0.5146  1.9188  0.9736
14125TIP3    H263791   1.345   5.614  14.230  0.5258  0.1232 -0.4121
14126TIP3   OH263792   3.961   3.786  11.146  0.3605  0.4179  0.7313
14126TIP3    H163793   3.875   3.762  11.111  0.9936  1.4290 -1.6170
14126TIP3    H263794   3.999   3.845  11.080  3.8310 -1.8604  0.5515
14127TIP3   OH263795   3.999   6.469   4.251 -0.0613 -0.2019  0.7526
14127TIP3    H163796   4.071   6.436   4.305  0.5080  0.4023  0.3584
14127TIP3    H263797   4.040   6.531   4.191 -1.0437  0.8084  1.1109
14128TIP3   OH263798   6.452   6.681   0.632 -0.1811  0.3092  0.8036
14128TIP3    H163799   6.407   6.702   0.714  0.9145  1.5268  1.0984
14128TIP3    H263800   6.413   6.740   0.568  0.2639  0.6428  0.8395
14129TIP3   OH263801   3.882   4.846   3.225 -0.2154 -0.0342  0.0142
14129TIP3    H163802   3.950   4.783   3.251  0.5059  0.0288 -1.6024
14129TIP3    H263803   3.813   4.835   3.289  1.0738 -0.5391  1.3516
14130TIP3   OH263804   4.192   3.961   1.060  0.2625 -0.1484 -0.3489
14130TIP3    H163805   4.147   4.018   0.997 -0.9774 -0.5267  0.1799
14130TIP3    H263806   4.281   3.994   1.063  0.2166  0.1713 -1.9609
14131TIP3   OH263807   6.775   2.659   6.121  1.2712 -0.4016 -0.4264
14131TIP3    H163808   6.855   2.647   6.071  2.8671  0.0912  1.9301
14131TIP3    H263809   6.793   2.735   6.177 -0.9732 -0.0634 -0.1109
14132TIP3   OH263810   1.415   5.763  14.480  0.0384  0.5294  0.3580
14132TIP3    H163811   1.389   5.828  14.414  0.8047  0.7152  0.2281
14132TIP3    H263812   1.398   5.679  14.439 -0.5673  0.6468  0.3627
14133TIP3   OH263813   0.488   5.090   4.969  0.2522 -0.0096  0.0610
14133TIP3    H163814   0.492   5.185   4.955  0.7095 -0.3492 -2.2889
14133TIP3    H263815   0.560   5.073   5.031 -1.4242  1.4683  2.5200
14134TIP3   OH263816   3.601   2.287  16.412 -0.4329 -0.2243  0.9094
14134TIP3    H163817   3.661   2.362  16.419  0.9337 -1.1044 -0.8861
14134TIP3    H263818   3.527   2.310  16.468  1.2655  1.2049  2.6304
14135TIP3   OH263819   0.629   3.853   2.970  0.2212  0.3219  0.0702
14135TIP3    H163820   0.617   3.931   3.023  0.1203 -0.6554  1.5003
14135TIP3    H263821   0.544   3.807   2.975  1.2527 -1.4685  1.8592
14136TIP3   OH263822   4.978   0.442   0.426 -0.1123 -0.0900 -0.2403
14136TIP3    H163823   4.915   0.371   0.425  0.5446 -0.6802 -0.1690
14136TIP3    H263824   4.963   0.486   0.510  0.5506 -1.1334  0.4428
14137TIP3   OH263825   3.613   3.806   0.025 -0.1055 -0.0842  0.0594
14137TIP3    H163826   3.640   3.898   0.021  0.3831 -0.2894 -1.6725
14137TIP3    H263827   3.569   3.791  -0.059 -0.3210 -1.3931  0.4060
14138TIP3   OH263828   5.149   6.171   1.333 -0.3334 -0.1162  0.9724
14138TIP3    H163829   5.081   6.201   1.393  0.9190 -0.1077  2.4152
14138TIP3    H263830   5.211   6.125   1.389  0.8031 -0.2096 -0.3478
14139TIP3   OH263831   4.015   0.330   3.250 -0.0180 -0.0466 -0.0492
14139TIP3    H163832   3.965   0.320   3.331 -0.5183  1.5481 -0.1529
14139TIP3    H263833   4.101   0.292   3.271  0.5686  2.2478  1.9395
14140TIP3   OH263834   1.626   1.312  14.792 -0.2108  0.8691 -0.4533
14140TIP3    H163835   1.706   1.258  14.794  0.2848  1.5248 -1.7823
14140TIP3    H263836   1.649   1.386  14.736 -1.1291  2.0850  0.7473
14141TIP3   OH263837   2.492   6.237   0.778 -0.0704  0.4376 -0.0425
14141TIP3    H163838   2.517   6.146   0.798  1.9396  1.3145  1.6891
14141TIP3    H263839   2.396   6.236   0.778 -0.0720 -1.7422 -0.2921
14142TIP3   OH263840   6.625   1.562   5.133 -0.5962  0.3831 -0.5556
14142TIP3    H163841   6.597   1.528   5.218 -0.2031 -2.1906 -1.3920
14142TIP3    H263842   6.699   1.618   5.153  1.0749 -2.1488  0.6267
14143TIP3   OH263843   6.089   3.896   3.850 -0.5117 -0.7336 -0.8286
14143TIP3    H163844   6.067   3.983   3.816  1.9049  1.0791  2.0040
14143TIP3    H263845   6.041   3.890   3.933  0.3070 -1.6017 -0.4054
14144TIP3   OH263846   1.569   0.143   3.233 -0.8180  0.1735  0.1910
14144TIP3    H163847   1.539   0.121   3.321 -0.3821  1.1293  0.5856
14144TIP3    H263848   1.540   0.233   3.219 -0.1663  0.3110 -0.3142
14145TIP3   OH263849   5.609   4.373  12.812 -0.3389  0.0713 -0.7442
14145TIP3    H163850   5.661   4.445  12.848 -0.1769  0.2838 -1.3851
14145TIP3    H263851   5.668   4.331  12.748 -1.4401  1.2450 -2.5901
14146TIP3   OH263852   4.219   1.226  11.643 -0.1309 -0.0177 -0.7407
14146TIP3    H163853   4.144   1.185  11.601  0.5715 -1.5876 -0.5025
14146TIP3    H263854   4.266   1.270  11.571  0.1722 -1.2918 -1.3270
14147TIP3   OH263855   3.761   1.612   3.655 -0.2673  0.0199  0.3757
14147TIP3    H163856   3.715   1.531   3.675 -0.3355 -0.1309 -0.3694
14147TIP3    H263857   3.823   1.588   3.586  0.4404  0.3700  0.8868
14148TIP3   OH263858   0.034   3.973  13.001  0.1156 -0.1672 -0.1530
14148TIP3    H163859   0.012   3.880  13.006  1.6106 -0.6737 -2.2779
14148TIP3    H263860  -0.050   4.019  13.011 -0.4783 -1.6931  2.0224
14149TIP3   OH263861   1.329   4.540  16.519  0.2388 -0.5155  0.3881
14149TIP3    H163862   1.243   4.572  16.550  0.6970 -0.8942  2.1415
14149TIP3    H263863   1.308   4.475  16.452 -0.8214  0.2357 -0.0147
14150TIP3   OH263864   5.705   3.591  12.841  0.3659  0.2859 -0.0463
14150TIP3    H163865   5.619   3.566  12.809 -0.0862 -0.1242  1.4595
14150TIP3    H263866   5.719   3.536  12.918  0.4482  2.8342  1.8197
14151TIP3   OH263867   2.872   6.371   5.426  0.1710 -0.1199  0.0241
14151TIP3    H163868   2.821   6.304   5.381 -0.8629 -0.0631  1.0870
14151TIP3    H263869   2.862   6.350   5.519 -0.7498  1.9188  0.4101
14152TIP3   OH263870   1.300   3.012  11.197 -0.5726  0.2279  0.1864
14152TIP3    H163871   1.319   3.055  11.281  0.0294  0.7146 -0.1955
14152TIP3    H263872   1.331   3.074  11.131  0.4781 -0.8638 -0.3642
14153TIP3   OH263873   4.823   3.035  13.799  0.0900  0.1117  0.2019
14153TIP3    H163874   4.762   3.022  13.726  0.6515  0.9975 -0.4320
14153TIP3    H263875   4.866   2.950  13.809 -1.2192 -0.5149  0.6381
14154TIP3   OH263876   2.024   4.907   4.767  0.3106 -0.5211 -0.2478
14154TIP3    H163877   2.048   4.972   4.700  1.9773  0.3413  1.1449
14154TIP3    H263878   1.938   4.877   4.740  0.5040  0.5642 -2.2289
14155TIP3   OH263879   1.481   2.362  13.068  0.4102  0.1003  0.1335
14155TIP3    H163880   1.461   2.301  12.997  1.5491  0.1748 -0.2496
14155TIP3    H263881   1.503   2.444  13.024 -2.5271  1.2567  0.6705
14156TIP3   OH263882   4.199   3.025  12.691  0.2111  0.6912 -0.1336
14156TIP3    H163883   4.107   3.050  12.682  0.2039  1.7213  2.3627
14156TIP3    H263884   4.196   2.938  12.729  0.2943  0.0923 -1.4499
14157TIP3   OH263885   0.085   2.438  17.133 -0.1382  0.0460 -0.2808
14157TIP3    H163886   0.033   2.517  17.115  1.4224  0.9958 -0.6622
14157TIP3    H263887   0.067   2.419  17.225  0.2432  1.4291  0.0929
14158TIP3   OH263888   5.118   0.022  14.608 -0.0801 -0.0960  0.3498
14158TIP3    H163889   5.208   0.028  14.576 -0.2915 -1.8221 -0.6569
14158TIP3    H263890   5.091   0.112  14.623  1.6988  0.4490  0.3030
14159TIP3   OH263891   3.425   3.244  13.958 -0.2212  0.0972 -0.7320
14159TIP3    H163892   3.442   3.338  13.968  2.8759 -0.5399  0.6024
14159TIP3    H263893   3.389   3.217  14.043  1.5333 -0.4262 -0.1409
14160TIP3   OH263894   0.652   5.233  11.358 -0.5021  0.0228  0.6368
14160TIP3    H163895   0.632   5.173  11.286  1.7071 -0.3782  0.3406
14160TIP3    H263896   0.625   5.185  11.437 -1.0734 -0.3324  0.2357
14161TIP3   OH263897   1.454   3.575  15.635  0.4108 -0.4550  0.3497
14161TIP3    H163898   1.367   3.545  15.608  0.6593 -0.8910  0.0476
14161TIP3    H263899   1.515   3.514  15.594  0.9397  0.7429 -0.6726
14162TIP3   OH263900   0.669   0.650  15.921 -0.2493 -0.7156 -0.2540
14162TIP3    H163901   0.735   0.718  15.934  0.5563 -1.4117 -0.6309
14162TIP3    H263902   0.617   0.651  16.002  0.6019 -0.5670  0.2998
14163TIP3   OH263903   3.443   4.891   3.677 -0.1659 -0.1845 -0.3515
14163TIP3    H163904   3.486   4.974   3.659 -0.5093 -0.2301 -1.3792
14163TIP3    H263905   3.505   4.825   3.648 -0.6087 -0.2611 -1.1262
14164TIP3   OH263906   1.998   1.915   1.605  0.2147 -1.1581  0.1804
14164TIP3    H163907   2.000   1.856   1.530  0.9352 -2.1199  0.9462
14164TIP3    H263908   1.980   1.859   1.680 -1.9646 -0.0085  0.5580
14165TIP3   OH263909   3.532   6.642   0.461  0.1564  0.2341 -0.0521
14165TIP3    H163910   3.464   6.632   0.527  1.9735  0.7522  1.9528
14165TIP3    H263911   3.491   6.614   0.379 -1.3762 -2.8545  1.7104
14166TIP3   OH263912   1.665   1.662   2.200 -0.0810 -0.3915  0.6509
14166TIP3    H163913   1.598   1.594   2.207  0.1307 -0.5507  1.1335
14166TIP3    H263914   1.735   1.634   2.259 -0.8183  1.2067  2.3601
14167TIP3   OH263915   2.569   2.054   2.364 -0.1634  0.5027  1.1666
14167TIP3    H163916   2.592   2.118   2.297 -0.1072 -0.5917  0.1260
14167TIP3    H263917   2.629   2.072   2.437  1.8346 -0.2571 -0.2587
14168TIP3   OH263918   3.093   5.836  12.427  0.9860  0.3605  0.0165
14168TIP3    H163919   3.166   5.806  12.481 -0.6487 -0.3097  1.8840
14168TIP3    H263920   3.029   5.765  12.430 -0.3748  1.5447 -0.3926
14169TIP3   OH263921   1.114   6.126   3.406 -0.4489  0.3444 -0.3717
14169TIP3    H163922   1.204   6.154   3.392 -1.0629  0.7113 -3.9004
14169TIP3    H263923   1.061   6.201   3.379 -1.8542  0.0869  1.5403
14170TIP3   OH263924   3.234   2.008  12.524 -0.3189  0.0610 -0.5110
14170TIP3    H163925   3.201   2.012  12.614  1.3629 -1.0337  0.1803
14170TIP3    H263926   3.275   2.093  12.509  2.6647 -1.0218  1.0969
14171TIP3   OH263927   0.094   1.137  12.747 -0.3149  0.3937 -0.0876
14171TIP3    H163928   0.158   1.202  12.775  0.8702 -0.1503 -1.4933
14171TIP3    H263929   0.082   1.153  12.654 -3.1243  1.2320  0.3578
14172TIP3   OH263930   4.771   0.069  17.044  0.1036 -0.5388 -0.6207
14172TIP3    H163931   4.792  -0.010  17.094  2.0859  1.0420  1.1203
14172TIP3    H263932   4.821   0.061  16.964 -0.4262 -1.4705 -0.8731
14173TIP3   OH263933   2.131   6.057  11.454 -0.0201  0.4769  0.3980
14173TIP3    H163934   2.208   6.003  11.435 -1.6355 -1.2175 -1.6406
14173TIP3    H263935   2.155   6.145  11.423  1.0421 -0.0768 -0.3858
14174TIP3   OH263936   5.254   1.179   1.706 -0.1675  0.0901  0.3926
14174TIP3    H163937   5.235   1.115   1.775 -1.4206 -0.6020 -0.5885
14174TIP3    H263938   5.315   1.241   1.748 -0.7089 -0.4583  2.0388
14175TIP3   OH263939   1.937   4.438  15.847  0.2625  0.0244  0.5560
14175TIP3    H163940   1.970   4.509  15.903  1.3645  0.0170 -0.0780
14175TIP3    H263941   1.958   4.467  15.758  1.3333 -1.4107  0.3331
14176TIP3   OH263942   5.668   3.392  15.679 -0.0238  0.7419  0.3137
14176TIP3    H163943   5.584   3.435  15.693  0.6138  2.3590 -0.7381
14176TIP3    H263944   5.732   3.463  15.676  0.9969 -0.2206 -1.8755
14177TIP3   OH263945   1.612   2.046  14.432 -0.3320 -0.7637 -0.3817
14177TIP3    H163946   1.565   2.099  14.495 -1.4931  0.1779 -2.0226
14177TIP3    H263947   1.661   2.108  14.378  1.7609 -1.6368  0.4278
14178TIP3   OH263948   0.640   4.073   4.823  0.2298  0.3290  0.0581
14178TIP3    H163949   0.632   4.137   4.753  0.4016 -0.2403 -0.4852
14178TIP3    H263950   0.573   4.098   4.887  0.2478  1.0005 -0.1856
14179TIP3   OH263951   3.751   6.321  11.539  0.5062  0.4390 -0.2366
14179TIP3    H163952   3.666   6.362  11.557  0.3747 -0.4638  1.1992
14179TIP3    H263953   3.781   6.289  11.623  3.1026  2.2725 -0.3985
14180TIP3   OH263954   6.173   1.602   3.891  0.2890  0.0997  0.3247
14180TIP3    H163955   6.139   1.519   3.857  0.8698 -0.1299  0.2888
14180TIP3    H263956   6.268   1.589   3.895  0.3530  0.6400  0.6566
14181TIP3   OH263957   6.248   3.304  14.144  0.7161 -0.6680  0.8042
14181TIP3    H163958   6.154   3.300  14.127  0.9455 -0.1423 -0.6566
14181TIP3    H263959   6.276   3.213  14.145  0.4243 -0.7686 -0.1025
14182TIP3   OH263960   1.270   5.372   0.579  0.1677 -0.5932  0.6035
14182TIP3    H163961   1.293   5.462   0.599  2.7096 -1.0722 -0.0328
14182TIP3    H263962   1.203   5.349   0.644  1.1040  1.0207  2.1605
14183TIP3   OH263963   6.364   3.506   1.293 -0.0365 -0.0409  0.3189
14183TIP3    H163964   6.377   3.588   1.340 -0.3968 -0.3022  0.8749
14183TIP3    H263965   6.449   3.461   1.299  0.5586  0.8522 -1.0974
14184TIP3   OH263966   0.888   2.008   5.781  0.4821  0.5497  0.1203
14184TIP3    H163967   0.954   2.039   5.842  1.5858  1.6561 -1.5790
14184TIP3    H263968   0.929   1.933   5.738 -0.3706 -0.3631  0.8771
14185TIP3   OH263969   3.974   6.576   1.257 -0.2846 -0.3783 -0.2359
14185TIP3    H163970   4.001   6.486   1.277  2.9435 -0.1380 -3.1044
14185TIP3    H263971   4.029   6.630   1.314  0.1643 -0.1250 -0.9050
14186TIP3   OH263972   4.951   3.962   3.962  0.1556 -0.3394  0.2126
14186TIP3    H163973   5.007   4.016   4.017  0.3875 -1.2816  0.9319
14186TIP3    H263974   4.907   4.023   3.903  1.2221  0.4983  0.2887
14187TIP3   OH263975   3.812   4.561  11.928  0.3230 -0.0759 -0.3016
14187TIP3    H163976   3.879   4.591  11.866 -0.4111 -0.9165 -1.5175
14187TIP3    H263977   3.789   4.474  11.898 -0.5181 -0.2362  0.7836
14188TIP3   OH263978   5.095   5.116  16.098 -0.6301  0.0511 -0.0017
14188TIP3    H163979   5.157   5.189  16.104  0.2286 -0.5052 -1.7164
14188TIP3    H263980   5.148   5.042  16.070 -1.5239 -1.2349  1.6389
14189TIP3   OH263981   5.114   1.827   2.139  0.2654 -0.2231  0.3027
14189TIP3    H163982   5.041   1.846   2.199  0.6632  3.2655 -0.2542
14189TIP3    H263983   5.075   1.834   2.052  0.4964 -1.8418  0.0606
14190TIP3   OH263984   0.516   3.940  11.989  0.1709 -0.0370 -0.3415
14190TIP3    H163985   0.507   3.989  12.070 -1.2931 -0.2064 -0.3906
14190TIP3    H263986   0.534   4.006  11.922  1.0575  0.1329  0.0506
14191TIP3   OH263987   1.985   3.205   2.882 -0.1084  0.3381 -0.7463
14191TIP3    H163988   1.981   3.112   2.905 -1.6929  0.7262  0.6569
14191TIP3    H263989   2.013   3.206   2.790  2.5202 -1.3981 -0.0242
14192TIP3   OH263990   3.308   1.824  16.117  0.1613 -0.7764  0.5181
14192TIP3    H163991   3.371   1.786  16.055  1.4495 -0.5455  1.6759
14192TIP3    H263992   3.232   1.845  16.063  0.6663 -2.0156 -0.7194
14193TIP3   OH263993   5.297   4.315   6.556  0.3873 -0.0948  0.1871
14193TIP3    H163994   5.311   4.401   6.516 -2.6706  0.4618  0.1891
14193TIP3    H263995   5.292   4.254   6.482  0.2431  0.0855  0.0491
14194TIP3   OH263996   6.326   3.110  16.859 -0.2936  0.3019  0.0492
14194TIP3    H163997   6.378   3.134  16.782  1.3194  1.0403  1.3518
14194TIP3    H263998   6.324   3.014  16.857  1.2700  0.2597  0.0904
14195TIP3   OH263999   0.708   3.902  11.283  0.0545 -0.4667 -0.1809
14195TIP3    H164000   0.749   3.947  11.210 -1.4748  0.0352 -0.7524
14195TIP3    H264001   0.738   3.811  11.276 -0.6521 -0.5763 -1.8426
14196TIP3   OH264002   3.714   4.156   1.448  0.3282  0.2629 -0.0171
14196TIP3    H164003   3.703   4.061   1.455 -1.2614  0.5099  1.3415
14196TIP3    H264004   3.801   4.173   1.485  0.8750 -0.7183 -0.8358
14197TIP3   OH264005   5.547   3.223  16.826 -0.6414  0.9106 -0.2074
14197TIP3    H164006   5.512   3.154  16.882  0.4978 -0.6988 -1.4116
14197TIP3    H264007   5.568   3.294  16.886 -2.2102  0.3746  1.0184
14198TIP3   OH264008   4.548   2.400   2.374 -0.4671 -0.6392  0.1105
14198TIP3    H164009   4.486   2.407   2.447 -3.9310 -1.0251 -2.6574
14198TIP3    H264010   4.546   2.307   2.350  0.8646 -0.5618 -0.3249
14199TIP3   OH264011   6.377   0.732   1.344 -0.3931 -0.0462  0.2128
14199TIP3    H164012   6.376   0.776   1.429  0.2723  1.3747 -0.4894
14199TIP3    H264013   6.433   0.788   1.289  0.9542 -2.0660 -0.5486
14200TIP3   OH264014   0.782   1.093  12.001  0.0667 -0.4233 -0.1171
14200TIP3    H164015   0.690   1.104  11.977  0.6411  1.0550 -1.7651
14200TIP3    H264016   0.799   1.165  12.062 -0.1477 -1.3668  1.0752
14201TIP3   OH264017   6.092   2.025  11.664  0.1489  0.5679 -0.4537
14201TIP3    H164018   6.138   2.084  11.604  1.9103  1.0009  1.2540
14201TIP3    H264019   6.103   1.938  11.625  0.7194  0.9172 -1.0813
14202TIP3   OH264020   0.927   0.445  13.415 -0.5966 -0.5113  0.3010
14202TIP3    H164021   0.956   0.360  13.382  1.1419  0.8229 -1.7211
14202TIP3    H264022   0.864   0.476  13.350 -0.5119  0.1582  0.5313
14203TIP3   OH264023   1.750   5.197  13.581 -0.2401  0.5941  0.3278
14203TIP3    H164024   1.689   5.207  13.654 -1.8240 -0.2418 -0.8419
14203TIP3    H264025   1.765   5.103  13.574  2.5789  0.9044  1.6796
14204TIP3   OH264026   1.263   0.073  13.701 -0.1832 -0.9650 -0.0285
14204TIP3    H164027   1.326   0.006  13.675  0.0968 -0.9740  0.6561
14204TIP3    H264028   1.296   0.153  13.661 -0.0190 -1.0663 -0.0968
14205TIP3   OH264029   0.789   2.492   2.888 -0.0058  0.2412 -0.4573
14205TIP3    H164030   0.770   2.543   2.809 -0.5052 -0.7093 -0.9619
14205TIP3    H264031   0.792   2.557   2.958  0.4399  1.0940 -1.2538
14206TIP3   OH264032   0.368   5.671   4.488  0.6537  0.4682 -0.5617
14206TIP3    H164033   0.400   5.621   4.413  1.2078  2.1049 -1.4361
14206TIP3    H264034   0.273   5.669   4.479  0.7421  1.3228 -1.7547
14207TIP3   OH264035   4.498   1.621  11.594  0.0415 -0.0734  0.2169
14207TIP3    H164036   4.550   1.678  11.537  2.9436 -1.6060  1.2859
14207TIP3    H264037   4.550   1.542  11.604 -1.3170 -0.6458  3.4061
14208TIP3   OH264038   2.831   1.817   3.720 -0.5006 -0.0615 -0.3485
14208TIP3    H164039   2.817   1.743   3.660 -0.9504  0.7260 -1.2314
14208TIP3    H264040   2.746   1.860   3.725 -0.4531 -0.0957  0.8453
14209TIP3   OH264041   1.839   5.190   3.954  0.2063 -0.4552  0.1187
14209TIP3    H164042   1.872   5.114   3.906  0.0405 -0.8247  0.5906
14209TIP3    H264043   1.845   5.166   4.046 -0.2052 -0.0442  0.2592
14210TIP3   OH264044   0.301   2.585   1.957  0.5979 -0.4096 -0.8463
14210TIP3    H164045   0.304   2.489   1.962 -0.2106 -0.3658  0.8666
14210TIP3    H264046   0.328   2.614   2.044 -2.6053  0.8239 -0.2104
14211TIP3   OH264047   2.758   1.626  12.507  0.0736 -0.5771  0.0174
14211TIP3    H164048   2.695   1.566  12.548 -0.2237 -1.3503 -1.5187
14211TIP3    H264049   2.842   1.581  12.515 -0.0626 -0.9654 -0.6329
14212TIP3   OH264050   1.234   4.180  11.552  0.1395 -0.4247 -0.8456
14212TIP3    H164051   1.279   4.099  11.579  1.8677  0.5792 -0.6336
14212TIP3    H264052   1.249   4.185  11.458 -0.0638 -0.4022 -0.8770
14213TIP3   OH264053   4.346   1.173  16.052 -0.8765 -0.3662  0.1505
14213TIP3    H164054   4.406   1.203  16.121 -0.7260 -0.8411  0.2335
14213TIP3    H264055   4.367   1.080  16.041 -0.8788 -0.2860 -0.5623
14214TIP3   OH264056   2.572   0.820  11.228  0.2730  0.7885  0.7103
14214TIP3    H164057   2.558   0.909  11.196 -0.6576  0.5443  0.4321
14214TIP3    H264058   2.651   0.790  11.182 -1.1322  0.3766 -1.5308
14215TIP3   OH264059   4.326   3.896   2.310 -0.5795 -0.9278  0.0238
14215TIP3    H164060   4.324   3.962   2.240  0.2129  0.0110  0.8626
14215TIP3    H264061   4.407   3.848   2.295 -0.8361 -1.2886 -0.2055
14216TIP3   OH264062   4.285   0.024  15.980 -0.0388 -0.2522 -0.3335
14216TIP3    H164063   4.344   0.093  16.009  1.2649 -1.9644  1.2093
14216TIP3    H264064   4.337  -0.029  15.920 -0.6859 -0.5395 -0.6508
14217TIP3   OH264065   3.682   5.943  15.779  0.2543  0.2375  0.7337
14217TIP3    H164066   3.714   6.003  15.712  1.5673  1.3586  2.3398
14217TIP3    H264067   3.744   5.870  15.778 -2.0489 -1.7971 -2.1020
14218TIP3   OH264068   4.232   4.346   6.061  0.1738  0.0847  0.1040
14218TIP3    H164069   4.221   4.441   6.072  0.8255  0.3071 -1.0889
14218TIP3    H264070   4.169   4.323   5.992 -1.6274 -0.7567  1.9565
14219TIP3   OH264071   0.610   3.152   0.484  0.1008 -0.0025  0.3983
14219TIP3    H164072   0.581   3.081   0.426 -1.9168  1.7064 -0.7860
14219TIP3    H264073   0.705   3.143   0.488  0.2513 -0.5034 -2.7996
14220TIP3   OH264074   6.237   4.846  14.751  0.1028  0.1165  0.0862
14220TIP3    H164075   6.281   4.887  14.676  0.6455 -0.0549  0.3096
14220TIP3    H264076   6.302   4.849  14.821 -1.2001  2.3914  1.2377
14221TIP3   OH264077   5.564   6.291   3.885  0.3496  0.3572 -0.0325
14221TIP3    H164078   5.489   6.285   3.826  1.5694 -1.2218 -1.4740
14221TIP3    H264079   5.526   6.312   3.970 -1.6249  0.6623 -0.9650
14222TIP3   OH264080   4.870   4.271   4.696  0.2942 -0.1555  0.1620
14222TIP3    H164081   4.809   4.241   4.628  0.0754 -1.5467  0.9379
14222TIP3    H264082   4.813   4.288   4.771  0.9238 -2.2851  1.1598
14223TIP3   OH264083   3.851   4.785  17.191  0.2017 -0.5213 -0.2122
14223TIP3    H164084   3.865   4.775  17.096 -0.6076 -0.0086 -0.3919
14223TIP3    H264085   3.821   4.699  17.220  0.1666 -0.5986 -0.4721
14224TIP3   OH264086   3.166   3.302   5.681 -0.5605  0.0897  0.4112
14224TIP3    H164087   3.164   3.206   5.690  1.4950 -0.1944 -1.8038
14224TIP3    H264088   3.226   3.331   5.749 -1.9348 -0.0857  1.7236
14225TIP3   OH264089   2.137   2.355  13.964 -0.1200  0.1350 -0.0667
14225TIP3    H164090   2.210   2.409  13.996 -0.4181  0.1939  0.5301
14225TIP3    H264091   2.150   2.270  14.006 -0.5690  0.2406  0.2909
14226TIP3   OH264092   0.454   4.215   3.621  0.1022  0.0812 -0.0866
14226TIP3    H164093   0.546   4.186   3.615  0.1963  0.4545 -0.4321
14226TIP3    H264094   0.404   4.139   3.590  0.1683 -0.9390  2.2119
14227TIP3   OH264095   5.653   0.677   4.306  0.4547 -0.0033 -0.0746
14227TIP3    H164096   5.585   0.671   4.238 -0.6434  1.0142  0.9074
14227TIP3    H264097   5.605   0.666   4.388  1.4312  1.1070  0.6434
14228TIP3   OH264098   4.961   2.644   3.351 -0.3370  0.1202  0.2169
14228TIP3    H164099   4.895   2.649   3.282 -1.5367 -0.2290  1.2997
14228TIP3    H264100   4.918   2.594   3.421  1.2642 -0.5571  0.7473
14229TIP3   OH264101   6.776   5.196   3.645  0.7090  0.2985 -0.0412
14229TIP3    H164102   6.859   5.169   3.604  1.1141  0.6089  0.5651
14229TIP3    H264103   6.762   5.131   3.714  0.6557  0.4849  0.1217
14230TIP3   OH264104   6.617   0.391   0.349  0.4514  0.2152 -0.5890
14230TIP3    H164105   6.596   0.484   0.358 -0.5436  0.3377 -3.4604
14230TIP3    H264106   6.581   0.368   0.263  1.3500 -2.6411 -0.2208
14231TIP3   OH264107   0.099   0.360   2.286 -0.4056 -0.0041 -0.0879
14231TIP3    H164108   0.138   0.439   2.321 -0.3049 -0.7073  1.4235
14231TIP3    H264109   0.174   0.306   2.259 -0.3143 -0.9796  1.9955
14232TIP3   OH264110   2.349   4.590  14.698 -0.8457  0.0350  0.0924
14232TIP3    H164111   2.436   4.572  14.664 -0.4438  1.5810  0.2962
14232TIP3    H264112   2.312   4.503  14.716  0.4821 -0.6375 -0.3891
14233TIP3   OH264113   0.971   1.817   0.192  0.2619  0.1468 -0.0195
14233TIP3    H164114   0.881   1.832   0.221  0.3221 -0.0992  0.3087
14233TIP3    H264115   0.994   1.731   0.230  0.4540 -0.0331 -0.5381
14234TIP3   OH264116   4.219   1.861  14.720 -0.0591 -0.2644 -0.1792
14234TIP3    H164117   4.281   1.875  14.792 -0.2714 -1.2659  0.2043
14234TIP3    H264118   4.256   1.911  14.647 -1.3071  3.1468  1.4003
14235TIP3   OH264119   5.257   0.111  13.191 -0.0156  0.0826  0.0784
14235TIP3    H164120   5.303   0.090  13.110 -0.3581 -0.4390  0.0216
14235TIP3    H264121   5.262   0.031  13.244  1.5517  0.8938  1.2086
14236TIP3   OH264122   2.774   5.629   4.312  0.1659  0.8050 -0.1724
14236TIP3    H164123   2.845   5.665   4.258  2.3921 -2.2283  0.6062
14236TIP3    H264124   2.798   5.653   4.402  0.0593  0.0295  0.0664
14237TIP3   OH264125   0.142   0.407   1.573  0.0762 -0.7603  0.1046
14237TIP3    H164126   0.192   0.387   1.652 -0.1923 -1.6647  0.0624
14237TIP3    H264127   0.054   0.375   1.592 -0.1814 -0.2845 -0.2766
14238TIP3   OH264128   3.830   0.576  15.078  0.5685  0.1355  0.0209
14238TIP3    H164129   3.747   0.529  15.072  1.6039 -1.6389 -0.9240
14238TIP3    H264130   3.895   0.513  15.046  2.1406  1.8570 -0.2343
14239TIP3   OH264131   3.805   5.092  12.730 -0.5337 -0.0175  0.3710
14239TIP3    H164132   3.831   5.042  12.807 -2.6848 -0.3993  0.8962
14239TIP3    H264133   3.712   5.071  12.719 -1.3503  3.3786  0.2610
14240TIP3   OH264134   0.783   3.963   2.067  0.1228 -0.0488  0.0367
14240TIP3    H164135   0.713   3.935   2.126  2.7264 -1.1797  2.6970
14240TIP3    H264136   0.818   4.042   2.107  0.5010  0.4182 -1.1846
14241TIP3   OH264137   5.202   0.344  10.861 -0.1573  0.1487  0.2547
14241TIP3    H164138   5.232   0.358  10.771 -2.0031 -0.9337 -0.5812
14241TIP3    H264139   5.249   0.409  10.913  0.7577  0.9621 -1.5394
14242TIP3   OH264140   2.637   4.653  12.922  1.1420 -0.2781  0.1343
14242TIP3    H164141   2.642   4.579  12.983  1.3504 -2.0926 -2.0247
14242TIP3    H264142   2.727   4.686  12.918  1.2442 -0.5285  0.3378
14243TIP3   OH264143   0.580   3.751  13.895 -0.1312 -0.1410 -0.2986
14243TIP3    H164144   0.581   3.686  13.965 -0.5745  1.4549  1.2125
14243TIP3    H264145   0.654   3.808  13.914 -1.0845  1.1270 -0.3337
14244TIP3   OH264146   1.315   2.412   4.795  0.9627  0.2700 -0.4373
14244TIP3    H164147   1.394   2.357   4.800 -0.6650 -2.2876 -1.4260
14244TIP3    H264148   1.288   2.424   4.886  1.6215 -0.1720 -0.1805
14245TIP3   OH264149   6.741   6.502   0.197 -0.9638 -0.1665 -0.0750
14245TIP3    H164150   6.752   6.584   0.148  0.3208 -0.1044  0.2803
14245TIP3    H264151   6.745   6.433   0.131  0.7962 -0.0850 -0.0987
14246TIP3   OH264152   4.989   2.011  15.862  0.4407 -0.2908  0.2481
14246TIP3    H164153   5.063   2.022  15.921 -0.3851 -1.2122  1.4659
14246TIP3    H264154   5.013   2.061  15.784  1.3311  1.3252  1.5360
14247TIP3   OH264155   2.623   6.152   2.677  0.4134  0.2071 -0.1192
14247TIP3    H164156   2.715   6.176   2.676 -0.1666  2.6134  0.5749
14247TIP3    H264157   2.604   6.123   2.588  2.2096 -1.8751  0.1484
14248TIP3   OH264158   5.865   5.833  12.621 -0.0797  0.0598 -0.2480
14248TIP3    H164159   5.840   5.924  12.634  0.9812  0.3507 -0.2108
14248TIP3    H264160   5.941   5.837  12.563 -0.9201 -0.8874 -1.4421
14249TIP3   OH264161   1.614   3.719   2.797  0.3658 -0.1907 -0.1365
14249TIP3    H164162   1.619   3.811   2.822 -1.5377 -0.1749  0.2129
14249TIP3    H264163   1.698   3.701   2.755  0.7532  1.6909 -0.1892
14250TIP3   OH264164   1.321   6.333   0.542 -0.3178 -0.6949  0.2536
14250TIP3    H164165   1.279   6.408   0.584 -0.1748 -0.9306  0.8276
14250TIP3    H264166   1.381   6.372   0.478 -0.0393 -0.3105  0.7456
14251TIP3   OH264167   4.556   0.071   6.413 -0.0333 -0.1750  0.0129
14251TIP3    H164168   4.536   0.124   6.490 -2.6582 -1.7337  0.4651
14251TIP3    H264169   4.470   0.044   6.380  1.1631 -2.1637 -1.5733
14252TIP3   OH264170   2.532   5.135  13.121  0.3002 -0.3391 -0.1429
14252TIP3    H164171   2.461   5.190  13.088  0.9282  0.9338  0.6123
14252TIP3    H264172   2.597   5.135  13.052  0.4401  0.1279 -0.0118
14253TIP3   OH264173   2.403   6.156   5.601  0.2322 -0.0532  0.3541
14253TIP3    H164174   2.478   6.176   5.544 -1.1183 -0.9277 -1.8002
14253TIP3    H264175   2.337   6.222   5.579  0.3935  0.8132  2.3568
14254TIP3   OH264176   5.017   0.585  13.050  0.3926  0.3831  0.6473
14254TIP3    H164177   5.076   0.652  13.086 -0.8542  0.8574  1.8759
14254TIP3    H264178   5.042   0.505  13.096  0.3389  0.5112  0.9057
14255TIP3   OH264179   2.969   4.901   0.521 -0.1354 -0.6509  0.2226
14255TIP3    H164180   2.936   4.942   0.441  0.6771 -1.0110 -0.3034
14255TIP3    H264181   2.995   4.974   0.577  3.6793 -0.4182 -1.7095
14256TIP3   OH264182   5.337   1.704  16.375 -0.0694  0.9116  0.2215
14256TIP3    H164183   5.384   1.647  16.436  1.3187  4.4365  2.6387
14256TIP3    H264184   5.394   1.711  16.299 -0.4268 -1.1334 -0.2598
14257TIP3   OH264185   4.889   4.115  14.432 -0.0749  0.0086 -1.0820
14257TIP3    H164186   4.857   4.151  14.349  1.5169  1.9734 -0.8827
14257TIP3    H264187   4.959   4.175  14.459  1.8686 -2.5863 -0.1109
14258TIP3   OH264188   3.199   2.737  14.479  0.5791 -0.2091  0.1466
14258TIP3    H164189   3.213   2.734  14.384 -1.1288  0.5817 -0.1460
14258TIP3    H264190   3.201   2.646  14.506  0.2696 -0.4971 -0.7744
14259TIP3   OH264191   0.067   0.109   4.133  0.0318  0.1057  0.3718
14259TIP3    H164192   0.019   0.096   4.051  0.6258  0.3758 -0.0145
14259TIP3    H264193   0.024   0.184   4.174 -0.3220 -0.0838  0.3564
14260TIP3   OH264194   1.384   1.512   3.423 -0.8992  0.1872 -0.1602
14260TIP3    H164195   1.373   1.490   3.516 -3.0417 -1.4693 -0.7518
14260TIP3    H264196   1.462   1.463   3.396 -0.5289  0.3170  0.6558
14261TIP3   OH264197   5.276   2.234   4.977  0.2807 -0.2909 -0.8465
14261TIP3    H164198   5.201   2.274   5.022  0.2024 -0.5328 -0.7637
14261TIP3    H264199   5.328   2.195   5.047  0.3619 -0.3308 -0.9287
14262TIP3   OH264200   0.975   5.711  12.244 -0.3988 -0.4570  0.2753
14262TIP3    H164201   1.012   5.690  12.158 -0.0971  1.0165  0.0335
14262TIP3    H264202   1.038   5.673  12.306  0.8187  0.8372 -0.1417
14263TIP3   OH264203   1.043   3.845   4.502 -0.6944  0.3235  0.4683
14263TIP3    H164204   1.048   3.750   4.486  4.1755  0.4337  0.7097
14263TIP3    H264205   1.026   3.853   4.596 -0.0790 -0.3174  0.6372
14264TIP3   OH264206   2.565   2.335  16.580 -0.4362  0.2264  0.1206
14264TIP3    H164207   2.525   2.355  16.495  0.6789  0.5237 -0.3506
14264TIP3    H264208   2.646   2.387  16.580 -0.9467  1.0329  1.8100
14265TIP3   OH264209   5.080   4.745  13.760 -0.5884 -0.5086 -0.1044
14265TIP3    H164210   5.095   4.715  13.850  1.9457  0.5046 -0.1427
14265TIP3    H264211   5.110   4.836  13.760 -0.5661 -0.5031 -1.9898
14266TIP3   OH264212   5.073   3.746   1.814  0.0233 -0.2949 -0.4396
14266TIP3    H164213   5.110   3.809   1.876  0.7090 -1.5299  0.4310
14266TIP3    H264214   5.025   3.799   1.751  0.7077  1.1045  0.2064
14267TIP3   OH264215   4.885   1.624  16.225  0.3206 -0.4054  0.2628
14267TIP3    H164216   4.946   1.589  16.161  0.0181 -0.7427  0.1573
14267TIP3    H264217   4.930   1.699  16.264  1.1991 -1.2625  0.9041
14268TIP3   OH264218   1.328   4.700  16.112  0.4057  0.4036 -0.2378
14268TIP3    H164219   1.339   4.636  16.041  3.0366  0.8874 -0.2953
14268TIP3    H264220   1.370   4.779  16.079 -1.4452  1.7282  0.4750
14269TIP3   OH264221   1.534   3.680  14.581  0.3515 -0.0965 -0.4069
14269TIP3    H164222   1.501   3.722  14.501 -0.4632  1.5349  0.7451
14269TIP3    H264223   1.603   3.739  14.611 -0.5686  0.2524  1.0510
14270TIP3   OH264224   0.805   3.957   5.463  0.1443 -0.4814  0.0571
14270TIP3    H164225   0.806   4.036   5.519  1.3467 -0.0535 -0.5488
14270TIP3    H264226   0.845   3.986   5.381  1.5093 -1.9644  0.1731
14271TIP3   OH264227   1.141   4.502  16.816  0.0717  0.6261  0.1039
14271TIP3    H164228   1.108   4.412  16.809 -0.5559  0.8154  0.5099
14271TIP3    H264229   1.093   4.550  16.748  0.7148  0.5703 -0.3939
14272TIP3   OH264230   1.478   0.031   2.394  0.0475  0.3965  0.0640
14272TIP3    H164231   1.517   0.116   2.415  1.2940 -0.8826  3.2145
14272TIP3    H264232   1.466   0.033   2.299  3.3552  2.7227 -0.3973
14273TIP3   OH264233   3.383   1.933  10.260 -0.8920 -0.7362  0.4558
14273TIP3    H164234   3.434   2.010  10.235 -0.2516 -1.6195 -1.0736
14273TIP3    H264235   3.448   1.863  10.266 -1.6345 -1.4193  0.6572
14274TIP3   OH264236   1.552   1.927  16.498 -0.1928  0.0666 -0.3627
14274TIP3    H164237   1.539   2.015  16.533 -1.8014 -0.3806  0.1889
14274TIP3    H264238   1.533   1.936  16.405 -0.8809  0.1882 -0.2117
14275TIP3   OH264239   5.796   6.200   3.467  0.2149  0.2812  0.1907
14275TIP3    H164240   5.703   6.202   3.442 -0.1489  1.1033  1.5988
14275TIP3    H264241   5.802   6.128   3.530  0.6132  0.0110 -0.1484
14276TIP3   OH264242   0.627   2.604  16.829  0.2449 -0.1212 -0.4259
14276TIP3    H164243   0.537   2.578  16.807  0.6163  0.4527 -2.7669
14276TIP3    H264244   0.671   2.521  16.850 -0.8882 -0.3759  1.0473
14277TIP3   OH264245   4.683   5.679  14.915  0.3182  0.4729  0.3275
14277TIP3    H164246   4.606   5.623  14.925 -0.6939  1.7481 -0.3279
14277TIP3    H264247   4.745   5.645  14.980  0.4954 -2.7012 -1.4225
14278TIP3   OH264248   4.473   0.635  14.208  0.1550 -0.2992 -0.2858
14278TIP3    H164249   4.428   0.719  14.216  0.7107 -0.0150 -0.1014
14278TIP3    H264250   4.441   0.598  14.125  0.3134  0.3434 -0.6373
14279TIP3   OH264251   3.357   3.594   4.155 -0.1174  0.3674  0.6862
14279TIP3    H164252   3.321   3.531   4.093 -1.7309 -0.5626  2.5003
14279TIP3    H264253   3.408   3.540   4.216  2.2026  1.3708 -0.3229
14280TIP3   OH264254   5.233   0.917  14.168  0.0801  0.8626 -0.6093
14280TIP3    H164255   5.244   1.005  14.203 -1.4057  0.5414  0.7257
14280TIP3    H264256   5.246   0.927  14.074 -0.9206  2.6590 -0.5843
14281TIP3   OH264257   1.438   1.007  15.711 -0.2050  0.0832  0.4799
14281TIP3    H164258   1.413   0.983  15.622 -3.1506  0.9606  1.0294
14281TIP3    H264259   1.440   1.102  15.711  0.2090  0.0765  1.2406
14282TIP3   OH264260   0.384   1.195   3.794 -0.4459  0.2944 -0.1606
14282TIP3    H164261   0.439   1.117   3.802 -0.7932 -0.0017 -0.6445
14282TIP3    H264262   0.321   1.173   3.725  0.6785  1.7194 -1.6757
14283TIP3   OH264263   3.482   2.971   4.837 -0.2739  0.3311 -0.1335
14283TIP3    H164264   3.532   2.925   4.770  1.5450 -2.0216  2.6874
14283TIP3    H264265   3.526   3.056   4.846  1.2324 -0.4409  0.0324
14284TIP3   OH264266   3.791   6.529  16.519  0.2916 -0.0998 -0.1206
14284TIP3    H164267   3.837   6.447  16.501  0.4922 -0.1232  0.4978
14284TIP3    H264268   3.842   6.570  16.589 -1.8349 -1.1201  2.1047
14285TIP3   OH264269   5.755   6.392  14.947 -0.4481 -0.6297 -0.1871
14285TIP3    H164270   5.841   6.433  14.958  0.0989 -1.4300 -1.3582
14285TIP3    H264271   5.754   6.321  15.011 -0.4425 -0.3204  0.1631
14286TIP3   OH264272   4.769   3.398   2.410 -0.3186  0.1153  0.1688
14286TIP3    H164273   4.808   3.468   2.358 -2.3438  1.1330 -0.0461
14286TIP3    H264274   4.842   3.359   2.458  0.8311  2.4401  0.3564
14287TIP3   OH264275   2.999   4.678   0.229  0.0223  0.0166  0.2351
14287TIP3    H164276   3.086   4.718   0.232  0.9081 -1.7588 -1.1929
14287TIP3    H264277   2.996   4.624   0.308 -0.8467  2.1610  1.7115
14288TIP3   OH264278   5.991   3.570   0.022 -0.6420  0.2164 -0.9590
14288TIP3    H164279   6.025   3.659   0.034  0.0175 -0.0667 -0.7099
14288TIP3    H264280   6.026   3.542  -0.063 -1.0511  0.2834 -1.1524
14289TIP3   OH264281   4.952   2.466  16.649 -0.2556 -0.1165 -0.2079
14289TIP3    H164282   4.880   2.426  16.699  0.3499  0.0229  0.7864
14289TIP3    H264283   4.918   2.472  16.560 -2.1770  1.6204  0.5858
14290TIP3   OH264284   3.157   3.320  17.181 -0.0716 -0.5673 -0.2112
14290TIP3    H164285   3.096   3.254  17.212 -0.7466 -0.5312 -1.4441
14290TIP3    H264286   3.143   3.395  17.239 -2.6628  0.1727 -1.7092
14291TIP3   OH264287   1.227   4.460  15.009 -0.3905  0.0365 -0.2550
14291TIP3    H164288   1.153   4.412  15.045 -0.4947 -0.0128 -0.5313
14291TIP3    H264289   1.294   4.455  15.077 -1.2407  1.5788  0.7478
14292TIP3   OH264290   2.596   3.925  15.781 -0.2141 -0.2251  0.0171
14292TIP3    H164291   2.636   4.009  15.758 -1.5007  0.4070  0.0308
14292TIP3    H264292   2.588   3.878  15.698  0.3278 -0.2581 -0.0175
14293TIP3   OH264293   0.591   4.811   3.014 -0.2324  0.9992  0.2127
14293TIP3    H164294   0.548   4.864   3.081  1.4628 -1.2596  3.2585
14293TIP3    H264295   0.664   4.770   3.060  1.1309 -0.5142 -3.1250
14294TIP3   OH264296   2.617   3.170   2.044 -0.2635  0.0251  0.1585
14294TIP3    H164297   2.545   3.198   2.101 -1.3448  2.4269 -2.2703
14294TIP3    H264298   2.574   3.125   1.971  0.6588  1.2339 -1.1720
14295TIP3   OH264299   3.514   1.692   5.997  0.2684  0.1360  0.3113
14295TIP3    H164300   3.544   1.767   6.049  1.8227 -0.5636  0.4397
14295TIP3    H264301   3.566   1.619   6.029 -0.0116 -0.6514 -1.0322
14296TIP3   OH264302   2.653   4.343  15.811  0.3331  0.0977 -0.0759
14296TIP3    H164303   2.561   4.328  15.829  0.8476 -0.6437  2.0533
14296TIP3    H264304   2.655   4.422  15.758 -1.5771 -0.4026 -0.9388
14297TIP3   OH264305   1.306   1.879  12.930 -0.3906 -0.1589 -0.1610
14297TIP3    H164306   1.303   1.793  12.970 -2.9138  0.1810  0.4411
14297TIP3    H264307   1.330   1.939  13.001 -3.3861  0.2430  0.5658
14298TIP3   OH264308   1.549   0.246  16.685  0.2234 -0.5328 -0.3842
14298TIP3    H164309   1.542   0.163  16.640 -0.1046 -0.3232 -0.7265
14298TIP3    H264310   1.572   0.223  16.775 -2.2496 -1.1373  0.1372
14299TIP3   OH264311   2.495   2.250  13.806 -0.3264 -0.0755  0.5331
14299TIP3    H164312   2.588   2.256  13.829 -0.2922 -2.4172  1.1071
14299TIP3    H264313   2.495   2.231  13.712 -0.0875 -3.1645  1.1002
14300TIP3   OH264314   1.398   5.498   2.781  0.3662  0.0112 -0.9639
14300TIP3    H164315   1.405   5.553   2.703  0.8582 -0.2516 -1.1094
14300TIP3    H264316   1.409   5.409   2.749  1.5172 -0.0310 -0.4706
14301TIP3   OH264317   1.305   1.855  15.149 -0.3290  0.1164  0.2232
14301TIP3    H164318   1.373   1.898  15.097 -0.7950 -0.0402 -0.5109
14301TIP3    H264319   1.302   1.765  15.117 -0.4445 -0.0514  0.6912
14302TIP3   OH264320   0.788   6.439   0.184 -0.1999 -0.4647 -0.7867
14302TIP3    H164321   0.705   6.397   0.160 -0.2423 -2.1565  2.0488
14302TIP3    H264322   0.764   6.530   0.201 -1.6528 -1.0607  0.5415
14303TIP3   OH264323   4.666   4.196  10.864  0.0142 -0.1664 -0.1136
14303TIP3    H164324   4.729   4.154  10.922 -0.7192 -1.5191 -0.2866
14303TIP3    H264325   4.594   4.134  10.857 -0.9765  1.0191 -0.5726
14304TIP3   OH264326   4.601   5.194   4.304 -0.6314 -0.1197  0.4582
14304TIP3    H164327   4.688   5.164   4.279 -0.6773  0.3852 -0.3237
14304TIP3    H264328   4.544   5.119   4.286 -0.5757  0.0431 -0.3984
14305TIP3   OH264329   3.468   3.886  13.323 -0.1659  0.3709  0.1867
14305TIP3    H164330   3.434   3.867  13.411  0.3088  1.5762  0.6506
14305TIP3    H264331   3.559   3.911  13.338  0.4896 -1.3174 -0.8767
14306TIP3   OH264332   0.688   4.566   3.132  0.0658 -0.1354  0.1528
14306TIP3    H164333   0.640   4.604   3.206  0.4734  1.3225 -0.3188
14306TIP3    H264334   0.764   4.623   3.121  1.5854 -2.0429  0.4755
14307TIP3   OH264335   1.658   3.811   5.401 -0.2547 -0.3104 -0.0260
14307TIP3    H164336   1.692   3.796   5.313 -0.2335 -0.4733  0.0110
14307TIP3    H264337   1.589   3.746   5.412  0.3877 -0.9236  0.4376
14308TIP3   OH264338   3.354   6.240   0.374 -0.0107 -0.4853  0.2771
14308TIP3    H164339   3.349   6.149   0.343 -1.3672 -0.2700 -0.1407
14308TIP3    H264340   3.268   6.258   0.411 -0.4122  1.2801 -1.4614
14309TIP3   OH264341   2.587   4.077  13.491 -0.8438 -0.0533  0.0845
14309TIP3    H164342   2.600   4.138  13.563  1.2375  0.2997 -0.5472
14309TIP3    H264343   2.586   4.132  13.413  1.5840 -0.8027 -0.5425
14310TIP3   OH264344   5.593   1.699  11.129 -0.2926  0.4803  0.0116
14310TIP3    H164345   5.675   1.655  11.148 -0.8379 -0.7706 -0.4601
14310TIP3    H264346   5.565   1.735  11.213  0.9312  1.2643  0.0909
14311TIP3   OH264347   0.117   0.215  14.091 -0.5416 -0.1103  0.0395
14311TIP3    H164348   0.139   0.212  13.998 -1.8121 -1.3091 -0.2330
14311TIP3    H264349   0.123   0.308  14.113  0.8245  0.0674 -0.9649
14312TIP3   OH264350   1.623   4.644  12.242 -0.0912  0.3407 -0.3201
14312TIP3    H164351   1.567   4.676  12.313  0.4446  0.5613  0.0006
14312TIP3    H264352   1.561   4.610  12.177 -0.4945 -2.2801  1.3822
14313TIP3   OH264353   2.246   0.878   1.280  0.5518 -0.3746 -0.5095
14313TIP3    H164354   2.191   0.881   1.202  0.7495 -1.5505 -0.7054
14313TIP3    H264355   2.201   0.816   1.338  0.8682 -0.1671 -0.0348
14314TIP3   OH264356   2.186   6.503   2.670  0.3015 -0.4754  0.0839
14314TIP3    H164357   2.123   6.527   2.602  2.1259  2.7799 -0.5825
14314TIP3    H264358   2.219   6.417   2.644 -1.4980 -0.7792 -1.2739
14315TIP3   OH264359   3.686   4.688   4.305  0.1131  0.3865 -0.6364
14315TIP3    H164360   3.749   4.617   4.306 -2.3244 -1.8668  0.4726
14315TIP3    H264361   3.638   4.678   4.223 -0.0282  0.9474 -0.6286
14316TIP3   OH264362   1.414   4.743  11.620 -0.2769  0.1205 -0.1865
14316TIP3    H164363   1.428   4.757  11.526  0.3166  1.1573  0.0596
14316TIP3    H264364   1.490   4.693  11.648  0.2822  1.1031  0.0478
14317TIP3   OH264365   1.599   2.795  17.076 -0.0335  0.8754  0.4535
14317TIP3    H164366   1.522   2.832  17.120 -0.6111  1.2149 -0.8216
14317TIP3    H264367   1.609   2.708  17.114 -0.2444  1.3439  1.5923
14318TIP3   OH264368   4.840   5.315  14.897  0.4079  0.6088 -0.2449
14318TIP3    H164369   4.865   5.392  14.846 -0.2399  1.1191  0.2011
14318TIP3    H264370   4.788   5.350  14.969 -1.3961 -0.3793 -1.0105
14319TIP3   OH264371   1.944   3.712  11.584 -0.4232 -0.0907  0.4753
14319TIP3    H164372   1.950   3.715  11.488 -2.1163  1.6901  0.3772
14319TIP3    H264373   1.935   3.619  11.605 -1.3682 -0.3987 -1.1951
14320TIP3   OH264374   2.197   5.637   2.943  0.0256  0.4615  0.3709
14320TIP3    H164375   2.110   5.654   2.906  0.6639  3.0341  0.0075
14320TIP3    H264376   2.228   5.723   2.971  1.5329 -0.7554  2.5630
14321TIP3   OH264377   1.102   4.969   5.192  0.8651  0.4052  0.2165
14321TIP3    H164378   1.180   5.023   5.203 -0.3538  1.9649  1.6659
14321TIP3    H264379   1.077   4.945   5.281  0.0119 -0.5317 -0.2642
14322TIP3   OH264380   0.931   5.301   0.395 -0.3756 -0.0788  0.5678
14322TIP3    H164381   0.996   5.372   0.397 -0.3843 -0.0859  1.0489
14322TIP3    H264382   0.918   5.278   0.486 -0.9662 -0.1682  0.4593
14323TIP3   OH264383   6.643   4.157   1.710 -0.0084 -0.0518  0.0504
14323TIP3    H164384   6.592   4.076   1.705 -0.7619  0.4029  0.3093
14323TIP3    H264385   6.734   4.128   1.708 -0.2742 -0.9400  0.6947
14324TIP3   OH264386   0.273   2.035  11.590  0.8394 -0.0415 -0.3284
14324TIP3    H164387   0.323   2.111  11.559 -2.0413  2.4082  0.8112
14324TIP3    H264388   0.284   2.036  11.685  0.1177 -0.5839 -0.2359
14325TIP3   OH264389   6.140   0.676  10.521  0.0907 -0.3095 -0.5690
14325TIP3    H164390   6.232   0.652  10.536 -0.0090  1.0233  2.5525
14325TIP3    H264391   6.138   0.771  10.532 -1.6939 -0.3361 -0.5345
14326TIP3   OH264392   3.032   6.316  15.010  0.1586  0.3969  0.7243
14326TIP3    H164393   3.008   6.340  15.099  2.2691  0.9999  1.1357
14326TIP3    H264394   3.079   6.233  15.019 -0.2463  0.0859  0.0839
14327TIP3   OH264395   4.733   0.941   3.906 -0.9637 -0.4312 -0.0220
14327TIP3    H164396   4.795   0.870   3.925  2.4892  2.3752 -0.1765
14327TIP3    H264397   4.743   0.957   3.812 -1.3460  0.5348  0.0902
14328TIP3   OH264398   6.496   4.831  13.261  0.1990 -0.4191  0.1359
14328TIP3    H164399   6.508   4.849  13.168  0.6625 -0.9645  0.0875
14328TIP3    H264400   6.499   4.917  13.303 -3.5576  0.1888 -0.7265
14329TIP3   OH264401   4.681   1.790   3.427 -0.3866 -0.2247  0.3847
14329TIP3    H164402   4.688   1.753   3.339  0.5032 -0.5352  0.5874
14329TIP3    H264403   4.654   1.716   3.482 -1.0324 -0.0112  0.3629
14330TIP3   OH264404   2.652   0.125   3.198 -0.2538 -0.2154  0.5165
14330TIP3    H164405   2.606   0.067   3.137 -0.0714 -1.7982  1.8899
14330TIP3    H264406   2.713   0.069   3.244 -0.5435  0.9316  2.3310
14331TIP3   OH264407   0.245   3.685  15.171 -0.3163 -0.1529 -0.3155
14331TIP3    H164408   0.247   3.745  15.245  1.5550 -1.6289  0.8963
14331TIP3    H264409   0.306   3.615  15.196 -0.8750 -1.4834 -2.5655
14332TIP3   OH264410   4.156   0.651  16.205  0.1358  0.2322 -0.3542
14332TIP3    H164411   4.215   0.650  16.129 -0.2344  1.3449 -0.6584
14332TIP3    H264412   4.189   0.581  16.262  0.8147 -0.1705 -1.2303
14333TIP3   OH264413   0.693   0.983   5.825  0.0921 -0.2456 -0.0892
14333TIP3    H164414   0.780   1.020   5.807 -0.1745  0.3552 -0.1527
14333TIP3    H264415   0.677   1.003   5.917 -0.1899  0.0767 -0.2085
14334TIP3   OH264416   6.744   5.112   3.294  0.9575 -0.3422  0.4435
14334TIP3    H164417   6.788   5.197   3.297 -0.4243  0.3347  1.9852
14334TIP3    H264418   6.655   5.132   3.267  0.2660 -1.1368  2.0871
14335TIP3   OH264419   6.311   3.170   3.762 -0.0006  0.0084 -0.1376
14335TIP3    H164420   6.297   3.080   3.794  0.7295 -1.3569 -3.3906
14335TIP3    H264421   6.223   3.205   3.752 -0.4087 -1.2315 -1.0884
14336TIP3   OH264422   6.527   5.637  16.636  0.1388 -0.0578 -0.2259
14336TIP3    H164423   6.563   5.715  16.677  0.4429 -0.5739  0.5077
14336TIP3    H264424   6.603   5.585  16.611 -0.0109 -1.8656  2.7181
14337TIP3   OH264425   4.311   4.878   1.012 -0.1473 -1.0761  0.3956
14337TIP3    H164426   4.319   4.799   1.065  1.4492 -0.4423  1.1342
14337TIP3    H264427   4.324   4.950   1.074 -1.2395 -0.2419 -0.3326
14338TIP3   OH264428   3.675   2.805   4.726 -0.5774 -0.0875  0.1835
14338TIP3    H164429   3.654   2.730   4.781  1.1442  0.6137  1.8437
14338TIP3    H264430   3.770   2.808   4.724 -0.5900  2.9655  1.4509
14339TIP3   OH264431   3.903   2.234  13.277  0.3416  0.0899  0.2868
14339TIP3    H164432   3.916   2.187  13.195  0.9211  2.8853 -1.2881
14339TIP3    H264433   3.992   2.251  13.309  0.1666  0.9978  0.2993
14340TIP3   OH264434   0.137   6.702  10.421 -0.1570 -0.0530 -0.1443
14340TIP3    H164435   0.078   6.645  10.371  1.3943 -1.0142 -0.9062
14340TIP3    H264436   0.104   6.697  10.511  0.2821 -2.6094 -0.0939
14341TIP3   OH264437   5.816   1.665   1.404  0.3685 -0.4294  0.7642
14341TIP3    H164438   5.732   1.638   1.441  0.5530  0.7955  2.1375
14341TIP3    H264439   5.867   1.694   1.480  2.2817 -1.7729  0.0372
14342TIP3   OH264440   2.571   0.511   0.756  0.7265 -0.0770  0.2114
14342TIP3    H164441   2.484   0.550   0.758  0.6307 -0.3059  2.1223
14342TIP3    H264442   2.631   0.583   0.775  0.8284 -0.2051  0.3801
14343TIP3   OH264443   0.461   6.280  15.764 -0.6501 -0.7667  0.5786
14343TIP3    H164444   0.460   6.272  15.669 -0.7163  0.4194  0.4698
14343TIP3    H264445   0.549   6.312  15.785 -1.0818  0.3088  0.7900
14344TIP3   OH264446   3.753   5.993  14.698 -0.4793  0.2939  0.4585
14344TIP3    H164447   3.749   5.934  14.623 -2.1292  1.5167 -0.4630
14344TIP3    H264448   3.840   6.031  14.695 -0.4845  0.2146 -0.7422
14345TIP3   OH264449   1.685   5.759  13.281 -0.3074 -0.2895 -0.7128
14345TIP3    H164450   1.756   5.745  13.219  1.3449  2.4798  0.4505
14345TIP3    H264451   1.727   5.758  13.367 -1.9610 -0.4061  0.1321
14346TIP3   OH264452   6.226   2.770   1.074 -0.0810 -0.5946 -0.0140
14346TIP3    H164453   6.212   2.751   1.167 -0.6344  1.4636  0.3404
14346TIP3    H264454   6.160   2.717   1.029 -1.4344  0.2513  0.9356
14347TIP3   OH264455   1.351   4.591   4.500  0.4874  0.9950  0.2675
14347TIP3    H164456   1.350   4.496   4.497 -1.3411  1.0638 -3.2550
14347TIP3    H264457   1.280   4.615   4.559 -0.4558  0.1882 -0.5314
14348TIP3   OH264458   1.522   1.770   4.524  0.5906 -0.0068 -0.4286
14348TIP3    H164459   1.514   1.674   4.520  1.0392 -0.0609 -0.0642
14348TIP3    H264460   1.521   1.798   4.433 -0.3267 -0.2945 -0.5104
14349TIP3   OH264461   3.306   4.558   3.278 -0.5222 -0.2468  0.5891
14349TIP3    H164462   3.394   4.567   3.242 -0.2380 -1.8348  0.8395
14349TIP3    H264463   3.286   4.465   3.268 -2.7205  0.3500 -0.7186
14350TIP3   OH264464   5.856   1.705   0.534 -0.3632 -0.6690  0.3103
14350TIP3    H164465   5.951   1.707   0.541 -0.4676 -2.3768  3.1160
14350TIP3    H264466   5.836   1.625   0.486 -0.3889  0.1369 -1.0566
14351TIP3   OH264467   5.798   6.258   1.832  0.5057  0.1744 -0.1370
14351TIP3    H164468   5.848   6.314   1.772  0.5409  1.7639  1.3504
14351TIP3    H264469   5.719   6.308   1.851  0.3295 -0.4852  0.8770
14352TIP3   OH264470   4.964   3.615  15.204  0.1262  0.4449 -0.1312
14352TIP3    H164471   4.985   3.651  15.118 -0.9170  1.2872 -0.0508
14352TIP3    H264472   4.906   3.541  15.186  0.0301  0.5278 -0.1630
14353TIP3   OH264473   0.131   5.431  14.908  0.3641 -0.1893 -0.0078
14353TIP3    H164474   0.096   5.501  14.853  0.1564 -0.9750 -0.9026
14353TIP3    H264475   0.057   5.406  14.964  1.0591  1.7554  1.8463
14354TIP3   OH264476   3.166   3.432  11.403  0.0461  0.5068  0.1359
14354TIP3    H164477   3.205   3.348  11.379  0.5983  0.9928 -0.7380
14354TIP3    H264478   3.093   3.410  11.460 -0.6016 -0.6364 -1.1085
14355TIP3   OH264479   1.380   5.054   5.298  0.0693  0.5666  0.0259
14355TIP3    H164480   1.357   5.015   5.382 -0.0517  2.1769  0.7632
14355TIP3    H264481   1.420   5.138   5.321  1.3909  0.3743 -1.4722
14356TIP3   OH264482   6.665   4.779   3.383 -0.0387 -0.0439 -0.4872
14356TIP3    H164483   6.751   4.808   3.414  0.5502 -1.1792 -1.0444
14356TIP3    H264484   6.616   4.861   3.371  1.1039  0.6475 -0.5725
14357TIP3   OH264485   4.805   4.362  12.728 -0.6235  0.1565 -0.2514
14357TIP3    H164486   4.723   4.374  12.680 -0.6567  0.0362 -0.2262
14357TIP3    H264487   4.866   4.423  12.688 -0.4299 -0.4903 -0.9636
14358TIP3   OH264488   4.465   1.933   4.347  0.1574  0.0583  0.1582
14358TIP3    H164489   4.410   1.947   4.424 -0.5859 -0.2392 -0.3154
14358TIP3    H264490   4.403   1.914   4.277  0.8990 -0.9020 -0.2462
14359TIP3   OH264491   4.480   4.835   6.596 -0.2968 -0.2337  0.1041
14359TIP3    H164492   4.561   4.883   6.608  0.8156 -1.7692 -1.0170
14359TIP3    H264493   4.434   4.880   6.526 -0.5583  0.7998  0.9303
14360TIP3   OH264494   4.314   4.051  12.021 -0.1644 -0.0076 -0.4919
14360TIP3    H164495   4.230   4.069  12.063  0.1618  0.3784  0.0032
14360TIP3    H264496   4.371   4.123  12.049  0.8233 -1.1662  0.5940
14361TIP3   OH264497   4.320   6.168  15.115 -0.1469  0.0905 -0.2715
14361TIP3    H164498   4.304   6.188  15.207 -0.1499  3.2860 -0.9232
14361TIP3    H264499   4.242   6.119  15.087 -2.1843  2.8833  0.3289
14362TIP3   OH264500   1.529   3.152  16.878  0.0596  0.2285 -0.0093
14362TIP3    H164501   1.526   3.109  16.793 -1.1381  0.8891 -0.3146
14362TIP3    H264502   1.608   3.118  16.920  0.3319 -0.5487 -1.1421
14363TIP3   OH264503   2.978   1.458   0.756  0.5579  0.5779  0.3864
14363TIP3    H164504   2.917   1.500   0.695  0.7117  0.9037  0.4552
14363TIP3    H264505   2.988   1.369   0.722 -1.9504 -0.3084  1.8205
14364TIP3   OH264506   4.027   2.743  16.380  0.7657  0.0587  0.2577
14364TIP3    H164507   4.073   2.715  16.459  0.1312 -0.8955  0.2944
14364TIP3    H264508   4.080   2.815  16.346  1.2406  0.2371  1.3475
14365TIP3   OH264509   6.333   2.317  12.207  0.9697 -0.1060 -0.3349
14365TIP3    H164510   6.367   2.382  12.145 -1.5456  1.2264 -0.3788
14365TIP3    H264511   6.372   2.341  12.291  0.3371  1.2687 -0.4214
14366TIP3   OH264512   5.081   4.363   5.127 -0.4760  0.4682 -0.1187
14366TIP3    H164513   5.017   4.306   5.086 -0.2448 -0.6507  1.0520
14366TIP3    H264514   5.150   4.304   5.158 -0.5238  1.3017  1.6440
14367TIP3   OH264515   1.177   3.636  15.429 -0.6181  0.2455  0.1607
14367TIP3    H164516   1.166   3.704  15.495 -0.9273 -1.6797  2.1408
14367TIP3    H264517   1.095   3.586  15.432  0.1785 -1.1137 -0.1882
14368TIP3   OH264518   3.274   5.746  14.821  0.0791 -0.1024 -0.3913
14368TIP3    H164519   3.274   5.708  14.733  1.2583 -1.5258  0.2021
14368TIP3    H264520   3.194   5.714  14.861 -0.0572 -0.1092 -0.6667
14369TIP3   OH264521   5.076   5.947   2.860 -0.1125  0.3350  0.5299
14369TIP3    H164522   5.066   5.852   2.868  3.3437 -0.0350  0.9813
14369TIP3    H264523   4.998   5.975   2.812 -0.8076 -2.8175 -0.2804
14370TIP3   OH264524   3.813   1.348   2.927  0.3286 -0.5154  0.5261
14370TIP3    H164525   3.760   1.370   2.850  0.4240 -1.7100  0.1094
14370TIP3    H264526   3.880   1.415   2.930 -1.5331  1.3785  1.3926
14371TIP3   OH264527   0.524   6.138  14.559  0.2187 -0.6996  0.0046
14371TIP3    H164528   0.604   6.188  14.577 -0.1567 -0.2385  0.3948
14371TIP3    H264529   0.528   6.064  14.619 -1.1073  0.9173  2.1701
14372TIP3   OH264530   5.085   5.837  12.635  0.8227  0.1883 -0.5347
14372TIP3    H164531   5.128   5.812  12.553  1.6419 -1.5918  0.4031
14372TIP3    H264532   5.025   5.765  12.654  0.3925  0.7480  0.2674
14373TIP3   OH264533   4.340   0.863  14.284 -0.3533 -0.2868  0.6106
14373TIP3    H164534   4.257   0.906  14.263  0.0904 -0.1029 -0.8565
14373TIP3    H264535   4.373   0.911  14.360 -1.2768  0.0505  0.8129
14374TIP3   OH264536   0.311   4.657  17.136  0.1226  0.2880  0.8047
14374TIP3    H164537   0.381   4.718  17.159  1.1474 -1.0468  1.3579
14374TIP3    H264538   0.334   4.576  17.183 -0.2986 -1.0256 -1.1864
14375TIP3   OH264539   3.160   3.325  12.536  0.2231 -0.2286  0.4967
14375TIP3    H164540   3.096   3.374  12.588  0.7742  0.9894  0.0503
14375TIP3    H264541   3.222   3.392  12.506 -0.5224 -0.7766 -2.3938
14376TIP3   OH264542   3.058   3.162   1.392  0.0108 -0.2292 -0.1555
14376TIP3    H164543   2.972   3.191   1.422  0.3377  0.8224 -0.2173
14376TIP3    H264544   3.120   3.204   1.451  0.4896 -1.0897 -0.0255
14377TIP3   OH264545   4.165   2.912   4.368  0.9081  0.0966 -0.3353
14377TIP3    H164546   4.136   2.898   4.278 -1.1390  0.0477  0.3008
14377TIP3    H264547   4.196   2.827   4.398 -0.7677 -0.4614 -0.1814
14378TIP3   OH264548   4.444   0.257  16.043  0.5024  0.1630  0.3144
14378TIP3    H164549   4.368   0.305  16.010  1.2910  1.9195  0.9840
14378TIP3    H264550   4.519   0.312  16.021  1.4521 -0.8404  0.9625
14379TIP3   OH264551   5.717   6.408  12.382  0.5776 -0.1316  0.2147
14379TIP3    H164552   5.743   6.353  12.308 -0.7629 -0.0466 -0.3405
14379TIP3    H264553   5.774   6.484  12.376 -1.3024  1.1590 -2.3829
14380TIP3   OH264554   5.371   4.141  15.266 -0.1160 -0.2490  0.2642
14380TIP3    H164555   5.407   4.229  15.272 -0.0334 -0.1980 -0.8890
14380TIP3    H264556   5.282   4.154  15.233  0.1222 -0.6443 -0.5309
14381TIP3   OH264557   2.826   2.983  14.630  0.1763  0.3164  0.0267
14381TIP3    H164558   2.771   2.927  14.576  0.6616 -1.1084  0.9759
14381TIP3    H264559   2.901   3.004  14.573 -1.5741  2.7612 -1.4737
14382TIP3   OH264560   6.517   4.516   4.600 -0.5477 -0.1039  0.8168
14382TIP3    H164561   6.510   4.507   4.695  0.0962  0.1870  0.8970
14382TIP3    H264562   6.610   4.499   4.582 -0.6933 -0.2722  0.2304
14383TIP3   OH264563   5.922   0.436  13.886  0.2523  0.5472  0.1425
14383TIP3    H164564   5.885   0.514  13.929  1.4894  0.2056  1.8687
14383TIP3    H264565   5.965   0.388  13.957 -0.0813 -1.4757 -1.0031
14384TIP3   OH264566   6.486   0.979  10.451  0.0587 -0.5352 -0.2272
14384TIP3    H164567   6.427   0.903  10.452 -0.2749 -0.2748  0.0423
14384TIP3    H264568   6.570   0.944  10.480 -0.4463 -0.5250  1.3151
14385TIP3   OH264569   1.096   4.827   0.535  0.6067 -0.3683  0.0260
14385TIP3    H164570   1.061   4.747   0.496  0.6618 -0.1370 -0.5037
14385TIP3    H264571   1.040   4.843   0.610 -0.6069  0.1466 -0.9644
14386TIP3   OH264572   1.532   4.330  12.186 -0.0161 -0.2012 -0.2420
14386TIP3    H164573   1.527   4.372  12.100  0.5357  2.2266  0.8599
14386TIP3    H264574   1.626   4.319  12.202 -0.1314 -1.0936 -0.1367
14387TIP3   OH264575   2.691   6.389   0.878 -0.4162 -0.0671 -0.1077
14387TIP3    H164576   2.728   6.431   0.801  0.1995 -1.0990 -0.3885
14387TIP3    H264577   2.612   6.346   0.847  0.2697 -1.1701 -0.3443
14388TIP3   OH264578   0.642   3.281   0.991 -0.2600 -0.0589  0.1247
14388TIP3    H164579   0.654   3.247   0.902  0.7488 -0.5485  0.4411
14388TIP3    H264580   0.598   3.365   0.978 -0.9650 -0.5534 -0.7830
14389TIP3   OH264581   2.130   1.480  16.944  0.0265  0.2224 -0.1237
14389TIP3    H164582   2.121   1.490  16.849 -0.0174 -1.4468 -0.2985
14389TIP3    H264583   2.044   1.450  16.973  1.1649 -3.2835 -0.1277
14390TIP3   OH264584   3.806   1.982   4.647 -0.1388 -0.5289 -0.6155
14390TIP3    H164585   3.827   2.073   4.625 -1.7447 -0.2804 -1.1523
14390TIP3    H264586   3.713   1.983   4.667 -0.0289 -1.9482  0.0162
14391TIP3   OH264587   4.843   3.653  12.640  0.0852  0.0108 -0.0758
14391TIP3    H164588   4.865   3.626  12.729 -1.3310  0.2476  0.3687
14391TIP3    H264589   4.927   3.669  12.597  0.7534  0.7678  1.4999
14392TIP3   OH264590   3.025   3.605   3.502 -0.1614 -0.4520  0.1275
14392TIP3    H164591   2.968   3.665   3.454 -1.0006 -1.0485  0.3625
14392TIP3    H264592   2.993   3.517   3.479  2.0976 -0.8755 -1.5015
14393TIP3   OH264593   4.272   3.615  15.389 -0.0688 -0.2999  0.1348
14393TIP3    H164594   4.294   3.604  15.482 -0.1799 -0.9313  0.0862
14393TIP3    H264595   4.239   3.529  15.362 -0.9459  0.1576 -0.2446
14394TIP3   OH264596   2.372   4.314  11.031 -0.0324 -0.2155 -0.4048
14394TIP3    H164597   2.349   4.273  11.115 -1.2460 -4.2590 -2.5510
14394TIP3    H264598   2.467   4.302  11.024  0.0516  0.0102  0.3602
14395TIP3   OH264599   0.704   4.490   0.349 -0.0343 -0.8806  0.2044
14395TIP3    H164600   0.632   4.519   0.293  1.4328  1.5874 -0.5161
14395TIP3    H264601   0.663   4.440   0.419 -2.2566 -1.0125 -1.1702
14396TIP3   OH264602   1.362   5.536  15.429 -0.2437  0.0611 -0.2813
14396TIP3    H164603   1.408   5.619  15.439 -0.5326  0.0481  1.1446
14396TIP3    H264604   1.365   5.519  15.334 -1.4007  2.3986 -0.7862
14397TIP3   OH264605   6.433   4.714   2.437 -0.4123 -0.2173 -0.1710
14397TIP3    H164606   6.341   4.710   2.462 -0.5517  0.5981 -0.5267
14397TIP3    H264607   6.437   4.666   2.354 -0.3698 -0.9245  0.2338
14398TIP3   OH264608   0.342   3.464  16.660  0.1912  0.2194  0.1480
14398TIP3    H164609   0.343   3.412  16.741 -1.4355  0.5107  0.3601
14398TIP3    H264610   0.401   3.537  16.678  0.6385 -0.2658  0.6985
14399TIP3   OH264611   1.464   2.614   2.636 -0.0105 -0.3388  0.2686
14399TIP3    H164612   1.496   2.654   2.717  1.1136 -0.0588 -0.3013
14399TIP3    H264613   1.543   2.579   2.594 -0.4158  0.5681 -1.2897
14400TIP3   OH264614   5.456   5.696  10.541 -0.2882 -0.3153 -0.6367
14400TIP3    H164615   5.479   5.647  10.619 -1.6489  0.4343  0.2584
14400TIP3    H264616   5.366   5.725  10.557 -0.7237 -0.4633 -2.6258
14401TIP3   OH264617   0.222   3.611  14.549  0.0458  0.0057  0.0808
14401TIP3    H164618   0.189   3.621  14.460 -0.6039  2.1368  0.5110
14401TIP3    H264619   0.143   3.609  14.603  0.4660  0.4660  0.7307
14402TIP3   OH264620   0.855   0.373  11.849  0.3361  1.1047  0.1861
14402TIP3    H164621   0.847   0.342  11.939 -1.4655 -0.7748 -0.5759
14402TIP3    H264622   0.928   0.324  11.812  1.3881  2.2324  0.7595
14403TIP3   OH264623   1.867   1.786   2.436  0.1275 -0.2204  0.3532
14403TIP3    H164624   1.795   1.839   2.402  0.8616 -0.7845 -2.1920
14403TIP3    H264625   1.825   1.712   2.480 -0.8632  0.8442  1.1941
14404TIP3   OH264626   0.765   1.101   3.787  0.4268  0.3378 -0.2857
14404TIP3    H164627   0.732   1.190   3.773 -1.4064 -0.3155 -0.2900
14404TIP3    H264628   0.838   1.112   3.848 -0.0914  1.8016  0.0989
14405TIP3   OH264629   1.059   6.627   0.953  0.1455  0.0163 -0.0799
14405TIP3    H164630   1.091   6.537   0.947 -0.7816 -0.3672  0.5872
14405TIP3    H264631   1.049   6.643   1.047 -1.3238  0.2300 -0.2605
14406TIP3   OH264632   5.667   6.639   4.382  0.4571 -0.2647  0.0173
14406TIP3    H164633   5.694   6.618   4.472  0.5607 -1.3813 -0.2608
14406TIP3    H264634   5.724   6.711   4.356 -0.8823  1.3966  1.5259
14407TIP3   OH264635   1.587   0.526  12.278 -0.2868 -0.2330  0.0175
14407TIP3    H164636   1.529   0.504  12.351 -0.0138  1.7288  0.8570
14407TIP3    H264637   1.670   0.548  12.319 -0.0184  0.5084 -0.9120
14408TIP3   OH264638   4.659   4.906   5.356  0.6044  1.0126 -0.7120
14408TIP3    H164639   4.666   4.950   5.271 -0.3692  1.2896 -0.6578
14408TIP3    H264640   4.684   4.815   5.339 -0.4736  0.8539 -1.4926
14409TIP3   OH264641   1.396   6.219   2.677  0.5201 -0.2179 -0.5379
14409TIP3    H164642   1.332   6.148   2.681 -2.6266  2.4518 -0.8044
14409TIP3    H264643   1.383   6.267   2.759  2.2670  0.3244 -0.5724
14410TIP3   OH264644   5.439   3.881   4.829  0.3890 -0.1917  0.7770
14410TIP3    H164645   5.440   3.972   4.802  0.2495 -0.4259 -0.0379
14410TIP3    H264646   5.364   3.843   4.784  0.5916 -0.7693  0.9141
14411TIP3   OH264647   1.368   2.040   1.713  0.1811 -0.0696  0.1879
14411TIP3    H164648   1.315   2.049   1.635  1.0778  2.5203 -0.1890
14411TIP3    H264649   1.424   1.964   1.696 -0.9599 -0.6838 -0.8617
14412TIP3   OH264650   1.697   1.686   5.131 -0.1688  0.0367  0.3202
14412TIP3    H164651   1.732   1.648   5.050 -0.7515  0.8130 -0.2968
14412TIP3    H264652   1.654   1.612   5.174 -0.5310 -0.2099 -0.4502
14413TIP3   OH264653   0.850   1.593  12.679 -0.1158  0.4563  0.0834
14413TIP3    H164654   0.896   1.667  12.719 -0.8919  1.3830 -0.7150
14413TIP3    H264655   0.818   1.627  12.596 -0.9751 -0.6092 -0.0278
14414TIP3   OH264656   1.666   0.017  15.157 -0.7564 -0.1233 -0.7456
14414TIP3    H164657   1.640  -0.052  15.095  0.5775 -2.2732  1.0318
14414TIP3    H264658   1.583   0.054  15.186 -1.5759 -2.1144 -0.4736
14415TIP3   OH264659   2.652   1.387   3.169  0.3041 -0.3983  0.0017
14415TIP3    H164660   2.584   1.440   3.210  1.8632  1.5790  0.1106
14415TIP3    H264661   2.691   1.338   3.242 -0.0895 -0.5058  0.1418
14416TIP3   OH264662   6.785   1.891  12.733  0.3725  0.6700 -0.2915
14416TIP3    H164663   6.715   1.855  12.787 -1.0450  0.8925 -1.9411
14416TIP3    H264664   6.754   1.881  12.643  1.5974  2.5278 -0.9595
14417TIP3   OH264665   0.098   1.799   4.508  0.0237 -0.3545  0.3572
14417TIP3    H164666   0.193   1.793   4.500  0.0366 -0.3920  0.5366
14417TIP3    H264667   0.067   1.813   4.418  0.0808 -1.7497  0.1113
14418TIP3   OH264668   6.772   3.349  11.559  0.3174  0.7364  0.4141
14418TIP3    H164669   6.835   3.324  11.491 -0.0658  1.5617 -0.2505
14418TIP3    H264670   6.698   3.290  11.547  0.4689  0.5325  0.4628
14419TIP3   OH264671   3.421   2.559  14.092 -0.7441  0.9818 -0.2708
14419TIP3    H164672   3.487   2.536  14.158 -1.0780  2.2601  0.5338
14419TIP3    H264673   3.342   2.512  14.120 -0.4605  0.2540 -0.6704
14420TIP3   OH264674   0.237   4.885   4.750 -0.2778 -0.5775 -0.2770
14420TIP3    H164675   0.261   4.932   4.830  1.3612  0.4674 -1.3577
14420TIP3    H264676   0.275   4.798   4.761  2.0936  0.3206 -0.9315
14421TIP3   OH264677   2.091   4.119   2.104 -0.8631  0.0134  0.1599
14421TIP3    H164678   2.047   4.197   2.137  0.5849  2.0282 -2.4642
14421TIP3    H264679   2.024   4.074   2.052 -1.2306  0.4145  0.2865
14422TIP3   OH264680   0.611   0.315  12.519  0.0973 -0.4339  0.7206
14422TIP3    H164681   0.698   0.336  12.552 -0.2393 -0.7198  1.8223
14422TIP3    H264682   0.551   0.364  12.575 -0.4271  0.4135 -0.5588
14423TIP3   OH264683   3.740   1.617  13.345 -0.1636 -0.4071  0.2209
14423TIP3    H164684   3.756   1.546  13.407 -0.6113  1.1692  2.1966
14423TIP3    H264685   3.823   1.664  13.340 -0.6928  0.6462  1.1810
14424TIP3   OH264686   4.802   3.236  16.113 -0.1355 -0.0770  0.2373
14424TIP3    H164687   4.878   3.294  16.117 -0.9365  0.9735  0.7395
14424TIP3    H264688   4.834   3.156  16.071  0.8560  0.9513 -1.0158
14425TIP3   OH264689   4.671   6.355  14.492  0.0110  0.4782 -0.3833
14425TIP3    H164690   4.588   6.343  14.445  1.0355 -0.6199 -1.9398
14425TIP3    H264691   4.733   6.384  14.425  0.9258  1.1608  0.7477
14426TIP3   OH264692   6.236   0.613  14.395 -0.4285  0.8201 -0.3978
14426TIP3    H164693   6.143   0.632  14.386 -0.2185  0.7921 -2.9989
14426TIP3    H264694   6.278   0.699  14.400 -0.6328  0.8279  1.5558
14427TIP3   OH264695   4.543   3.969  15.912  0.0252 -0.0590  0.2945
14427TIP3    H164696   4.598   3.904  15.868  0.6434  0.2739  0.5734
14427TIP3    H264697   4.603   4.015  15.971 -0.6692 -0.0704  1.0133
14428TIP3   OH264698   4.562   0.248   3.408 -0.0369 -0.1335 -0.2295
14428TIP3    H164699   4.575   0.206   3.323  0.3953 -2.1256  0.7951
14428TIP3    H264700   4.647   0.239   3.452  0.3356  2.6252 -0.3267
14429TIP3   OH264701   2.613   4.243  13.719 -0.2259  1.2801 -0.1301
14429TIP3    H164702   2.573   4.329  13.704  0.9149  1.7191 -0.7393
14429TIP3    H264703   2.540   4.186  13.740 -1.0616  2.2888 -0.2334
14430TIP3   OH264704   0.088   5.395  15.232 -0.4517  0.3919 -0.3638
14430TIP3    H164705   0.142   5.325  15.195  0.3000  1.2289 -0.8702
14430TIP3    H264706   0.140   5.474  15.220 -0.1397  0.6824  2.6199
14431TIP3   OH264707   5.092   0.647  14.832  0.8794 -0.1752  0.0922
14431TIP3    H164708   5.044   0.709  14.776  0.7338 -0.8557 -0.5393
14431TIP3    H264709   5.043   0.648  14.915  0.0642 -0.4836 -0.3766
14432TIP3   OH264710   0.239   2.484   0.683 -0.0510 -0.3427 -0.0184
14432TIP3    H164711   0.299   2.449   0.749 -2.3964 -2.8002  0.9296
14432TIP3    H264712   0.297   2.514   0.612  2.3323 -1.8743  1.1800
14433TIP3   OH264713   2.312   6.282  14.537  0.0863 -0.1476  0.6496
14433TIP3    H164714   2.217   6.288  14.547  0.0489 -0.6604  0.5842
14433TIP3    H264715   2.339   6.211  14.595  0.2372 -1.0507 -0.5175
14434TIP3   OH264716   1.131   3.568   1.515  0.4437  0.2662  0.6954
14434TIP3    H164717   1.126   3.498   1.450  0.6673 -0.4128  1.4037
14434TIP3    H264718   1.100   3.646   1.468  0.3788 -0.2589 -0.1546
14435TIP3   OH264719   1.816   5.497  14.522 -0.0024  0.2777 -0.0303
14435TIP3    H164720   1.785   5.460  14.439  0.6914  1.6965 -0.9499
14435TIP3    H264721   1.822   5.591  14.505  0.7981  0.5003  1.4269
14436TIP3   OH264722   6.464   3.951   5.497  0.2978 -0.1195 -0.1647
14436TIP3    H164723   6.424   3.868   5.524  1.5437 -0.5427  0.3978
14436TIP3    H264724   6.558   3.938   5.509  0.4964  1.4439  0.1449
14437TIP3   OH264725   4.732   5.039   1.281 -0.2088  0.4272 -0.1912
14437TIP3    H164726   4.653   5.010   1.237 -0.9283  0.9395  0.7493
14437TIP3    H264727   4.709   5.042   1.374  1.6792 -1.9163  0.3915
14438TIP3   OH264728   3.975   1.148   4.263 -0.7403  0.0551  0.0432
14438TIP3    H164729   3.910   1.078   4.265  0.8381 -1.4215  0.8337
14438TIP3    H264730   4.033   1.126   4.190 -1.0040  1.2527 -0.5386
14439TIP3   OH264731   2.993   1.420   2.889 -0.3135 -0.1651 -0.1553
14439TIP3    H164732   3.005   1.472   2.968  0.0686 -0.1875 -0.1963
14439TIP3    H264733   3.030   1.475   2.819  0.7834 -0.7986 -0.0933
14440TIP3   OH264734   5.732   3.624  11.066  0.1066 -0.1922  0.5633
14440TIP3    H164735   5.732   3.708  11.111  2.5827 -0.1660  0.5811
14440TIP3    H264736   5.824   3.597  11.066 -0.3208 -1.7378 -1.6150
14441TIP3   OH264737   4.941   5.864  14.405 -0.5337 -0.3756 -1.2532
14441TIP3    H164738   4.979   5.798  14.346  0.0475 -0.9627 -0.2275
14441TIP3    H264739   4.878   5.816  14.458  0.2968 -0.2319 -0.1112
14442TIP3   OH264740   4.051   6.743   4.455 -0.3514 -0.0157 -0.0066
14442TIP3    H164741   4.096   6.660   4.470  0.3969 -0.1156 -2.5085
14442TIP3    H264742   4.120   6.809   4.462 -0.5850  0.2149  0.1385
14443TIP3   OH264743   3.105   6.049   1.959 -0.3894 -0.3043  0.1705
14443TIP3    H164744   3.164   6.123   1.944  0.7617 -1.3416 -0.5712
14443TIP3    H264745   3.018   6.088   1.963  0.1203  1.0184 -1.0179
14444TIP3   OH264746   5.968   1.484   4.118 -0.3867 -0.1756 -0.6420
14444TIP3    H164747   5.963   1.476   4.213 -0.2868 -0.9718 -0.7002
14444TIP3    H264748   6.034   1.552   4.103 -1.0558  0.5942 -0.1317
14445TIP3   OH264749   1.607   6.138  14.721  0.0315  0.1246 -0.1323
14445TIP3    H164750   1.515   6.112  14.718  0.6281 -2.2194  0.5490
14445TIP3    H264751   1.623   6.182  14.637 -1.4683 -0.3146 -0.6513
14446TIP3   OH264752   0.358   6.259   5.056  0.0974  0.8185 -0.1147
14446TIP3    H164753   0.265   6.262   5.079  0.6840 -1.1839  2.7982
14446TIP3    H264754   0.395   6.338   5.095 -0.4316  1.8967 -1.7372
14447TIP3   OH264755   0.095   6.636   1.668  0.2034 -0.5013  0.7058
14447TIP3    H164756   0.095   6.647   1.763 -0.4966 -0.8374  0.7494
14447TIP3    H264757   0.165   6.693   1.637 -1.8341  2.3441  1.1173
14448TIP3   OH264758   6.066   1.052  16.888 -0.1893 -0.0634  0.5043
14448TIP3    H164759   6.099   0.963  16.897 -0.0695 -0.2333 -1.3666
14448TIP3    H264760   6.037   1.058  16.797 -0.6000  1.6728  0.7253
14449TIP3   OH264761   6.377   6.621  14.047  0.8769  0.1479  0.3269
14449TIP3    H164762   6.364   6.696  13.990  1.4180 -1.0782 -1.4885
14449TIP3    H264763   6.472   6.616  14.059  0.8196 -0.0355  0.7176
14450TIP3   OH264764   3.505   4.999  12.217  0.2202 -0.6861  0.4140
14450TIP3    H164765   3.582   4.960  12.259  0.9897 -1.2959 -1.4882
14450TIP3    H264766   3.482   4.936  12.148 -1.0075  0.2852 -0.0659
14451TIP3   OH264767   2.213   4.646  16.172  0.1137  0.3147 -0.4796
14451TIP3    H164768   2.221   4.728  16.222  2.1975  0.1485 -0.4786
14451TIP3    H264769   2.180   4.582  16.235  1.3809  0.4524  0.3405
14452TIP3   OH264770   0.990   3.840   5.192 -0.1754 -0.3963 -0.5929
14452TIP3    H164771   1.078   3.821   5.225  0.2446 -1.4679 -2.2827
14452TIP3    H264772   1.005   3.887   5.110 -1.1861 -1.2816 -1.2926
14453TIP3   OH264773   6.489   0.942   4.609  0.0539 -0.5766 -0.6015
14453TIP3    H164774   6.455   0.857   4.635 -2.9147  0.5663 -0.5022
14453TIP3    H264775   6.536   0.974   4.685 -2.1058 -0.5318  0.7705
14454TIP3   OH264776   2.651   6.198   6.666  0.0083 -0.7748  0.0177
14454TIP3    H164777   2.659   6.214   6.572 -0.2089 -1.8073 -0.1772
14454TIP3    H264778   2.741   6.182   6.695 -0.0051 -1.1572 -0.1449
14455TIP3   OH264779   1.269   6.404   1.626 -0.4761 -0.5724  0.5273
14455TIP3    H164780   1.330   6.331   1.622 -0.7586 -0.8297  0.8875
14455TIP3    H264781   1.192   6.374   1.578 -0.7714 -0.6901  1.0633
14456TIP3   OH264782   4.586   2.720  14.332  0.1479  0.1085 -0.5692
14456TIP3    H164783   4.547   2.780  14.268  0.6570 -0.7333 -1.6973
14456TIP3    H264784   4.679   2.743  14.333 -0.0686  0.9719  0.8394
14457TIP3   OH264785   2.789   1.334   1.501 -0.1801 -0.2796 -0.0364
14457TIP3    H164786   2.740   1.393   1.445  0.9591  0.8631  0.1339
14457TIP3    H264787   2.739   1.253   1.501 -1.8418  0.7307 -0.1688
14458TIP3   OH264788   2.211   2.065   4.234 -0.1853 -0.1071  0.3009
14458TIP3    H164789   2.116   2.066   4.233 -0.1853  1.1328 -0.9474
14458TIP3    H264790   2.236   2.146   4.190  1.4448 -0.6341  0.2137
14459TIP3   OH264791   2.708   5.563  14.368 -0.9059 -0.0095 -1.5700
14459TIP3    H164792   2.706   5.469  14.386 -0.0473  0.1887 -0.4711
14459TIP3    H264793   2.794   5.578  14.329  0.4686  0.9284  1.6666
14460TIP3   OH264794   0.202   1.155   3.589 -0.6688  0.3603 -0.1035
14460TIP3    H164795   0.111   1.143   3.617 -0.7479  2.0162  0.4071
14460TIP3    H264796   0.195   1.189   3.500 -0.6507  2.5456  0.6791
14461TIP3   OH264797   4.010   4.889  12.238 -0.1656 -0.1237 -0.0888
14461TIP3    H164798   4.089   4.880  12.290 -0.0076  0.4240 -0.2216
14461TIP3    H264799   4.038   4.875  12.148  0.1703  1.9735 -0.3422
14462TIP3   OH264800   5.996   4.295   4.523  0.0843  0.4517 -0.1827
14462TIP3    H164801   6.090   4.314   4.520  0.3291 -0.4055  1.8067
14462TIP3    H264802   5.971   4.308   4.615 -2.7001  5.1869 -1.4194
14463TIP3   OH264803   1.996   4.562   1.636 -0.0836  0.2879 -0.0105
14463TIP3    H164804   1.990   4.636   1.695  0.9735  1.6222 -1.5371
14463TIP3    H264805   1.955   4.591   1.555 -2.7167 -1.9696  0.4378
14464TIP3   OH264806   0.742   1.709  14.706  0.0492 -0.3409 -1.0457
14464TIP3    H164807   0.766   1.619  14.683 -0.2347 -0.3804 -1.1948
14464TIP3    H264808   0.776   1.762  14.633  1.4023 -0.1625 -0.3152
14465TIP3   OH264809   6.171   1.659   2.894 -0.3938  0.4770 -0.3833
14465TIP3    H164810   6.132   1.584   2.939  1.0192  0.4117  0.7663
14465TIP3    H264811   6.096   1.709   2.862 -1.4054  0.1429  1.4261
14466TIP3   OH264812   3.019   2.545   3.929 -0.1205  0.5407  0.0629
14466TIP3    H164813   3.097   2.597   3.949  0.5005 -0.4363  0.2134
14466TIP3    H264814   3.030   2.465   3.980 -1.4662  0.5970  0.4639
14467TIP3   OH264815   2.950   4.244  11.008  0.2566 -0.6626  0.4173
14467TIP3    H164816   2.878   4.272  10.951 -0.1054 -1.4247  0.4869
14467TIP3    H264817   3.021   4.221  10.949  0.2679 -0.3784  0.3224
14468TIP3   OH264818   0.073   3.443   2.353 -0.2041 -0.3516  0.0162
14468TIP3    H164819   0.108   3.445   2.443 -1.1769 -0.0888  0.3909
14468TIP3    H264820   0.107   3.524   2.314 -1.5309  0.6326  0.8315
14469TIP3   OH264821   6.713   4.573   2.210 -0.5691  0.0874 -0.0585
14469TIP3    H164822   6.729   4.484   2.181 -1.0159  0.0810 -0.2809
14469TIP3    H264823   6.798   4.603   2.243  0.1884  0.4409 -2.2798
14470TIP3   OH264824   5.618   2.240   2.054  0.3084 -0.1687 -0.6456
14470TIP3    H164825   5.658   2.274   2.134  1.3782 -0.7711 -0.9180
14470TIP3    H264826   5.650   2.150   2.047 -0.4252 -0.3855 -1.3268
14471TIP3   OH264827   4.150   1.579   3.697  0.0845  0.2568  0.2175
14471TIP3    H164828   4.164   1.485   3.682 -0.1313  0.5486 -2.0715
14471TIP3    H264829   4.073   1.600   3.644 -1.2858  1.2865  2.5167
14472TIP3   OH264830   5.891   4.089   5.162  0.5052  0.0068  1.0922
14472TIP3    H164831   5.818   4.112   5.104  0.5273 -1.6995  0.3296
14472TIP3    H264832   5.851   4.079   5.248  0.3447  1.8727  1.2356
14473TIP3   OH264833   1.146   2.702  16.294 -0.2219 -0.2732 -0.1124
14473TIP3    H164834   1.168   2.788  16.259  1.9691 -0.2696  1.1367
14473TIP3    H264835   1.159   2.642  16.220  2.9838 -0.1025  0.2448
14474TIP3   OH264836   0.416   3.727  14.111  0.5196  0.2864  0.0446
14474TIP3    H164837   0.402   3.820  14.126  2.7118  0.5717  0.5237
14474TIP3    H264838   0.438   3.692  14.197  0.2603 -0.5718 -0.2306
14475TIP3   OH264839   1.052   5.184   3.015 -0.4318  0.5340  0.2534
14475TIP3    H164840   0.961   5.166   2.992 -0.9423  1.6587  1.3623
14475TIP3    H264841   1.075   5.114   3.076 -0.8315  0.7380  0.6451
14476TIP3   OH264842   0.224   4.190   2.926  1.2671  0.7017 -0.3517
14476TIP3    H164843   0.262   4.274   2.900 -0.8493  2.1153  0.9147
14476TIP3    H264844   0.231   4.191   3.022 -0.2020  0.1496 -0.2345
14477TIP3   OH264845   4.098   2.229  17.163 -0.1549  0.1833 -0.4469
14477TIP3    H164846   4.110   2.302  17.223  1.3016  0.4946 -1.0804
14477TIP3    H264847   4.038   2.262  17.097  1.4196  1.2532 -1.3900
14478TIP3   OH264848   5.987   2.298  12.810 -0.1877  0.1367  0.1543
14478TIP3    H164849   6.076   2.307  12.845 -0.4234  0.2104  0.7384
14478TIP3    H264850   5.955   2.216  12.848 -0.5803  0.4100  0.4112
14479TIP3   OH264851   3.156   4.535  11.111  0.1347  0.2514  0.4247
14479TIP3    H164852   3.238   4.525  11.064 -0.5511  0.7006 -0.8755
14479TIP3    H264853   3.127   4.623  11.091 -0.4344  0.2642  1.2617
14480TIP3   OH264854   4.049   6.315  12.978 -0.5716  0.3376 -0.3897
14480TIP3    H164855   4.087   6.359  13.054 -2.8426  1.6235  0.0495
14480TIP3    H264856   4.072   6.223  12.990 -1.6939  0.3644  2.3944
14481TIP3   OH264857   6.656   2.773  16.104  0.1094  0.0169 -0.0555
14481TIP3    H164858   6.611   2.722  16.036 -1.9585 -0.3505  1.5157
14481TIP3    H264859   6.743   2.735  16.109 -0.7457 -2.0763 -0.3400
14482TIP3   OH264860   0.564   0.097  13.924  0.5473 -0.1910 -0.4463
14482TIP3    H164861   0.565   0.190  13.946  0.3948  0.4814 -3.0739
14482TIP3    H264862   0.619   0.091  13.846  0.0002 -2.1980 -0.6997
14483TIP3   OH264863   1.931   0.072  13.605 -0.0429  0.0759  0.1270
14483TIP3    H164864   2.015   0.088  13.647 -0.2439  1.9877 -0.1496
14483TIP3    H264865   1.872   0.047  13.677 -0.0047  1.8055  0.7695
14484TIP3   OH264866   3.537   0.020  13.943 -0.3133 -0.0855  0.0680
14484TIP3    H164867   3.559   0.060  14.027 -0.2296  0.1844 -0.0800
14484TIP3    H264868   3.492  -0.061  13.966  1.1585 -0.8229  0.3823
14485TIP3   OH264869   3.719   4.533   0.351  0.2230 -0.0158  0.3502
14485TIP3    H164870   3.777   4.558   0.423 -0.1997 -2.3817  1.5721
14485TIP3    H264871   3.644   4.491   0.394 -1.0515  0.4390 -1.3658
14486TIP3   OH264872   1.421   1.432  16.416  0.2422 -0.0801  0.2918
14486TIP3    H164873   1.415   1.407  16.324  1.1430 -1.9031  0.7188
14486TIP3    H264874   1.439   1.527  16.414  0.4360 -0.1420 -1.4022
14487TIP3   OH264875   2.645   2.071  11.104  0.2804 -0.0673  0.5051
14487TIP3    H164876   2.694   2.018  11.041 -1.3918 -0.2704 -0.6707
14487TIP3    H264877   2.632   2.014  11.179 -0.6992 -1.0369 -0.3805
14488TIP3   OH264878   6.355   1.187   2.452 -0.1620 -0.5035 -0.1119
14488TIP3    H164879   6.378   1.206   2.543  0.8824 -1.3590 -0.1863
14488TIP3    H264880   6.335   1.093   2.451  0.5485 -0.6558 -0.9010
14489TIP3   OH264881   5.968   5.147   5.822  0.8383 -0.2648  0.4384
14489TIP3    H164882   5.874   5.142   5.842  0.2433 -0.1706 -2.1156
14489TIP3    H264883   5.996   5.230   5.860 -0.5616  0.6400 -0.4559
14490TIP3   OH264884   6.600   3.649   3.180  0.2029 -0.3101 -0.3827
14490TIP3    H164885   6.622   3.683   3.093  1.1653 -1.1638 -0.4770
14490TIP3    H264886   6.556   3.566   3.163  1.2276 -0.9266 -0.0191
14491TIP3   OH264887   4.637   4.630   5.349 -0.0543  0.4914 -0.5860
14491TIP3    H164888   4.566   4.604   5.290 -0.8051  2.1173 -0.4390
14491TIP3    H264889   4.715   4.589   5.313 -0.9857 -0.8782 -1.0696
14492TIP3   OH264890   4.185   0.876  12.389 -0.2152 -0.5018  0.7539
14492TIP3    H164891   4.273   0.913  12.384 -0.1952 -0.6741 -0.2365
14492TIP3    H264892   4.129   0.943  12.348 -0.5758 -0.2983  1.5701
14493TIP3   OH264893   5.145   1.997   3.729  0.2612 -0.3604 -0.0539
14493TIP3    H164894   5.104   1.924   3.775 -0.8687 -0.6230 -1.4627
14493TIP3    H264895   5.214   2.027   3.789 -2.8347  1.0109  2.9583
14494TIP3   OH264896   0.020   4.267  14.453  0.9906  0.0197 -0.3867
14494TIP3    H164897   0.077   4.202  14.413  1.7783  0.9674 -0.8351
14494TIP3    H264898  -0.065   4.254  14.411  1.1477 -0.7113 -0.4763
14495TIP3   OH264899   3.895   0.451   4.618 -0.0192  0.0392 -0.5703
14495TIP3    H164900   3.934   0.537   4.601 -0.1238  0.8681  2.8989
14495TIP3    H264901   3.909   0.437   4.712 -2.0564 -2.7050 -0.6200
14496TIP3   OH264902   0.105   1.070  13.824  0.0198 -0.6880 -0.3443
14496TIP3    H164903   0.144   0.987  13.851 -0.5286 -1.9319 -3.2035
14496TIP3    H264904   0.010   1.058  13.837  0.0605  0.1508  0.8690
14497TIP3   OH264905   0.953   4.369  15.002  0.0561  0.7971 -0.3533
14497TIP3    H164906   0.957   4.394  14.910 -2.3085 -0.6201 -0.8960
14497TIP3    H264907   0.924   4.278  15.001 -1.7313  1.2879  1.7972
14498TIP3   OH264908   5.813   1.666  13.774  0.4432  0.0407 -0.2232
14498TIP3    H164909   5.897   1.709  13.758  1.0748 -1.2929 -0.6127
14498TIP3    H264910   5.828   1.613  13.852  0.1113 -0.5811 -0.5810
14499TIP3   OH264911   0.994   0.325   3.188 -0.1129  0.4996 -0.0651
14499TIP3    H164912   0.939   0.308   3.265 -1.5982  2.5190 -0.6578
14499TIP3    H264913   1.031   0.239   3.166 -0.5164 -0.3089  2.2312
14500TIP3   OH264914   4.715   5.918   1.473 -0.4569 -0.5945 -0.1024
14500TIP3    H164915   4.791   5.861   1.482 -0.0057 -0.1191 -0.8926
14500TIP3    H264916   4.704   5.957   1.560  0.9174  0.2171 -0.2693
14501TIP3   OH264917   5.998   0.200  14.306 -0.1454  0.0620 -0.2852
14501TIP3    H164918   6.007   0.185  14.400  0.7850 -1.8740 -0.6597
14501TIP3    H264919   5.993   0.113  14.267 -2.0177  0.8635 -1.9137
14502TIP3   OH264920   3.130   5.139  14.475 -0.8378  0.1244  0.4194
14502TIP3    H164921   3.064   5.104  14.415  1.5300 -1.0666 -1.6039
14502TIP3    H264922   3.144   5.069  14.539 -1.5678  0.3966  0.8781
14503TIP3   OH264923   3.531   6.184   0.082 -0.0026 -0.4605  0.3003
14503TIP3    H164924   3.523   6.094   0.114 -1.7416 -0.4888 -0.1976
14503TIP3    H264925   3.444   6.206   0.050  0.5719  1.1947 -0.1525
14504TIP3   OH264926   0.083   4.984  14.753  0.3615 -0.7823  0.1446
14504TIP3    H164927   0.029   4.927  14.698 -0.5113 -0.1113  0.2945
14504TIP3    H264928   0.025   5.057  14.776  1.9434  1.0549 -1.4366
14505TIP3   OH264929   5.371   5.337   2.373  0.2245 -0.2257 -0.4678
14505TIP3    H164930   5.394   5.307   2.461 -0.2419  2.6066  0.6545
14505TIP3    H264931   5.442   5.305   2.317  0.5628 -1.9838  0.9199
14506TIP3   OH264932   4.638   6.535  15.389  0.4953  0.6193 -0.2892
14506TIP3    H164933   4.567   6.543  15.453  0.7283 -1.0665  0.2234
14506TIP3    H264934   4.637   6.442  15.365  1.4475  0.9266 -1.5446
14507TIP3   OH264935   4.940   5.337  11.871 -0.1381  0.1671 -0.3350
14507TIP3    H164936   4.917   5.371  11.785 -1.3781 -0.7932 -0.3975
14507TIP3    H264937   4.948   5.414  11.927 -1.2993  0.6526 -0.8385
14508TIP3   OH264938   1.772   4.030   4.422  0.0949 -0.6247 -0.2438
14508TIP3    H164939   1.790   3.943   4.458 -0.7805 -1.3916 -1.6214
14508TIP3    H264940   1.855   4.076   4.429  0.3086 -1.2254  1.4447
14509TIP3   OH264941   2.144   5.548   0.755 -0.0098 -0.6141 -0.0409
14509TIP3    H164942   2.212   5.484   0.775  0.6798  0.3102  0.6537
14509TIP3    H264943   2.189   5.615   0.702 -0.7739 -0.8206 -0.9670
14510TIP3   OH264944   4.156   3.003  12.365  0.5845  0.3346 -0.3047
14510TIP3    H164945   4.247   3.017  12.341 -0.0807  3.1791 -1.3759
14510TIP3    H264946   4.146   3.047  12.449  0.5160 -1.2023  0.5132
14511TIP3   OH264947   6.039   1.619   5.734  0.9248 -0.7238 -0.0326
14511TIP3    H164948   5.992   1.669   5.802 -0.6971 -1.1712 -0.8045
14511TIP3    H264949   6.100   1.682   5.696  1.3158 -0.2639  1.3234
14512TIP3   OH264950   3.648   1.450   1.116  0.1444 -0.3438  0.8204
14512TIP3    H164951   3.693   1.470   1.034  0.3449  0.4851  1.1328
14512TIP3    H264952   3.579   1.388   1.091  0.1225  0.0032  0.0045
14513TIP3   OH264953   3.099   1.546  16.434  0.4475  0.3111  0.1305
14513TIP3    H164954   3.025   1.598  16.402 -0.6571 -0.2483  1.7584
14513TIP3    H264955   3.063   1.459  16.450  2.0176 -0.6545 -1.3931
14514TIP3   OH264956   2.303   5.266  14.285 -0.6840  0.4708 -0.6625
14514TIP3    H164957   2.211   5.276  14.262  0.0101  1.0786 -3.3599
14514TIP3    H264958   2.333   5.355  14.303 -0.1611  0.5285 -1.7663
14515TIP3   OH264959   3.001   1.611   0.992  0.5025 -0.0397  0.0668
14515TIP3    H164960   3.092   1.637   1.007  1.0434 -1.8106 -0.0333
14515TIP3    H264961   2.993   1.605   0.897  0.8212 -1.6208  0.1135
14516TIP3   OH264962   5.643   1.999  12.816 -0.1618  0.2819 -0.3477
14516TIP3    H164963   5.723   2.024  12.861 -0.1591  0.1424 -0.2766
14516TIP3    H264964   5.599   2.083  12.797 -1.1204  0.2438  1.6513
14517TIP3   OH264965   1.228   6.028  15.457  0.2237 -0.2941  0.3986
14517TIP3    H164966   1.307   6.062  15.417  0.1228 -0.1878  0.2890
14517TIP3    H264967   1.185   6.105  15.494  0.9241 -0.5534  1.7682
14518TIP3   OH264968   5.800   2.069  11.522 -0.2300 -0.0463 -0.4213
14518TIP3    H164969   5.744   1.992  11.529 -0.3005 -0.0197 -0.6851
14518TIP3    H264970   5.870   2.054  11.585  0.6208 -1.0602 -1.6012
14519TIP3   OH264971   1.259   4.478  11.810  0.3962 -0.5745  0.2952
14519TIP3    H164972   1.311   4.558  11.806 -1.0747  0.3109 -2.5779
14519TIP3    H264973   1.181   4.503  11.860 -0.0197 -0.2350 -0.5212
14520TIP3   OH264974   2.924   2.401  15.381 -0.5571  0.6186  0.6244
14520TIP3    H164975   2.992   2.438  15.437  1.5598 -1.1749 -0.6894
14520TIP3    H264976   2.961   2.402  15.293 -2.0310 -0.8230 -0.0529
14521TIP3   OH264977   0.217   3.363  12.045  0.8586  0.2275 -0.1738
14521TIP3    H164978   0.228   3.272  12.020 -1.6884 -1.6154  4.6990
14521TIP3    H264979   0.142   3.394  11.995  0.2542 -1.1098 -0.0971
14522TIP3   OH264980   6.196   1.809  13.204  0.3716 -0.4041 -0.7778
14522TIP3    H164981   6.231   1.877  13.262 -0.3731 -0.9133  0.2696
14522TIP3    H264982   6.272   1.756  13.181  0.4080 -1.1324  0.9816
14523TIP3   OH264983   5.382   5.002   0.015 -1.1066  0.6483 -0.1292
14523TIP3    H164984   5.397   4.994   0.109  3.0630 -1.5103 -0.8891
14523TIP3    H264985   5.357   4.914  -0.013  1.6515  0.3128 -1.6362
14524TIP3   OH264986   2.417   2.555  10.506  0.3894 -0.2022  0.5929
14524TIP3    H164987   2.424   2.485  10.572  0.5623 -0.1941  0.5827
14524TIP3    H264988   2.486   2.617  10.530 -1.3441  1.2234  2.1112
14525TIP3   OH264989   3.102   6.635  11.479 -0.5923 -0.2836  0.2422
14525TIP3    H164990   3.027   6.615  11.422 -0.5576 -1.7096  0.6705
14525TIP3    H264991   3.106   6.731  11.480 -2.0407 -0.1939 -0.2606
14526TIP3   OH264992   0.614   2.689   6.083  0.2105 -0.8076 -0.1489
14526TIP3    H164993   0.600   2.632   6.158  1.3126  0.4872  1.0849
14526TIP3    H264994   0.686   2.747   6.110 -1.9102  2.2292 -0.7261
14527TIP3   OH264995   4.635   1.553   5.304 -0.6712  0.6090  0.3449
14527TIP3    H164996   4.572   1.613   5.266 -1.1250 -0.6413 -0.9386
14527TIP3    H264997   4.717   1.572   5.258 -1.4671 -1.6446 -2.1579
14528TIP3   OH264998   6.441   6.615   2.137 -0.3341  0.3502  0.3463
14528TIP3    H164999   6.463   6.706   2.113 -1.7953  0.3678 -0.9823
14528TIP3    H265000   6.419   6.619   2.230  0.2438  1.2405  0.4504
14529TIP3   OH265001   4.533   1.616   0.259  0.2328 -0.5891  0.1619
14529TIP3    H165002   4.477   1.569   0.198  0.2809 -0.1502 -0.2249
14529TIP3    H265003   4.536   1.561   0.337 -1.6391 -0.0797  0.6121
14530TIP3   OH265004   4.089   2.511   4.300  0.4311 -0.2710 -0.4336
14530TIP3    H165005   4.111   2.472   4.216  0.3670  1.0284 -1.0662
14530TIP3    H265006   4.169   2.557   4.327  0.7285 -1.3958  0.6303
14531TIP3   OH265007   3.993   0.689  13.549 -0.6531 -0.2702  0.0087
14531TIP3    H165008   4.069   0.739  13.518 -0.7910 -1.2339 -1.8931
14531TIP3    H265009   3.993   0.703  13.644  1.1674  0.7552 -0.1233
14532TIP3   OH265010   6.037   6.173  14.985 -0.4073 -0.8508 -0.6494
14532TIP3    H165011   5.949   6.173  15.022 -0.2454 -0.9736 -0.2699
14532TIP3    H265012   6.049   6.263  14.953  0.3940 -0.0585  1.8086
14533TIP3   OH265013   3.101   4.656  11.643 -0.0390 -0.1172  0.2060
14533TIP3    H165014   3.019   4.706  11.642 -0.6415 -1.0889  0.0754
14533TIP3    H265015   3.114   4.630  11.552  0.5887  0.2979  0.1731
14534TIP3   OH265016   3.562   3.940  12.437 -0.8170  0.2169  0.3439
14534TIP3    H165017   3.510   3.948  12.517  0.3448  2.0065  0.9451
14534TIP3    H265018   3.623   3.869  12.455  0.0359  1.2009  1.4071
14535TIP3   OH265019   1.358   0.003  12.794 -0.4795 -0.1473  0.0132
14535TIP3    H165020   1.307   0.029  12.718  0.6154 -0.9186 -1.0001
14535TIP3    H265021   1.332   0.065  12.863 -2.0465  0.0634 -0.7504
14536TIP3   OH265022   5.048   6.603   6.088  0.1519  0.1517  0.2134
14536TIP3    H165023   5.085   6.682   6.049  0.2752  0.5543  1.1351
14536TIP3    H265024   5.120   6.540   6.087  0.3765  0.4015  0.4750
14537TIP3   OH265025   6.334   1.095  16.273  0.2781  0.0135  0.3140
14537TIP3    H165026   6.319   1.101  16.178  0.8816  0.3168  0.2342
14537TIP3    H265027   6.249   1.119  16.312 -0.0805 -0.4866 -0.1510
14538TIP3   OH265028   3.338   1.136  13.897  0.3659  0.2730  0.0132
14538TIP3    H165029   3.367   1.195  13.966  0.8211 -0.7036  0.6645
14538TIP3    H265030   3.301   1.194  13.830 -0.2423  1.2140  1.1453
14539TIP3   OH265031   6.012   4.502   3.208  0.1989  0.5974 -0.2565
14539TIP3    H165032   6.105   4.519   3.197  0.1390  1.3613  0.3388
14539TIP3    H265033   5.970   4.586   3.189 -0.4227  0.0868 -1.1871
14540TIP3   OH265034   3.125   0.823   4.332  0.4731 -0.2704  0.4002
14540TIP3    H165035   3.049   0.878   4.310 -0.7974 -1.8008  0.8580
14540TIP3    H265036   3.150   0.782   4.249 -0.0162 -0.7528  0.4870
14541TIP3   OH265037   1.988   4.283   5.677 -0.1440 -0.0825 -0.6676
14541TIP3    H165038   2.001   4.316   5.588  1.1620  1.5717  0.0972
14541TIP3    H265039   1.996   4.361   5.732  1.6932 -1.4781  1.1146
14542TIP3   OH265040   4.448   1.672  13.359  0.6189  0.6450  0.2932
14542TIP3    H165041   4.531   1.676  13.408  0.1101  0.2780  1.2014
14542TIP3    H265042   4.475   1.663  13.268  1.5870  0.5330  0.5775
14543TIP3   OH265043   4.757   6.756   4.424 -0.7364 -0.4751 -0.2374
14543TIP3    H165044   4.829   6.704   4.387 -0.2006 -0.5016  0.8105
14543TIP3    H265045   4.728   6.811   4.352  1.5941  0.8855 -0.1995
14544TIP3   OH265046   3.045   4.035   0.989  0.8065  0.1746 -0.3709
14544TIP3    H165047   2.999   4.020   1.071  2.0961  1.3697  0.6082
14544TIP3    H265048   3.081   4.124   0.998 -1.0073  1.2816 -3.1746
14545TIP3   OH265049   6.637   6.579  14.083  0.3208  0.1092  0.2070
14545TIP3    H165050   6.713   6.520  14.081 -0.0219 -0.3068 -1.2118
14545TIP3    H265051   6.675   6.666  14.091  0.9193 -0.1436  0.1913
14546TIP3   OH265052   5.062   0.234   1.816  0.6618 -0.5548 -1.1831
14546TIP3    H165053   5.018   0.198   1.739 -2.0598 -2.3636  1.1485
14546TIP3    H265054   5.000   0.298   1.851  1.8311  0.1750 -0.4144
14547TIP3   OH265055   0.961   2.914   0.834 -0.2435 -0.5825 -0.1812
14547TIP3    H165056   0.875   2.916   0.877 -0.3451 -2.9346 -0.1846
14547TIP3    H265057   1.017   2.868   0.896  0.9604  0.6773 -0.3180
14548TIP3   OH265058   5.483   4.599  11.582  0.1356 -0.4350 -0.0605
14548TIP3    H165059   5.479   4.686  11.541 -0.2893 -0.2772  0.3118
14548TIP3    H265060   5.496   4.539  11.509  0.1229 -0.0841 -0.3540
14549TIP3   OH265061   3.406   6.018  16.005  0.3450  0.1073 -0.7824
14549TIP3    H165062   3.359   6.083  16.057  0.1797 -0.6874  0.0760
14549TIP3    H265063   3.400   6.050  15.915  0.1220  1.1875 -0.3904
14550TIP3   OH265064   2.904   3.606   3.762  0.0212  0.4359 -0.0672
14550TIP3    H165065   2.956   3.545   3.814 -0.3069 -0.2630 -0.5458
14550TIP3    H265066   2.947   3.609   3.677 -0.9586 -0.5217 -0.6267
14551TIP3   OH265067   4.978   2.222   0.659 -0.6298  0.2567  0.0027
14551TIP3    H165068   5.023   2.284   0.717 -0.7303 -1.8296  2.4056
14551TIP3    H265069   5.049   2.179   0.611 -0.1073 -1.5508  2.2837
14552TIP3   OH265070   6.352   3.757  11.979 -0.3936  0.1931 -0.4520
14552TIP3    H165071   6.267   3.798  11.995 -0.5472  0.6138 -2.2404
14552TIP3    H265072   6.397   3.818  11.920  1.0617 -0.1357  0.3016
14553TIP3   OH265073   4.067   0.943  11.897  0.2346 -1.0825 -0.5095
14553TIP3    H165074   4.031   0.972  11.813 -0.7611 -0.2787  0.1816
14553TIP3    H265075   4.150   0.989  11.906  0.0411 -0.6827 -0.7614
14554TIP3   OH265076   4.684   5.962   7.023 -0.3391 -0.6687  0.2951
14554TIP3    H165077   4.685   6.014   6.943 -1.4213 -0.8338  0.1763
14554TIP3    H265078   4.668   5.872   6.994 -0.6755 -0.7370  0.6949
14555TIP3   OH265079   5.657   1.008  16.863  0.2634 -0.1634 -0.0609
14555TIP3    H165080   5.670   1.091  16.818  1.7383  0.0911  0.8274
14555TIP3    H265081   5.573   1.018  16.909 -1.8048 -0.8036 -3.5160
14556TIP3   OH265082   2.228   6.348   5.014 -0.6870 -0.1475 -0.1414
14556TIP3    H165083   2.181   6.398   5.081  0.6496  1.7222 -0.5589
14556TIP3    H265084   2.320   6.353   5.040 -0.2370 -0.0181 -1.7153
14557TIP3   OH265085   2.382   6.529  16.038 -0.2578  0.3229  0.3389
14557TIP3    H165086   2.342   6.581  15.969  2.2985  1.7703 -0.1426
14557TIP3    H265087   2.468   6.505  16.003 -0.2719 -1.8548  1.6837
14558TIP3   OH265088   6.386   4.427  13.509  0.2576 -0.1911 -0.5249
14558TIP3    H165089   6.434   4.474  13.441 -0.4107  2.9498  1.0984
14558TIP3    H265090   6.431   4.451  13.590 -1.9812  0.0680  0.6534
14559TIP3   OH265091   0.670   0.872   2.923  0.1407  0.4971  0.0069
14559TIP3    H165092   0.656   0.949   2.978 -3.1298 -0.1070  0.1335
14559TIP3    H265093   0.589   0.865   2.872  1.3318 -1.5246 -1.6604
14560TIP3   OH265094   3.882   1.448  15.146 -0.2771 -0.0801 -0.1654
14560TIP3    H165095   3.865   1.382  15.212 -1.1722  2.0001  1.7501
14560TIP3    H265096   3.959   1.496  15.179 -0.7195  0.9617 -0.6169
14561TIP3   OH265097   4.886   6.203   5.617  0.6421 -0.1281  0.9060
14561TIP3    H165098   4.962   6.161   5.656 -0.6227 -0.8828  2.6285
14561TIP3    H265099   4.861   6.271   5.680 -0.3571 -0.1774  0.5737
14562TIP3   OH265100   1.649   5.695   0.753 -0.5142 -0.2757  0.0325
14562TIP3    H165101   1.561   5.663   0.772  0.6059 -3.2235  0.4496
14562TIP3    H265102   1.695   5.689   0.837 -0.0677  1.8679 -0.0332
14563TIP3   OH265103   1.685   0.144  17.231 -0.0664  0.6686  0.4192
14563TIP3    H165104   1.768   0.167  17.190 -2.3632  3.2448 -3.0519
14563TIP3    H265105   1.658   0.223  17.278 -0.6424 -0.1065  1.4284
14564TIP3   OH265106   2.164   4.830   3.993 -0.5117 -0.5268  0.0518
14564TIP3    H165107   2.079   4.869   4.011 -0.6626 -1.5318  1.6646
14564TIP3    H265108   2.202   4.815   4.079  1.1887 -0.3376 -0.6471
14565TIP3   OH265109   2.006   0.415   3.505  0.3892  0.1915 -0.6944
14565TIP3    H165110   1.998   0.509   3.521  0.8975  0.1707 -0.3201
14565TIP3    H265111   1.917   0.382   3.512  0.3087  0.5350 -0.1404
14566TIP3   OH265112   3.342   5.251   5.045  0.0512  0.1651 -0.1513
14566TIP3    H165113   3.262   5.300   5.027  0.1768 -0.7273 -3.4418
14566TIP3    H265114   3.404   5.282   4.980  0.4657 -3.5210 -1.6350
14567TIP3   OH265115   4.371   5.292   0.962 -0.2976  0.2193  0.8237
14567TIP3    H165116   4.337   5.236   1.031  0.2492 -1.4975 -0.2485
14567TIP3    H265117   4.303   5.358   0.948 -1.3441 -0.6962  1.5146
14568TIP3   OH265118   4.150   2.651  15.645 -0.2042 -0.5131  0.0569
14568TIP3    H165119   4.166   2.674  15.737 -0.8065 -1.2719  0.3615
14568TIP3    H265120   4.180   2.727  15.596  1.8881 -0.8637  0.7534
14569TIP3   OH265121   2.353   3.449  17.091 -0.2903  0.1233  0.0046
14569TIP3    H165122   2.427   3.443  17.032 -0.4160  1.0532 -0.2618
14569TIP3    H265123   2.327   3.541  17.087 -0.3991  0.1621  1.3792
14570TIP3   OH265124   0.493   1.437   2.561 -0.0942  0.1732  0.4487
14570TIP3    H165125   0.584   1.413   2.541  0.6954  1.8575  1.8086
14570TIP3    H265126   0.500   1.526   2.598 -2.4158  0.7786 -0.4896
14571TIP3   OH265127   1.630   2.457  16.994  0.5466  0.0944  0.1374
14571TIP3    H165128   1.664   2.382  17.042 -0.4653 -0.5047 -0.0588
14571TIP3    H265129   1.675   2.454  16.910  1.4778  0.4758  0.6233
14572TIP3   OH265130   1.304   6.748   5.009 -0.2439 -0.0366 -0.3736
14572TIP3    H165131   1.344   6.690   4.945 -1.1867 -1.7357  0.5312
14572TIP3    H265132   1.378   6.787   5.056  0.4141  0.3270 -1.7080
14573TIP3   OH265133   4.383   0.552  14.506 -0.1910 -0.4638  0.4114
14573TIP3    H165134   4.291   0.576  14.493  0.0317 -0.1499 -0.6762
14573TIP3    H265135   4.422   0.561  14.419  1.1488  0.6624  1.1156
14574TIP3   OH265136   4.369   2.947   3.013  0.0944 -0.5280 -0.0986
14574TIP3    H165137   4.434   2.970   2.946 -0.4994 -0.6012 -0.7045
14574TIP3    H265138   4.285   2.971   2.974 -0.2337 -0.3288  0.7316
14575TIP3   OH265139   2.638   3.555  12.111 -0.2189  0.4701  0.0975
14575TIP3    H165140   2.705   3.487  12.106  0.4945  1.1295  0.7179
14575TIP3    H265141   2.685   3.634  12.136 -0.8198  1.5241 -2.0022
14576TIP3   OH265142   6.133   3.551   4.918 -0.2048  0.3662  0.4722
14576TIP3    H165143   6.166   3.639   4.897 -1.1089  0.4342 -0.7428
14576TIP3    H265144   6.211   3.499   4.935  0.4756  0.8717 -0.9739
14577TIP3   OH265145   2.933   6.310  16.171  0.3130 -0.2264 -0.1087
14577TIP3    H165146   2.932   6.310  16.075  0.0349 -0.1320 -0.1075
14577TIP3    H265147   2.840   6.310  16.195  0.3097  3.4188  0.1502
14578TIP3   OH265148   5.947   3.760  11.346  0.1849  0.3633 -0.2056
14578TIP3    H165149   5.885   3.798  11.284 -1.0045  0.6924  1.1432
14578TIP3    H265150   6.004   3.833  11.371 -0.9891  0.8863  1.0436
14579TIP3   OH265151   4.028   1.905   0.240  0.1115 -0.3010 -0.2835
14579TIP3    H165152   3.943   1.872   0.271 -0.7674  3.1661  1.2689
14579TIP3    H265153   4.020   1.907   0.145 -1.2321 -0.7728 -0.1894
14580TIP3   OH265154   4.862   6.196  12.035 -0.2844 -0.0734 -0.6835
14580TIP3    H165155   4.956   6.178  12.039 -0.2518  0.3762  0.9651
14580TIP3    H265156   4.848   6.231  11.947  1.1622  0.2762 -0.7888
14581TIP3   OH265157   1.887   6.414  12.933 -0.7948  0.2236 -0.0687
14581TIP3    H165158   1.941   6.399  13.010  2.5120 -0.8120 -2.4968
14581TIP3    H265159   1.854   6.327  12.910  0.9120 -0.0274 -1.6805
14582TIP3   OH265160   6.051   1.507  13.590  0.0916  0.0145 -0.5001
14582TIP3    H165161   6.130   1.465  13.556 -0.4330 -0.0799 -1.6505
14582TIP3    H265162   6.016   1.555  13.515 -0.0913  1.3368  0.4298
14583TIP3   OH265163   6.563   2.796  16.521 -1.0493  0.4689  0.4103
14583TIP3    H165164   6.528   2.883  16.500 -2.2220  0.1747  1.0751
14583TIP3    H265165   6.581   2.799  16.614 -0.4460  0.2068  0.3038
14584TIP3   OH265166   3.761   4.157   5.610 -0.9479  0.0219 -0.1846
14584TIP3    H165167   3.665   4.153   5.615 -0.9045  0.5024  1.0838
14584TIP3    H265168   3.789   4.172   5.700  0.2234  1.8281 -0.8397
14585TIP3   OH265169   0.491   0.051  14.403  0.5895 -0.3653 -0.9638
14585TIP3    H165170   0.466   0.041  14.311  0.0484  0.0025 -0.8569
14585TIP3    H265171   0.484   0.145  14.420 -0.1430 -0.5308 -0.3153
14586TIP3   OH265172   4.942   6.718  11.520 -0.5077 -0.7524  0.0632
14586TIP3    H165173   4.941   6.655  11.448  1.4967 -0.4976 -0.2128
14586TIP3    H265174   4.967   6.667  11.597 -1.4057 -0.7764  0.3486
14587TIP3   OH265175   6.645   3.350  12.119  0.1167  0.2441  0.2338
14587TIP3    H165176   6.717   3.350  12.055 -1.4205  3.1889 -1.6196
14587TIP3    H265177   6.626   3.257  12.133  2.1185 -0.5263 -1.7160
14588TIP3   OH265178   6.390   5.516  16.014 -0.1833  0.1106  0.1801
14588TIP3    H165179   6.470   5.562  16.041  0.3931 -1.3162  0.9284
14588TIP3    H265180   6.337   5.511  16.094 -0.5227  0.0148 -0.0480
14589TIP3   OH265181   2.201   2.346  16.720 -0.3954 -0.5139 -0.0792
14589TIP3    H165182   2.169   2.374  16.634  0.8634 -2.3502 -1.1809
14589TIP3    H265183   2.130   2.370  16.780 -1.1652  1.0760 -1.5651
14590TIP3   OH265184   2.521   4.075   4.398 -0.0267  0.3085  0.1756
14590TIP3    H165185   2.501   4.138   4.468  0.0424 -1.1123  1.4949
14590TIP3    H265186   2.564   4.003   4.443 -0.8158 -1.0497 -1.2269
14591TIP3   OH265187   3.240   1.333  11.137 -0.5656  0.3472 -0.0826
14591TIP3    H165188   3.174   1.335  11.068  0.1705  0.4328 -0.8003
14591TIP3    H265189   3.323   1.318  11.090 -0.4142 -2.6798  1.0379
14592TIP3   OH265190   4.602   3.426   1.897  0.1639 -0.1436 -0.1132
14592TIP3    H165191   4.588   3.419   1.991  0.0278  0.6875 -0.0667
14592TIP3    H265192   4.694   3.401   1.885  1.1774  2.9091  0.6656
14593TIP3   OH265193   3.862   3.795   2.303 -0.0200  0.1340  0.4353
14593TIP3    H165194   3.887   3.854   2.232 -0.4632 -0.4711 -0.2271
14593TIP3    H265195   3.786   3.836   2.344 -0.1361  0.1767  0.1733
14594TIP3   OH265196   0.919   4.614  15.146 -0.2776  0.2337 -0.4919
14594TIP3    H165197   0.852   4.651  15.089  0.0313  0.3005 -0.8097
14594TIP3    H265198   0.947   4.534  15.102  2.0304  1.7759 -1.9040
14595TIP3   OH265199   0.008   2.534   2.142 -0.3209 -0.0216 -0.0462
14595TIP3    H165200  -0.004   2.629   2.153  0.2440  0.2161 -1.3405
14595TIP3    H265201   0.004   2.521   2.047  0.6035 -1.1477  0.0615
14596TIP3   OH265202   2.745   2.861  16.503 -0.1730  0.1444 -0.1260
14596TIP3    H165203   2.741   2.838  16.410  0.1592  0.8717 -0.3271
14596TIP3    H265204   2.730   2.956  16.504 -0.0764  0.1532  0.5544
14597TIP3   OH265205   5.233   5.436  11.371  0.2028 -0.4286  0.0806
14597TIP3    H165206   5.204   5.401  11.287 -0.5278 -1.1196  0.6211
14597TIP3    H265207   5.159   5.488  11.403  0.7470  0.4290 -0.0390
14598TIP3   OH265208   6.080   2.554   5.858  0.1536 -0.0094  0.2382
14598TIP3    H165209   6.084   2.463   5.829 -0.1104  0.3577 -0.9619
14598TIP3    H265210   5.987   2.571   5.871  0.0710  0.5606 -1.0654
14599TIP3   OH265211   1.279   4.995  15.825 -0.3359 -0.0681 -0.1516
14599TIP3    H165212   1.347   4.937  15.858  1.0860  1.2754 -0.6954
14599TIP3    H265213   1.287   4.990  15.730 -2.3390 -1.4732 -0.2747
14600TIP3   OH265214   0.255   5.538   0.345  0.0206 -0.0129  0.1700
14600TIP3    H165215   0.345   5.569   0.353 -0.4507  1.1128  1.3189
14600TIP3    H265216   0.231   5.511   0.434 -1.3527  1.3459  0.2343
14601TIP3   OH265217   2.449   3.192  12.538  0.5345 -0.2918 -0.0481
14601TIP3    H165218   2.469   3.197  12.445  0.3065 -2.0506 -0.2068
14601TIP3    H265219   2.521   3.238  12.581  0.0915  1.4530 -1.1483
14602TIP3   OH265220   3.224   4.194  16.453  0.0696  0.1180 -0.4748
14602TIP3    H165221   3.163   4.123  16.476  0.6147  0.0115  0.7008
14602TIP3    H265222   3.305   4.171  16.499  0.1831  1.6199  0.0784
14603TIP3   OH265223   6.769   5.340   5.881 -0.1981 -0.2716  0.0052
14603TIP3    H165224   6.692   5.326   5.937  1.2453 -1.4668  1.7318
14603TIP3    H265225   6.811   5.254   5.876  1.0392  0.3708 -0.9118
14604TIP3   OH265226   2.813   0.209  12.160 -0.1089  0.0312  0.1237
14604TIP3    H165227   2.732   0.207  12.110 -1.0685  0.2427  1.6418
14604TIP3    H265228   2.864   0.280  12.121 -1.1678  0.7026 -0.0386
14605TIP3   OH265229   2.025   5.087  16.276  0.2203  0.1194 -0.1789
14605TIP3    H165230   1.942   5.129  16.254  0.9115  1.6883  0.1293
14605TIP3    H265231   2.000   5.007  16.322 -1.1225  0.0632 -0.9659
14606TIP3   OH265232   3.902   1.067  12.887  0.3502 -0.0093  0.0708
14606TIP3    H165233   3.833   1.049  12.951 -0.7449  1.2885 -0.7085
14606TIP3    H265234   3.905   1.163  12.881  4.7036  0.1888  2.7225
14607TIP3   OH265235   1.033   1.403  16.021 -0.0002  0.1035 -0.6517
14607TIP3    H165236   1.004   1.490  16.048 -0.8100 -0.3099 -0.1488
14607TIP3    H265237   1.040   1.409  15.925 -0.8159  0.5052 -0.6966
14608TIP3   OH265238   0.590   2.443  11.586  0.2342  0.0699 -0.2863
14608TIP3    H165239   0.605   2.500  11.662  0.3384 -1.8547  1.1674
14608TIP3    H265240   0.552   2.363  11.622  1.0120 -1.1968 -2.1531
14609TIP3   OH265241   0.699   0.579   3.379 -0.3061  0.7445  0.6427
14609TIP3    H165242   0.644   0.515   3.334  1.3433 -0.7788  0.7498
14609TIP3    H265243   0.640   0.651   3.400 -1.4653  0.7738 -2.4982
14610TIP3   OH265244   0.778   1.736   1.584 -0.1009  0.1264  0.4664
14610TIP3    H165245   0.824   1.741   1.501 -0.0713 -0.7204  0.4265
14610TIP3    H265246   0.797   1.819   1.627  1.1056 -0.0346  0.2606
14611TIP3   OH265247   3.236   1.016  14.154  0.0857 -0.0250 -0.0982
14611TIP3    H165248   3.186   1.084  14.108  2.2777  2.0142  0.3929
14611TIP3    H265249   3.175   0.981  14.218 -0.8611  2.1460  0.2459
14612TIP3   OH265250   0.134   4.938   2.511  0.5323  0.1361 -0.2650
14612TIP3    H165251   0.053   4.920   2.464  0.5161  2.3088 -1.1287
14612TIP3    H265252   0.107   4.951   2.602 -0.2941  2.1565 -0.7768
14613TIP3   OH265253   4.413   1.033  10.501  0.4261  0.2460 -0.3948
14613TIP3    H165254   4.343   1.092  10.472 -0.1481 -0.5151 -0.5506
14613TIP3    H265255   4.385   1.002  10.587  0.6746  0.0998 -0.3651
14614TIP3   OH265256   2.468   1.481  14.955 -0.4404 -0.1582 -0.1870
14614TIP3    H165257   2.380   1.518  14.968 -0.0560  1.2716 -1.4340
14614TIP3    H265258   2.466   1.447  14.865  0.0878 -0.6824  0.0008
14615TIP3   OH265259   4.595   4.668  15.021 -0.2861  0.0456 -0.3719
14615TIP3    H165260   4.600   4.720  14.941  0.8667  1.7604  0.7810
14615TIP3    H265261   4.515   4.616  15.011 -0.8692  1.2332 -2.0215
14616TIP3   OH265262   3.563   3.384  12.647 -0.0676  0.3468 -0.0325
14616TIP3    H165263   3.544   3.356  12.737 -0.9384 -0.3355 -0.4223
14616TIP3    H265264   3.520   3.318  12.592  1.5556  0.0290 -0.9457
14617TIP3   OH265265   3.442   4.657  13.338  0.2222 -0.2210  0.2278
14617TIP3    H165266   3.410   4.653  13.428 -0.0114 -0.0310  0.1526
14617TIP3    H265267   3.530   4.620  13.342  0.7729  1.1497  0.7922
14618TIP3   OH265268   4.522   1.925  10.824 -0.1142  0.1603  0.6165
14618TIP3    H165269   4.542   1.980  10.748 -1.7714  0.6975  0.5584
14618TIP3    H265270   4.595   1.863  10.827 -0.8232 -0.9377 -2.4291
14619TIP3   OH265271   1.903   5.237  14.225 -0.0155  0.0648 -0.1284
14619TIP3    H165272   1.838   5.215  14.292 -0.6408  0.5442 -0.5648
14619TIP3    H265273   1.985   5.204  14.260 -0.1783  1.0805  1.2944
14620TIP3   OH265274   3.814   6.344   3.073  0.2865 -0.4214  0.1725
14620TIP3    H165275   3.822   6.351   3.168 -1.3871  2.9200  0.1421
14620TIP3    H265276   3.726   6.308   3.060  0.9195 -1.9158 -0.1463
14621TIP3   OH265277   2.360   0.977  14.693 -0.4289 -0.1344 -0.0770
14621TIP3    H165278   2.389   0.887  14.679 -0.8350 -0.4427  1.0785
14621TIP3    H265279   2.382   1.022  14.610  1.4974 -0.8203  0.0282
14622TIP3   OH265280   5.345   3.903  16.571 -0.7382  0.2562  0.0618
14622TIP3    H165281   5.321   3.936  16.484 -1.6023 -0.2505  0.0979
14622TIP3    H265282   5.355   3.981  16.625  1.7725  0.7023 -0.9663
14623TIP3   OH265283   5.029   6.264  11.267 -0.2273 -0.6295  0.5248
14623TIP3    H165284   5.063   6.286  11.180 -1.1499  1.7965  0.7400
14623TIP3    H265285   5.004   6.172  11.260  0.5758 -0.7251 -1.4871
14624TIP3   OH265286   3.460   0.085   4.878  0.1685  0.7479 -0.5061
14624TIP3    H165287   3.445  -0.002   4.841 -1.0243  0.2668  1.0368
14624TIP3    H265288   3.422   0.146   4.814  1.1301  0.1544 -1.6536
14625TIP3   OH265289   4.797   4.452   6.944 -0.8179  0.2001  0.1421
14625TIP3    H165290   4.747   4.499   7.011 -1.4717  0.2258 -0.3537
14625TIP3    H265291   4.769   4.361   6.953 -1.7754  0.3839 -0.8462
14626TIP3   OH265292   3.067   2.500  15.169  0.4925 -0.3150 -0.2527
14626TIP3    H165293   3.054   2.595  15.174  1.1061 -0.3374  2.3660
14626TIP3    H265294   3.005   2.471  15.102  0.0860  1.8862 -0.8754
14627TIP3   OH265295   1.395   4.334   3.049  0.3630 -0.3925  0.1767
14627TIP3    H165296   1.475   4.283   3.065  0.3824 -0.8097 -1.2667
14627TIP3    H265297   1.353   4.291   2.975 -1.1339 -0.0760  0.8361
14628TIP3   OH265298   6.602   1.917  13.384  1.0717 -0.1433 -0.3318
14628TIP3    H165299   6.581   1.971  13.307 -0.0251  0.1509  0.1678
14628TIP3    H265300   6.695   1.896  13.373  1.0284  0.2261 -1.5361
14629TIP3   OH265301   3.804   3.203   1.537 -0.0627 -0.2473  0.0494
14629TIP3    H165302   3.883   3.257   1.542 -0.0126 -0.1507 -1.5007
14629TIP3    H265303   3.820   3.131   1.597  1.2830 -0.3212 -0.3866
14630TIP3   OH265304   5.619   5.885  14.307 -0.5743 -0.1066  0.1127
14630TIP3    H165305   5.675   5.960  14.283 -1.1987  0.0863 -0.7805
14630TIP3    H265306   5.622   5.828  14.230  0.1104 -1.1280  0.8982
14631TIP3   OH265307   3.884   0.636  16.146  0.5730  0.5135  0.0693
14631TIP3    H165308   3.970   0.609  16.180  0.5409  2.2093  1.5307
14631TIP3    H265309   3.846   0.555  16.112  2.7183 -0.2856 -0.5457
14632TIP3   OH265310   3.946   3.455   2.055  0.6152 -0.9322  0.3936
14632TIP3    H165311   3.989   3.480   2.137  1.9301  0.7699 -0.7739
14632TIP3    H265312   3.858   3.427   2.081  0.2871  1.6053  2.1733
14633TIP3   OH265313   0.820   2.828   1.201 -0.5677 -0.6955 -0.4404
14633TIP3    H165314   0.905   2.811   1.160 -0.0020 -0.5001  0.6347
14633TIP3    H265315   0.770   2.874   1.134  0.3891 -0.2694 -0.8662
14634TIP3   OH265316   1.987   6.364  12.224  0.3243 -0.4981  0.0009
14634TIP3    H165317   1.898   6.345  12.194  1.2488 -1.4063 -2.2452
14634TIP3    H265318   1.977   6.445  12.276 -1.5875  0.2400 -1.4289
14635TIP3   OH265319   6.315   1.540   5.169  0.2851 -0.2439  0.5222
14635TIP3    H165320   6.371   1.463   5.182 -0.6633 -0.8033  1.3938
14635TIP3    H265321   6.243   1.508   5.114  0.5585  0.3528 -0.1955
14636TIP3   OH265322   4.822   1.016   0.131  0.0024  0.2068  0.1218
14636TIP3    H165323   4.826   0.950   0.061  2.2390  0.3852  0.0651
14636TIP3    H265324   4.795   1.096   0.086 -0.6274 -0.1595 -0.1717
14637TIP3   OH265325   4.364   6.364  16.426 -0.5073  0.3351  0.1250
14637TIP3    H165326   4.398   6.440  16.475 -0.1241 -0.4384  1.0786
14637TIP3    H265327   4.410   6.367  16.342  0.5560  0.3451  0.7036
14638TIP3   OH265328   5.054   4.500  12.615 -0.0444 -0.1396  0.0274
14638TIP3    H165329   5.111   4.423  12.620  0.9798  0.6515  0.7087
14638TIP3    H265330   5.079   4.543  12.534 -1.1823 -0.9470 -0.7695
14639TIP3   OH265331   3.831   4.395  10.932  0.2515 -0.7189 -0.2459
14639TIP3    H165332   3.749   4.384  10.884 -0.9595 -1.2390  1.8794
14639TIP3    H265333   3.844   4.311  10.976  1.6987 -0.4842 -0.2089
14640TIP3   OH265334   2.128   6.241   4.193  0.1014  0.5601 -0.1546
14640TIP3    H165335   2.045   6.288   4.197 -0.2057  0.1001 -1.0282
14640TIP3    H265336   2.115   6.176   4.124  1.2907  0.6769 -0.4851
14641TIP3   OH265337   3.245   2.273  14.401  0.5558 -0.0881  0.2292
14641TIP3    H165338   3.317   2.251  14.461  0.5697  3.1976  1.5646
14641TIP3    H265339   3.258   2.366  14.382 -3.6130  0.7129  0.8570
14642TIP3   OH265340   4.940   4.996  11.993  0.0836 -0.1636  0.4080
14642TIP3    H165341   5.024   5.010  12.037  0.5030  0.8493 -0.6850
14642TIP3    H265342   4.938   4.902  11.974  0.3541 -0.4259  1.6607
14643TIP3   OH265343   4.883   4.804  15.863 -0.4361 -0.0313 -0.2716
14643TIP3    H165344   4.789   4.800  15.848 -0.0291 -4.4687 -2.4340
14643TIP3    H265345   4.914   4.870  15.801 -1.8979  0.1855 -0.7907
14644TIP3   OH265346   1.762   6.406   5.926  0.4799 -0.2673  0.2836
14644TIP3    H165347   1.854   6.399   5.950  0.0079 -2.1998  1.6266
14644TIP3    H265348   1.728   6.479   5.978  1.4894  1.2163 -1.0804
14645TIP3   OH265349   5.371   0.386  13.148  0.7872  0.4101 -0.4547
14645TIP3    H165350   5.357   0.348  13.061  0.8663 -0.3823 -0.1279
14645TIP3    H265351   5.364   0.480  13.135 -0.6180  0.2201 -1.0578
14646TIP3   OH265352   1.014   0.291  15.926 -0.1568 -0.0392  0.6752
14646TIP3    H165353   1.076   0.245  15.869 -0.2838  0.4271  0.1609
14646TIP3    H265354   0.951   0.223  15.951  1.2028 -0.7893  2.1501
14647TIP3   OH265355   6.750   4.896   5.902  0.8835 -0.2009 -0.1305
14647TIP3    H165356   6.810   4.828   5.934  1.2410 -0.4425 -1.2976
14647TIP3    H265357   6.717   4.938   5.982  4.3635  1.4444  0.5331
14648TIP3   OH265358   2.516   3.085   4.740 -0.2460  0.3323 -0.1678
14648TIP3    H165359   2.421   3.086   4.727 -0.1875 -0.1343 -0.6740
14648TIP3    H265360   2.539   2.992   4.737 -0.0578  0.2731  2.1238
14649TIP3   OH265361   0.540   0.667   1.453 -0.2223  0.5697  0.0841
14649TIP3    H165362   0.499   0.748   1.424 -0.7435  0.5756  0.8247
14649TIP3    H265363   0.535   0.670   1.549 -1.1122 -0.7821  0.0962
14650TIP3   OH265364   4.702   2.827   3.003  0.2896  0.6837  0.5403
14650TIP3    H165365   4.624   2.772   2.992  0.4450  0.3106  1.2852
14650TIP3    H265366   4.726   2.851   2.914 -1.0061  1.2674  0.3379
14651TIP3   OH265367   3.687   3.999  14.454  0.4091  0.8635  0.5472
14651TIP3    H165368   3.753   3.957  14.510 -1.1349 -2.2469  0.1095
14651TIP3    H265369   3.736   4.026  14.377  1.2186 -1.5958  0.1389
14652TIP3   OH265370   3.301   3.510   2.752 -0.0518 -0.4659  0.0954
14652TIP3    H165371   3.356   3.571   2.703  0.1333 -0.8718 -0.1978
14652TIP3    H265372   3.341   3.507   2.839  0.6455 -1.1006 -0.2493
14653TIP3   OH265373   6.293   1.917   3.421 -0.0139 -0.2124 -0.1428
14653TIP3    H165374   6.282   1.840   3.477 -1.4995  0.6620  0.8121
14653TIP3    H265375   6.373   1.899   3.371  0.8858 -1.4134  1.6395
14654TIP3   OH265376   2.463   2.997   1.842 -0.5730 -0.2419 -0.4160
14654TIP3    H165377   2.502   3.007   1.756 -0.3099 -0.3476 -0.3100
14654TIP3    H265378   2.370   3.018   1.829 -0.2941  1.0422 -0.4588
14655TIP3   OH265379   6.124   1.017   4.939  0.5281  0.0091  0.2272
14655TIP3    H165380   6.115   1.024   4.844 -0.9062 -1.9740  0.2055
14655TIP3    H265381   6.191   1.082   4.960  1.6777 -0.2787 -2.2659
14656TIP3   OH265382   5.847   6.485   5.878 -0.3093  0.0348 -0.3090
14656TIP3    H165383   5.821   6.467   5.968 -1.0346 -1.9301 -0.8620
14656TIP3    H265384   5.817   6.574   5.861  0.0651  0.5096  1.4567
14657TIP3   OH265385   4.356   5.426   3.047  0.3609  0.4575 -0.0383
14657TIP3    H165386   4.348   5.336   3.080  1.9641  0.3219  0.0420
14657TIP3    H265387   4.416   5.418   2.973  0.8568  1.5238  0.2455
14658TIP3   OH265388   3.242   2.353   4.659 -0.3098 -0.0559  0.1634
14658TIP3    H165389   3.186   2.398   4.723 -0.2174 -1.1515  1.0153
14658TIP3    H265390   3.303   2.421   4.629  0.3237  0.2006  1.9978
14659TIP3   OH265391   1.713   6.673   2.343  0.4259 -0.3521 -0.2075
14659TIP3    H165392   1.642   6.697   2.403 -0.7037  1.7426 -2.3409
14659TIP3    H265393   1.690   6.714   2.260  3.0390 -1.4703 -1.5395
14660TIP3   OH265394   2.769   0.756  13.131  0.3290 -0.2842  0.2215
14660TIP3    H165395   2.763   0.744  13.226  3.4199 -2.3538  0.2327
14660TIP3    H265396   2.862   0.771  13.115 -0.0675 -0.6111 -2.5617
14661TIP3   OH265397   0.410   4.857  16.160  0.2480  0.1619 -0.7793
14661TIP3    H165398   0.315   4.863  16.168  0.2035  0.3649 -1.4154
14661TIP3    H265399   0.439   4.947  16.142  0.5982  0.1695 -0.1782
14662TIP3   OH265400   2.260   6.277  16.820  0.4691  0.2566  0.2814
14662TIP3    H165401   2.194   6.319  16.766 -0.5573 -2.6338 -0.8132
14662TIP3    H265402   2.219   6.266  16.906  0.8807  1.7805  0.6846
14663TIP3   OH265403   6.764   4.264  12.747 -0.2070 -1.1141 -0.1086
14663TIP3    H165404   6.759   4.282  12.841 -1.9262 -2.3599  0.0519
14663TIP3    H265405   6.749   4.349  12.706  1.3027 -0.4213  0.7357
14664TIP3   OH265406   5.892   0.631  12.387 -0.0854 -0.9004 -0.4093
14664TIP3    H165407   5.953   0.701  12.407 -1.9774  0.5474  0.4301
14664TIP3    H265408   5.847   0.613  12.470 -4.3054  1.5475 -1.9733
14665TIP3   OH265409   1.260   4.207  15.152  0.5417  0.6368 -0.0838
14665TIP3    H165410   1.221   4.190  15.066  0.0023 -1.9736  0.6420
14665TIP3    H265411   1.186   4.209  15.212  1.0394  1.2215  0.5158
14666TIP3   OH265412   2.003   2.150  17.128  0.5992 -0.0676 -0.6393
14666TIP3    H165413   2.095   2.147  17.154  0.4941  0.8148 -0.1148
14666TIP3    H265414   1.988   2.069  17.080  1.3712 -0.7151  0.2006
14667TIP3   OH265415   1.833   0.343   2.013  0.6318 -0.4006 -0.5789
14667TIP3    H165416   1.852   0.249   2.018  0.0654 -0.5099 -0.4000
14667TIP3    H265417   1.751   0.348   1.963  0.4659 -0.0245 -0.2723
14668TIP3   OH265418   3.348   1.440  16.041  0.2877  0.1542  0.5336
14668TIP3    H165419   3.372   1.528  16.012 -0.4082  0.4859  0.9604
14668TIP3    H265420   3.422   1.385  16.014  0.7818  0.8882  0.3852
14669TIP3   OH265421   2.890   2.164  14.111 -0.0189  0.0639  0.2163
14669TIP3    H165422   2.901   2.091  14.050 -0.4547 -1.4583  1.8947
14669TIP3    H265423   2.979   2.195  14.128  0.2704 -0.9022  0.4662
14670TIP3   OH265424   4.604   6.252  11.772  0.3230 -0.1944 -0.3988
14670TIP3    H165425   4.567   6.282  11.855 -1.6083 -0.3392 -1.1965
14670TIP3    H265426   4.615   6.157  11.784 -0.6088 -0.3277 -0.5384
14671TIP3   OH265427   6.099   3.090  13.300  0.3554 -0.6423 -0.1793
14671TIP3    H165428   6.148   3.111  13.221 -0.7097  0.5815 -0.5268
14671TIP3    H265429   6.163   3.094  13.370  1.0635 -0.5502 -0.8309
14672TIP3   OH265430   5.766   2.071   2.771  0.7084 -0.4069  0.2333
14672TIP3    H165431   5.726   2.073   2.858  0.7639 -0.0924  0.2493
14672TIP3    H265432   5.701   2.026   2.716  0.1091  0.5475  0.1454
14673TIP3   OH265433   4.214   5.010  14.887 -0.1510  0.0697 -0.1941
14673TIP3    H165434   4.223   5.071  14.813 -0.3610 -0.9592 -1.0767
14673TIP3    H265435   4.121   4.988  14.888  0.2484 -1.6990 -1.0589
14674TIP3   OH265436   2.424   1.064   1.333  0.0860  0.4059 -0.2256
14674TIP3    H165437   2.365   0.996   1.300 -0.5293  1.7536 -1.9197
14674TIP3    H265438   2.369   1.140   1.349  0.7805  0.5553  1.6519
14675TIP3   OH265439   0.119   3.586  14.290 -0.2180  0.1270 -0.6461
14675TIP3    H165440   0.032   3.570  14.328  0.8881 -0.8652  1.5511
14675TIP3    H265441   0.120   3.534  14.210 -0.9185 -1.5012  0.3894
14676TIP3   OH265442   1.672   6.309   4.270 -0.8914 -0.8222  0.5949
14676TIP3    H165443   1.767   6.316   4.269 -0.7447 -2.7153 -0.3250
14676TIP3    H265444   1.650   6.286   4.360 -0.5664  0.4512  1.0132
14677TIP3   OH265445   0.876   0.488   4.095  0.2354  0.4021 -0.3176
14677TIP3    H165446   0.924   0.571   4.087 -1.7233  1.5462 -0.5431
14677TIP3    H265447   0.861   0.477   4.189  1.0913 -0.0552 -0.2305
14678TIP3   OH265448   2.605   2.032  12.411 -0.3563  1.0425 -0.0996
14678TIP3    H165449   2.550   2.080  12.472 -1.4984  0.3276 -0.5428
14678TIP3    H265450   2.552   2.023  12.332  0.3036  0.1371 -0.4617
14679TIP3   OH265451   4.298   6.499   5.510 -0.6999 -0.4776 -1.4043
14679TIP3    H165452   4.279   6.407   5.493  1.3210 -1.4588  1.2466
14679TIP3    H265453   4.220   6.532   5.555 -0.1504 -1.8219  0.6013
14680TIP3   OH265454   1.636   0.650   6.253  0.2051  0.3811  0.2884
14680TIP3    H165455   1.651   0.605   6.336  1.3555 -1.9300 -1.0909
14680TIP3    H265456   1.632   0.579   6.188  0.9012  2.2230 -1.8378
14681TIP3   OH265457   1.553   3.193  11.260  0.3488  0.0484 -0.1099
14681TIP3    H165458   1.539   3.284  11.235  1.5613  0.6613  1.3314
14681TIP3    H265459   1.539   3.143  11.179  1.6528  1.7124 -1.3946
14682TIP3   OH265460   1.750   0.599  14.067 -0.2128  0.4667 -0.1672
14682TIP3    H165461   1.680   0.552  14.112  1.9277 -2.0550  0.6631
14682TIP3    H265462   1.715   0.617  13.980 -1.9853 -0.4976  0.3297
14683TIP3   OH265463   2.970   1.152  17.159  0.1139 -0.0205 -0.0310
14683TIP3    H165464   3.002   1.232  17.200  0.6815  1.2563 -2.8076
14683TIP3    H265465   3.046   1.117  17.112 -1.3604  0.7166 -3.1447
14684TIP3   OH265466   2.293   0.679  16.824 -0.4175 -0.9415  0.3658
14684TIP3    H165467   2.201   0.678  16.850 -0.4101 -0.5806  0.4108
14684TIP3    H265468   2.292   0.693  16.730 -0.4044 -0.7365  0.3941
14685TIP3   OH265469   6.201   3.373   1.871  0.2059  0.0291 -0.1613
14685TIP3    H165470   6.128   3.428   1.843  1.6154  1.4808 -1.1028
14685TIP3    H265471   6.225   3.324   1.792  0.2823 -0.4068  0.1306
14686TIP3   OH265472   5.640   4.412   1.881  0.3355 -0.6735 -0.4690
14686TIP3    H165473   5.676   4.381   1.798  1.6455  1.4904 -0.7454
14686TIP3    H265474   5.707   4.471   1.916 -1.1006  0.0671  1.1083
14687TIP3   OH265475   1.045   4.847  15.106  0.5719 -0.1382 -0.4913
14687TIP3    H165476   1.017   4.915  15.167  1.1342  0.2099 -0.6258
14687TIP3    H265477   1.007   4.766  15.142 -0.4175  0.2953 -0.5501
14688TIP3   OH265478   5.848   2.410  11.625  0.2769  0.0924  0.4200
14688TIP3    H165479   5.825   2.502  11.640 -0.2056  0.3469 -1.7333
14688TIP3    H265480   5.865   2.405  11.531 -1.0628 -2.3299  0.2838
14689TIP3   OH265481   0.768   5.456  12.877 -0.2433 -0.1061  0.2139
14689TIP3    H165482   0.751   5.549  12.867  1.6527  0.0725 -1.7484
14689TIP3    H265483   0.847   5.452  12.931  0.0309 -0.5590 -0.2196
14690TIP3   OH265484   4.122   3.139   6.017 -0.4707  1.3355  0.3037
14690TIP3    H165485   4.138   3.065   6.075 -2.1447 -0.6030 -1.6108
14690TIP3    H265486   4.038   3.175   6.047  1.2012  3.6818  2.3985
14691TIP3   OH265487   1.288   1.077   5.379 -0.1629 -0.3406 -0.2857
14691TIP3    H165488   1.295   0.999   5.433  1.0687 -0.2375 -0.2766
14691TIP3    H265489   1.338   1.057   5.300 -1.1946 -0.1574 -0.9855
14692TIP3   OH265490   2.251   4.002   0.646 -0.5334 -0.2920 -0.2250
14692TIP3    H165491   2.211   3.979   0.729 -0.0051 -0.6951 -0.0801
14692TIP3    H265492   2.196   3.960   0.580 -1.0202  0.1276 -0.0858
14693TIP3   OH265493   5.766   3.049  10.453 -0.0080 -0.5440 -0.3480
14693TIP3    H165494   5.792   2.989  10.524  1.0147  0.6605  0.3130
14693TIP3    H265495   5.718   2.994  10.392  0.1930 -1.8772  0.6644
14694TIP3   OH265496   1.439   6.777   0.015 -0.5397 -0.4627 -0.8261
14694TIP3    H165497   1.404   6.820   0.093 -0.7979 -0.1851 -1.0945
14694TIP3    H265498   1.525   6.817   0.003  0.2347 -1.7468  0.3219
14695TIP3   OH265499   1.607   3.311   2.412  0.7314 -0.5985 -0.0476
14695TIP3    H165500   1.663   3.238   2.437  1.4274  0.4375  1.4480
14695TIP3    H265501   1.645   3.387   2.455 -1.7371  0.1599  0.8789
14696TIP3   OH265502   3.438   6.441  15.526  0.2585 -0.7082 -0.1537
14696TIP3    H165503   3.497   6.434  15.451  0.1339 -2.2098 -0.1322
14696TIP3    H265504   3.488   6.490  15.591  0.3503  0.6508 -1.2141
14697TIP3   OH265505   1.675   4.511  12.490  0.6191  0.5607  0.3149
14697TIP3    H165506   1.764   4.479  12.507 -0.2977 -2.8969 -1.1666
14697TIP3    H265507   1.674   4.533  12.397 -1.1337 -3.2216 -0.6515
14698TIP3   OH265508   6.550   6.213  13.370  0.0122  0.0485  0.1767
14698TIP3    H165509   6.528   6.146  13.435  1.7704  0.3772  1.1691
14698TIP3    H265510   6.586   6.164  13.296  1.8942 -0.1147  1.1572
14699TIP3   OH265511   4.974   3.286   2.525  0.0202  0.0120  0.1727
14699TIP3    H165512   4.916   3.253   2.594 -0.2960 -0.7286 -0.4349
14699TIP3    H265513   5.059   3.247   2.545 -0.2118 -0.6971 -0.1980
14700TIP3   OH265514   4.112   4.620  12.901  0.5032  0.0621 -0.3479
14700TIP3    H165515   4.081   4.544  12.950 -0.6471  1.3745  1.0220
14700TIP3    H265516   4.032   4.659  12.866  1.0173  1.0513 -0.4230
14701TIP3   OH265517   0.730   3.304  15.678 -0.7355  0.3161 -0.2083
14701TIP3    H165518   0.783   3.284  15.601 -1.2810  1.9353 -1.0195
14701TIP3    H265519   0.641   3.283  15.652 -0.9376  0.9822 -0.0750
14702TIP3   OH265520   1.462   5.558  13.897  0.3922  0.0708 -0.4579
14702TIP3    H165521   1.398   5.607  13.950  0.2420  1.6972 -2.0872
14702TIP3    H265522   1.412   5.525  13.823  0.6649 -1.9271  0.2340
14703TIP3   OH265523   0.462   0.518  17.127  0.5397  0.0481 -0.8648
14703TIP3    H165524   0.438   0.450  17.189  2.0674  0.1952 -0.1049
14703TIP3    H265525   0.465   0.599  17.179  2.6346  0.0344 -0.9510
14704TIP3   OH265526   5.552   0.079  16.618  0.2198 -0.1090 -0.4868
14704TIP3    H165527   5.574   0.010  16.555  0.2559 -2.3062  1.8799
14704TIP3    H265528   5.631   0.133  16.622 -0.3403  1.0360 -3.5130
14705TIP3   OH265529   0.714   5.362   0.233 -0.0911  0.4521 -0.3014
14705TIP3    H165530   0.772   5.383   0.159 -0.4662  1.7371 -0.2350
14705TIP3    H265531   0.774   5.328   0.300  0.0457 -2.4532 -1.8092
14706TIP3   OH265532   1.845   3.318  13.104 -0.5375  0.2685 -0.4972
14706TIP3    H165533   1.931   3.343  13.138 -1.0461 -0.3345  1.2978
14706TIP3    H265534   1.784   3.342  13.174 -1.9715  1.7244 -2.2155
14707TIP3   OH265535   0.488   3.168  11.898 -0.4921  0.4361  0.4973
14707TIP3    H165536   0.401   3.136  11.874 -0.3154  1.3290 -1.4088
14707TIP3    H265537   0.519   3.216  11.821  0.9079  1.7669  1.8349
14708TIP3   OH265538   2.720   6.387   6.097  0.2548  0.3960  0.1151
14708TIP3    H165539   2.730   6.438   6.177  0.4292 -0.8945  0.9334
14708TIP3    H265540   2.769   6.436   6.031 -0.4286  1.8082  0.6433
14709TIP3   OH265541   3.313   1.893   2.944 -0.1126  0.1271  0.7677
14709TIP3    H165542   3.334   1.886   2.852  0.3418 -2.3720  1.0469
14709TIP3    H265543   3.290   1.986   2.956  1.6791  0.8925 -1.4208
14710TIP3   OH265544   4.839   0.345   0.929  0.9665  0.0510  1.3449
14710TIP3    H165545   4.833   0.419   0.868 -0.4815 -1.1683 -0.0262
14710TIP3    H265546   4.933   0.332   0.941  1.2652  0.9713  0.1820
14711TIP3   OH265547   6.102   0.705   1.501  0.1643  0.3367 -0.5529
14711TIP3    H165548   6.030   0.748   1.548 -0.1127 -2.7488  2.0909
14711TIP3    H265549   6.178   0.716   1.558  0.5031 -1.0275 -0.7269
14712TIP3   OH265550   4.489   0.156  15.409 -0.0924 -0.5317 -0.0953
14712TIP3    H165551   4.568   0.147  15.462  0.8676  0.1033 -1.3849
14712TIP3    H265552   4.467   0.249  15.414  0.6218 -0.2580 -1.6384
14713TIP3   OH265553   4.293   2.193   3.886  0.4383  0.5134 -0.1452
14713TIP3    H165554   4.222   2.146   3.929  0.2078 -0.3010 -1.3961
14713TIP3    H265555   4.362   2.128   3.875  0.6812  0.8400 -0.5620
14714TIP3   OH265556   1.505   1.059   6.381 -0.5305  0.1310 -0.6542
14714TIP3    H165557   1.448   1.066   6.304 -1.5539 -1.8117 -0.1115
14714TIP3    H265558   1.445   1.050   6.454  0.4379 -2.0402 -0.0740
14715TIP3   OH265559   2.977   0.987   4.903 -0.7118 -0.0871  0.3699
14715TIP3    H165560   3.022   0.916   4.949  0.2806  0.4383  0.2413
14715TIP3    H265561   2.968   1.056   4.969 -2.6506 -0.7290  0.7936
14716TIP3   OH265562   0.921   5.030   3.548  0.2151 -0.0904 -0.2412
14716TIP3    H165563   0.834   5.048   3.585  0.8378  0.4715  0.9700
14716TIP3    H265564   0.981   5.042   3.621  1.2772 -0.9456 -0.9654
14717TIP3   OH265565   5.689   0.500  16.811  0.3971 -0.5093  0.3175
14717TIP3    H165566   5.686   0.464  16.723  2.2811 -0.6623  0.2964
14717TIP3    H265567   5.716   0.591  16.799 -2.3523  0.3647  0.5203
14718TIP3   OH265568   1.937   1.004   0.052 -0.3174  0.6085 -0.0024
14718TIP3    H165569   1.929   0.909   0.043  0.7193  0.6140 -1.0855
14718TIP3    H265570   2.016   1.026   0.004 -1.1178  2.1750 -0.6278
14719TIP3   OH265571   1.726   4.265  17.232  0.1110  0.5496  0.1255
14719TIP3    H165572   1.772   4.331  17.180  1.0474  0.4103  0.7608
14719TIP3    H265573   1.791   4.233  17.294 -0.9059  0.5116  1.2074
14720TIP3   OH265574   1.953   6.144  15.493 -0.0949 -0.5897  0.4358
14720TIP3    H165575   1.965   6.091  15.414 -1.6262  2.0017 -1.6117
14720TIP3    H265576   2.038   6.141  15.537  1.1345 -1.1375 -1.9105
14721TIP3   OH265577   5.588   5.088  14.837 -0.1246 -0.5311  0.0796
14721TIP3    H165578   5.515   5.120  14.783  1.3443  1.0250 -1.0415
14721TIP3    H265579   5.657   5.068  14.774  0.4892 -1.8197  1.1405
14722TIP3   OH265580   4.434   6.018  12.380  0.2208  0.4543 -0.2016
14722TIP3    H165581   4.444   5.924  12.395 -0.7811  0.0789 -1.7242
14722TIP3    H265582   4.473   6.033  12.293 -0.4420  1.2789 -0.3675
14723TIP3   OH265583   3.456   1.245  10.976  0.6287  0.1484  0.4897
14723TIP3    H165584   3.488   1.155  10.965  1.1145  0.0763  2.3132
14723TIP3    H265585   3.440   1.275  10.886 -0.5433 -2.1051 -0.1109
14724TIP3   OH265586   2.921   1.575  14.945 -0.4258 -0.0045  0.1590
14724TIP3    H165587   2.919   1.632  14.868  2.0280  0.5799  0.4891
14724TIP3    H265588   2.970   1.625  15.011  0.4945 -1.9038  0.9430
14725TIP3   OH265589   6.673   1.948  11.538 -0.6270 -0.3540 -0.7091
14725TIP3    H165590   6.750   1.919  11.488 -0.2053  1.0035 -0.8701
14725TIP3    H265591   6.705   1.958  11.628 -0.4069  0.9658 -0.9250
14726TIP3   OH265592   0.981   2.996   2.006 -0.3716 -0.2244  0.2554
14726TIP3    H165593   0.982   3.045   2.088  0.7470 -1.4908  1.0247
14726TIP3    H265594   1.044   3.040   1.949 -1.7948  1.1849 -0.2643
14727TIP3   OH265595   1.079   5.417   3.936  0.1504  0.4465 -0.2478
14727TIP3    H165596   1.072   5.510   3.915 -2.0322  0.4383  0.2987
14727TIP3    H265597   1.140   5.382   3.872  3.0831  2.7478  1.1592
14728TIP3   OH265598   4.611   1.573   3.606  0.2096  0.0884  0.1333
14728TIP3    H165599   4.706   1.573   3.617  0.2303 -1.1327  0.0523
14728TIP3    H265600   4.587   1.480   3.606 -1.2469  0.4315  2.2669
14729TIP3   OH265601   2.495   4.095  16.829 -0.0316  0.2853 -0.7127
14729TIP3    H165602   2.469   4.037  16.900  1.9147 -1.3843 -1.3280
14729TIP3    H265603   2.544   4.165  16.871  0.9649 -0.6060 -0.3816
14730TIP3   OH265604   2.407   2.444   2.542 -0.0103 -0.3579 -0.3435
14730TIP3    H165605   2.428   2.387   2.616  0.4768 -0.2775 -0.4139
14730TIP3    H265606   2.334   2.497   2.572  1.2122  0.7831  0.6480
14731TIP3   OH265607   0.610   5.539   3.982  0.2561 -1.3050  0.4919
14731TIP3    H165608   0.574   5.626   4.000  1.9266 -0.4443 -0.2678
14731TIP3    H265609   0.576   5.484   4.053 -0.6339  0.0181  1.0976
14732TIP3   OH265610   5.395   0.110  15.361 -0.4013  0.2161  0.3822
14732TIP3    H165611   5.301   0.115  15.380 -0.1840 -0.4815  1.6803
14732TIP3    H265612   5.413   0.188  15.309 -1.7428  0.2543 -0.0381
14733TIP3   OH265613   5.605   5.258   1.309  0.4329  0.0068 -0.4440
14733TIP3    H165614   5.575   5.341   1.345  0.6701 -0.2421  0.3488
14733TIP3    H265615   5.586   5.264   1.215 -2.0603 -0.1497  0.0246
14734TIP3   OH265616   6.642   3.271   5.136 -0.0484 -0.1331  0.2938
14734TIP3    H165617   6.571   3.278   5.073  0.1889 -2.6770 -0.3004
14734TIP3    H265618   6.613   3.323   5.211 -1.6755  0.3948 -0.6724
14735TIP3   OH265619   2.453   1.798   2.381  0.2713  0.0714  0.0713
14735TIP3    H165620   2.521   1.741   2.345 -1.0676 -1.1259 -0.6223
14735TIP3    H265621   2.481   1.887   2.357  0.7261 -0.5295 -1.7345
14736TIP3   OH265622   5.005   4.163   4.451 -0.3549 -0.0830  0.4312
14736TIP3    H165623   4.956   4.145   4.531 -0.4616  0.7634  0.5642
14736TIP3    H265624   5.092   4.188   4.480 -0.3760  0.1704  0.2801
14737TIP3   OH265625   3.500   3.602   5.271 -0.4610 -0.2997  0.7808
14737TIP3    H165626   3.482   3.613   5.178  1.7178  0.7904  0.4391
14737TIP3    H265627   3.417   3.620   5.314 -0.6301  2.9666 -0.7464
14738TIP3   OH265628   2.258   2.606   4.320  0.0095 -0.4392 -0.4506
14738TIP3    H165629   2.300   2.631   4.239  0.7163  0.2657  0.1286
14738TIP3    H265630   2.171   2.647   4.316 -0.1011 -0.7245 -1.0106
14739TIP3   OH265631   1.027   2.850  16.512  0.2780 -0.2188  0.0453
14739TIP3    H165632   1.030   2.813  16.424 -0.0216  1.9370 -0.9148
14739TIP3    H265633   0.947   2.815  16.551  0.0358 -0.6110 -0.8027
14740TIP3   OH265634   6.770   5.706   5.074  0.4976  0.2229 -0.3288
14740TIP3    H165635   6.846   5.689   5.129 -0.5977  0.7646  1.4052
14740TIP3    H265636   6.781   5.797   5.047  1.5175 -0.3256 -1.8077
14741TIP3   OH265637   1.318   0.132   2.181  0.1751  0.2474 -0.2517
14741TIP3    H165638   1.376   0.201   2.149  1.6772 -1.6724 -1.7911
14741TIP3    H265639   1.251   0.125   2.113 -0.5600  0.8893  0.4062
14742TIP3   OH265640   1.750   4.646  13.430 -0.2379  0.2011  0.8479
14742TIP3    H165641   1.802   4.637  13.510  1.4476  1.1945 -0.1029
14742TIP3    H265642   1.735   4.556  13.401  0.3617 -0.1183  1.5049
14743TIP3   OH265643   4.699   3.359   0.288  0.2059  0.2855 -0.0616
14743TIP3    H165644   4.616   3.326   0.254  0.3107 -0.0909  0.0511
14743TIP3    H265645   4.712   3.312   0.370 -0.8095  2.2913  1.2956
14744TIP3   OH265646   4.325   4.584  13.143  0.1700  0.3087 -0.0516
14744TIP3    H165647   4.322   4.490  13.128  1.1482  0.0619  1.1790
14744TIP3    H265648   4.357   4.593  13.233 -1.8505  1.7781  0.5553
14745TIP3   OH265649   2.715   6.436  16.498 -0.1626  0.0032  0.5483
14745TIP3    H165650   2.698   6.470  16.410  1.4622 -1.6463 -0.4422
14745TIP3    H265651   2.757   6.508  16.544 -2.6749  1.5162  0.6117
14746TIP3   OH265652   6.458   4.599  12.708 -0.2398  0.0581 -0.1746
14746TIP3    H165653   6.516   4.617  12.782 -1.1692 -1.4021  0.9341
14746TIP3    H265654   6.474   4.671  12.647  2.8971 -0.4412 -0.0029
14747TIP3   OH265655   2.957   1.963   5.565  0.2381 -0.3487 -0.1694
14747TIP3    H165656   2.992   1.997   5.647 -1.4602  1.7725 -0.2737
14747TIP3    H265657   3.033   1.939   5.513  1.3390 -1.3899  1.8894
14748TIP3   OH265658   3.877   4.093   3.303  0.0423  0.0506  1.1457
14748TIP3    H165659   3.819   4.088   3.379 -0.3175 -1.4164  0.7926
14748TIP3    H265660   3.888   4.002   3.275 -0.1805  0.6012 -0.8245
14749TIP3   OH265661   3.154   3.845  12.828 -0.6904 -0.5522 -0.5198
14749TIP3    H165662   3.122   3.914  12.886  0.0809  0.5836 -1.4301
14749TIP3    H265663   3.075   3.815  12.782 -1.2109 -1.0651  0.6819
14750TIP3   OH265664   6.059   4.962  15.692  0.3377  0.1538  0.3438
14750TIP3    H165665   6.100   4.877  15.681  2.4205  1.1873 -0.1368
14750TIP3    H265666   6.022   4.983  15.606  1.4115  0.5236 -0.0352
14751TIP3   OH265667   4.777   6.756   2.209  0.1706  0.1671 -0.4118
14751TIP3    H165668   4.770   6.839   2.255  1.2920 -0.9274  1.8379
14751TIP3    H265669   4.783   6.780   2.117  0.5667  2.5825  0.2062
14752TIP3   OH265670   1.959   0.356   0.915 -0.1711 -0.1589 -0.2116
14752TIP3    H165671   2.042   0.336   0.958  0.5908  0.4063 -1.4087
14752TIP3    H265672   1.946   0.284   0.853 -1.0263 -0.7154  0.5961
14753TIP3   OH265673   5.359   5.953   6.040  0.4377 -0.4767 -0.4218
14753TIP3    H165674   5.436   5.980   6.091  0.1244 -1.5067  0.6389
14753TIP3    H265675   5.316   6.035   6.016 -0.5331  0.0475  2.7570
14754TIP3   OH265676   2.231   3.722  14.996  0.1642 -0.1559  0.4455
14754TIP3    H165677   2.306   3.670  15.023  1.1100  0.4788 -0.8948
14754TIP3    H265678   2.161   3.658  14.982  1.4960 -1.1808 -1.7941
14755TIP3   OH265679   6.370   4.622  11.076 -0.1788 -0.4762  0.0210
14755TIP3    H165680   6.394   4.560  11.007 -1.7001 -1.2646  0.1627
14755TIP3    H265681   6.284   4.592  11.106 -0.2153  0.7553  1.2175
14756TIP3   OH265682   2.584   2.047  15.561 -0.2049  0.5579  0.3465
14756TIP3    H165683   2.632   2.129  15.561  0.4445  0.1758  0.3876
14756TIP3    H265684   2.502   2.066  15.515  0.3680  0.9677 -0.4901
14757TIP3   OH265685   5.654   6.532   2.740  0.7379  0.6118 -0.2974
14757TIP3    H165686   5.648   6.597   2.810 -2.6410  0.9339 -0.8097
14757TIP3    H265687   5.591   6.562   2.675  3.5379  0.1462 -3.3926
14758TIP3   OH265688   2.806   0.074   4.767  0.4664 -0.4387  0.6526
14758TIP3    H165689   2.744   0.141   4.735  0.6690 -0.2571  0.6408
14758TIP3    H265690   2.886   0.123   4.787  1.0248 -0.8490 -0.5111
14759TIP3   OH265691   5.751   6.724  15.445  0.6064 -0.4282  0.2731
14759TIP3    H165692   5.831   6.776  15.454  0.8015 -0.5729 -0.5699
14759TIP3    H265693   5.699   6.745  15.523  0.6601  1.0893 -0.0886
14760TIP3   OH265694   2.060   3.520  16.903 -0.2502 -0.1434  0.5453
14760TIP3    H165695   2.125   3.581  16.939 -1.6786  1.6069  0.2580
14760TIP3    H265696   2.011   3.572  16.839 -2.3129 -1.2325  1.1746
14761TIP3   OH265697   3.294   5.433  16.821 -0.4535  0.1428  0.2184
14761TIP3    H165698   3.382   5.399  16.807 -0.8232 -0.2218 -1.2306
14761TIP3    H265699   3.292   5.517  16.776 -0.4189  0.8228  1.4441
14762TIP3   OH265700   0.125   5.402   5.532 -0.1642  0.4040 -0.8097
14762TIP3    H165701   0.044   5.354   5.512  0.1079  0.2603 -1.5976
14762TIP3    H265702   0.190   5.333   5.546  0.0849  0.5250 -1.3320
14763TIP3   OH265703   6.481   0.160  17.058 -0.4454 -0.3827  0.4504
14763TIP3    H165704   6.409   0.222  17.073 -1.6381 -0.9767 -2.4397
14763TIP3    H265705   6.442   0.074  17.071 -0.2666 -0.7025 -1.0235
14764TIP3   OH265706   1.923   5.027   0.536 -0.2023 -0.8244  0.1500
14764TIP3    H165707   1.901   5.071   0.454  0.3948  0.3999  0.6238
14764TIP3    H265708   1.865   4.951   0.539 -1.3950  0.0363 -0.6133
14765TIP3   OH265709   5.024   5.063  13.490  0.0666 -0.3141  0.1644
14765TIP3    H165710   5.090   5.121  13.529 -0.3856  0.0915  0.3302
14765TIP3    H265711   5.071   4.981  13.475  0.9485  0.3653 -0.8751
14766TIP3   OH265712   5.508   5.117   4.015 -0.1614 -0.2332  0.7005
14766TIP3    H165713   5.457   5.188   3.975  0.6000 -0.8083 -1.3829
14766TIP3    H265714   5.450   5.040   4.009 -1.6307  0.4591  4.4160
14767TIP3   OH265715   4.152   0.727  11.046  0.0167 -0.3377  0.1532
14767TIP3    H165716   4.106   0.803  11.079 -0.0912 -0.7884  1.0573
14767TIP3    H265717   4.127   0.722  10.954  0.1877  0.8318  0.0352
14768TIP3   OH265718   6.010   3.053  12.375 -0.3211  0.2322 -0.6333
14768TIP3    H165719   6.046   2.967  12.352  0.9867  0.5010  0.3427
14768TIP3    H265720   6.072   3.115  12.336 -1.4256  0.7443 -1.5955
14769TIP3   OH265721   4.939   4.967   3.553  0.1381  0.3687 -0.0979
14769TIP3    H165722   4.903   5.013   3.478  0.0921  0.3455 -0.0900
14769TIP3    H265723   5.002   5.029   3.591 -0.2586  0.6017  0.1835
14770TIP3   OH265724   0.249   5.734   4.196  0.2051 -0.2690  0.4797
14770TIP3    H165725   0.279   5.822   4.172  1.9521 -0.9810 -0.0477
14770TIP3    H265726   0.214   5.744   4.285  0.5966  0.9140  0.5083
14771TIP3   OH265727   2.429   2.909  14.694 -0.1385 -0.3086 -0.6066
14771TIP3    H165728   2.378   2.957  14.629 -0.1868  0.0425 -0.3102
14771TIP3    H265729   2.395   2.938  14.779  0.3456 -0.2999 -0.4113
14772TIP3   OH265730   2.562   4.933   2.993  0.3654  0.2237  0.7369
14772TIP3    H165731   2.520   5.012   2.958 -3.1770 -1.1595  1.6939
14772TIP3    H265732   2.552   4.940   3.088 -0.6616 -1.7281  0.7859
14773TIP3   OH265733   3.239   3.422   1.810 -0.4307  0.4602 -0.7944
14773TIP3    H165734   3.218   3.443   1.901 -0.5267  1.0840 -0.9593
14773TIP3    H265735   3.332   3.397   1.812 -0.9952 -1.7595 -0.1618
14774TIP3   OH265736   3.902   2.654  17.004 -0.2427  0.3543  0.5142
14774TIP3    H165737   3.982   2.679  16.956  1.6969 -1.9082  2.4515
14774TIP3    H265738   3.879   2.732  17.054  0.0823  1.4030 -0.9247
14775TIP3   OH265739   1.137   6.576   2.697 -0.6613 -0.1615 -0.3498
14775TIP3    H165740   1.174   6.612   2.616  2.4124 -1.8066  0.2833
14775TIP3    H265741   1.126   6.652   2.754  3.0550  0.2692 -0.0807
14776TIP3   OH265742   6.672   0.391   0.993 -0.1799 -0.5508 -0.4071
14776TIP3    H165743   6.609   0.449   0.950  1.7364  1.5223 -0.4897
14776TIP3    H265744   6.618   0.331   1.044 -2.2666  0.4572 -1.3606
14777TIP3   OH265745   2.664   5.955  13.241 -0.3219  0.7317 -0.0988
14777TIP3    H165746   2.737   6.012  13.217 -1.1978  1.3852 -1.2520
14777TIP3    H265747   2.586   6.000  13.209 -0.8597 -2.2748 -3.4522
14778TIP3   OH265748   2.379   4.548   0.027 -0.1675  0.0595  0.1126
14778TIP3    H165749   2.465   4.552   0.070 -0.6781  1.1387  1.0517
14778TIP3    H265750   2.345   4.638   0.032 -1.5396 -0.4472  0.1434
14779TIP3   OH265751   5.944   5.485  16.392  0.6160  0.0357 -0.6093
14779TIP3    H165752   5.961   5.401  16.435 -0.8083 -0.3957 -0.8853
14779TIP3    H265753   5.967   5.551  16.457  1.2080 -0.5700 -0.1992
14780TIP3   OH265754   4.622   2.448   6.086 -1.0234 -0.2421 -0.1856
14780TIP3    H165755   4.572   2.527   6.106 -2.9058 -1.4112 -0.1476
14780TIP3    H265756   4.676   2.472   6.011  0.0895  1.7289  1.1922
14781TIP3   OH265757   5.549   5.388   1.971  0.2437 -0.2379  0.0034
14781TIP3    H165758   5.467   5.352   2.005  1.0936 -1.9833  0.2755
14781TIP3    H265759   5.613   5.371   2.041  1.0724  0.0893 -0.6703
14782TIP3   OH265760   4.382   3.185  12.580  0.5779 -0.1569 -0.0845
14782TIP3    H165761   4.312   3.135  12.621  0.4458 -0.3695 -0.5705
14782TIP3    H265762   4.387   3.152  12.490  1.9230 -0.7852  0.2170
14783TIP3   OH265763   6.075   3.499   5.284 -0.3095 -0.1006 -0.5678
14783TIP3    H165764   6.082   3.569   5.219  1.7490 -0.3874 -0.7000
14783TIP3    H265765   6.109   3.421   5.238  3.4647  0.1853  1.5150
14784TIP3   OH265766   2.230   1.122  16.159 -0.1758  0.6820  0.7475
14784TIP3    H165767   2.275   1.183  16.100  0.3451  1.3444  1.8036
14784TIP3    H265768   2.180   1.065  16.101  1.2408  0.5844 -0.4047
14785TIP3   OH265769   6.209   0.470  12.014  1.2551 -0.0572  0.3230
14785TIP3    H165770   6.168   0.387  12.038 -1.1838  2.0599  4.0820
14785TIP3    H265771   6.152   0.505  11.945  0.4510 -0.1055  0.9476
14786TIP3   OH265772   6.341   4.488   5.619  0.0824 -0.6346  1.1663
14786TIP3    H165773   6.282   4.429   5.666 -0.8916 -0.2481  0.4537
14786TIP3    H265774   6.331   4.573   5.662 -1.3427 -0.1140 -0.1692
14787TIP3   OH265775   2.841   3.671   4.986 -0.3880 -0.2121 -0.5089
14787TIP3    H165776   2.859   3.764   5.001  0.2442 -0.4549  0.2873
14787TIP3    H265777   2.920   3.638   4.944 -0.5987 -0.3905 -0.7609
14788TIP3   OH265778   3.195   5.319  14.260  0.9071 -0.0572 -0.1407
14788TIP3    H165779   3.111   5.332  14.218  0.9568 -0.0519 -0.2385
14788TIP3    H265780   3.186   5.237  14.309  0.0934  1.0790  1.6910
14789TIP3   OH265781   3.125   5.934  16.561 -0.5084 -0.1136  0.2711
14789TIP3    H165782   3.204   5.945  16.508 -0.3614  1.0480  0.7262
14789TIP3    H265783   3.142   5.985  16.640 -1.8116  0.3243  0.2744
14790TIP3   OH265784   3.135   4.720  17.076 -0.7872 -1.0594  0.3142
14790TIP3    H165785   3.216   4.724  17.126 -0.1780 -1.2990 -0.6248
14790TIP3    H265786   3.133   4.630  17.041 -1.1345 -0.8555 -0.1979
14791TIP3   OH265787   4.428   4.496  14.820  0.3783 -0.1189 -0.0521
14791TIP3    H165788   4.418   4.565  14.755 -0.2325 -0.5514 -0.4296
14791TIP3    H265789   4.339   4.460  14.831  0.7051 -0.9196  0.0491
14792TIP3   OH265790   3.488   5.827   3.901 -0.3868  0.4212 -0.3454
14792TIP3    H165791   3.523   5.906   3.941 -1.4925  1.3642 -1.2183
14792TIP3    H265792   3.475   5.766   3.975  0.1887  1.1483  0.3602
14793TIP3   OH265793   6.299   0.735   0.936  0.0084 -0.2946  0.2492
14793TIP3    H165794   6.362   0.788   0.984 -0.2102  1.7529 -1.6572
14793TIP3    H265795   6.349   0.697   0.864 -0.5336 -0.0887 -0.2452
14794TIP3   OH265796   1.448   5.021   3.115 -0.0319  0.2265 -0.5485
14794TIP3    H165797   1.453   4.926   3.109  1.7526  0.3353 -1.0771
14794TIP3    H265798   1.526   5.052   3.070 -0.5930  1.9502 -0.3794
14795TIP3   OH265799   6.318   6.521  12.562 -0.1503 -0.1511 -0.2467
14795TIP3    H165800   6.343   6.557  12.647  1.0835  1.7228 -1.3556
14795TIP3    H265801   6.222   6.530  12.561 -0.0757  0.9795  0.4643
14796TIP3   OH265802   2.936   4.392  11.232 -0.4032  0.0631  0.3890
14796TIP3    H165803   2.990   4.471  11.222  2.4808 -1.8534  0.0876
14796TIP3    H265804   2.944   4.347  11.148 -2.5786 -0.2560  0.3261
14797TIP3   OH265805   3.338   0.856  16.033  0.6593  0.0961 -0.1450
14797TIP3    H165806   3.317   0.934  16.086  0.8799 -0.4431  0.7592
14797TIP3    H265807   3.279   0.861  15.958 -0.8035  0.0330  0.9771
14798TIP3   OH265808   1.073   0.157   3.666  0.2206  0.0410  0.0527
14798TIP3    H165809   1.043   0.243   3.636 -1.1081  0.0902  1.4248
14798TIP3    H265810   1.085   0.106   3.587 -0.8563  0.9021 -0.6703
14799TIP3   OH265811   5.315   0.255  11.130 -0.1806  0.2060  0.1768
14799TIP3    H165812   5.295   0.162  11.117  0.1548 -0.1688  2.3058
14799TIP3    H265813   5.363   0.279  11.051  0.2099 -1.5730 -0.1605
14800TIP3   OH265814   5.313   3.353  12.052  0.1343 -0.0570  0.7161
14800TIP3    H165815   5.378   3.357  12.122  1.3964  3.8687 -0.5462
14800TIP3    H265816   5.343   3.282  11.996  3.1519  1.3582  0.4140
14801TIP3   OH265817   1.127   5.251   2.704  0.2212  0.1564 -0.3376
14801TIP3    H165818   1.102   5.299   2.784 -0.9802 -0.6828 -0.2072
14801TIP3    H265819   1.214   5.216   2.724 -0.5991 -1.1210  1.0975
14802TIP3   OH265820   6.136   4.861   0.367 -0.0073 -0.7560 -0.3805
14802TIP3    H165821   6.166   4.947   0.336 -0.5943  0.2007  1.6464
14802TIP3    H265822   6.041   4.869   0.373 -0.0880 -1.6448 -0.3935
14803TIP3   OH265823   4.639   2.607   4.279  0.1195 -0.1725  0.4754
14803TIP3    H165824   4.622   2.649   4.364 -0.8358  0.1293  0.1451
14803TIP3    H265825   4.725   2.640   4.252 -0.6700  1.7077  0.1517
14804TIP3   OH265826   2.080   2.707   0.482  0.3452 -0.4240  0.0551
14804TIP3    H165827   1.991   2.675   0.464  0.8713 -2.1690  0.5124
14804TIP3    H265828   2.134   2.668   0.413  1.0835 -0.9598  0.9279
14805TIP3   OH265829   6.265   6.445   2.941 -0.3303 -0.0985  0.0323
14805TIP3    H165830   6.308   6.417   2.860  0.2588  2.4987 -0.5976
14805TIP3    H265831   6.227   6.364   2.977  2.2936 -1.8925 -1.0370
14806TIP3   OH265832   4.959   4.424   2.996  0.7067  0.2573  0.0448
14806TIP3    H165833   5.020   4.495   2.979 -0.6457  1.1052 -1.3870
14806TIP3    H265834   4.982   4.357   2.933 -0.7037  1.1381 -1.4370
14807TIP3   OH265835   6.110   6.567  15.922 -0.7257 -0.5474  0.1863
14807TIP3    H165836   6.105   6.580  16.017 -0.9041  0.0821  0.0900
14807TIP3    H265837   6.162   6.641  15.890  1.1383 -1.8783  0.0319
14808TIP3   OH265838   0.463   4.731  15.914  0.0051 -0.2592  0.1371
14808TIP3    H165839   0.514   4.650  15.901  0.5704  0.3322 -1.4656
14808TIP3    H265840   0.501   4.770  15.992  0.3070 -1.1142  0.4279
14809TIP3   OH265841   2.510   2.609  11.675  0.0657 -0.0663 -0.1116
14809TIP3    H165842   2.417   2.590  11.686  0.0176 -0.4151 -1.0846
14809TIP3    H265843   2.550   2.525  11.653  0.5445  0.1609 -0.1344
14810TIP3   OH265844   0.682   0.835  11.754 -0.1978 -0.5971 -0.5619
14810TIP3    H165845   0.666   0.822  11.848 -0.8841 -0.1786 -0.6105
14810TIP3    H265846   0.605   0.883  11.724  0.8772  0.9135 -0.9677
14811TIP3   OH265847   6.609   4.452  12.504  0.2133 -0.7655  0.0671
14811TIP3    H165848   6.566   4.526  12.548 -1.7665 -2.0291  0.3079
14811TIP3    H265849   6.544   4.382  12.506  2.5068 -2.9440  0.9468
14812TIP3   OH265850   0.840   1.430   3.474 -0.9281 -0.3185 -0.0694
14812TIP3    H165851   0.866   1.452   3.384 -0.2705 -2.5907 -0.4756
14812TIP3    H265852   0.752   1.394   3.465 -1.1598  0.1480  0.3048
14813TIP3   OH265853   5.499   3.668  16.487 -0.0222  0.0556 -0.1139
14813TIP3    H165854   5.581   3.701  16.451  0.5095 -0.3036  0.7608
14813TIP3    H265855   5.475   3.731  16.555 -0.7730  0.4712 -0.7527
14814TIP3   OH265856   2.766   2.132  14.979  0.2686 -0.2885  0.2542
14814TIP3    H165857   2.764   2.219  15.019  0.6841 -0.3126  0.3213
14814TIP3    H265858   2.798   2.148  14.890  0.6316 -0.4162  0.3649
14815TIP3   OH265859   5.421   6.075  12.622 -1.0198  0.0804  0.5379
14815TIP3    H165860   5.351   6.139  12.628 -0.6548  0.5811 -0.4902
14815TIP3    H265861   5.456   6.085  12.534  0.1962 -0.3162  0.9617
14816TIP3   OH265862   4.875   4.691  16.726  0.1862  0.7643  0.0559
14816TIP3    H165863   4.828   4.612  16.697 -0.0799  0.8780  0.1741
14816TIP3    H265864   4.899   4.735  16.645  1.3932 -0.0524 -0.0453
14817TIP3   OH265865   1.126   2.542  16.531 -0.4181 -0.0306  0.1872
14817TIP3    H165866   1.150   2.606  16.464 -0.0051  0.0638  0.4283
14817TIP3    H265867   1.045   2.502  16.497 -1.2328  1.3253  0.5237
14818TIP3   OH265868   0.059   6.388  15.272 -0.2088  0.1802  0.3767
14818TIP3    H165869   0.062   6.363  15.364 -1.2670 -1.1934  0.0656
14818TIP3    H265870   0.141   6.436  15.257  0.0110  0.3308  1.9952
14819TIP3   OH265871   3.936   6.017  15.512 -0.2341  0.1309 -0.0346
14819TIP3    H165872   3.994   6.080  15.554 -1.1530 -0.7108  2.5833
14819TIP3    H265873   3.852   6.062  15.505 -0.4404 -0.2120  0.2474
14820TIP3   OH265874   5.030   6.661   6.434  0.1470 -0.4881  0.1968
14820TIP3    H165875   4.989   6.715   6.366  0.6383 -0.2491  0.0879
14820TIP3    H265876   4.968   6.665   6.507 -0.6899 -1.2731 -0.4513
14821TIP3   OH265877   0.100   6.049  13.098 -0.4332 -0.0273  0.7131
14821TIP3    H165878   0.146   6.079  13.020 -1.3066  2.7113  1.2110
14821TIP3    H265879   0.020   6.009  13.064  0.3636 -1.1015  0.0780
14822TIP3   OH265880   1.085   4.361  13.455  0.5815 -0.1369 -0.3326
14822TIP3    H165881   1.003   4.366  13.504  0.3611  1.5711 -0.8503
14822TIP3    H265882   1.068   4.409  13.375  1.3842 -1.7256 -1.4792
14823TIP3   OH265883   1.870   0.511  15.982  0.1620 -0.5800 -0.0768
14823TIP3    H165884   1.848   0.434  16.035  0.0695 -1.3778 -1.2547
14823TIP3    H265885   1.910   0.572  16.044  1.6367 -2.1701  0.5776
14824TIP3   OH265886   6.353   0.673  15.455 -0.1479  0.3692  0.1705
14824TIP3    H165887   6.306   0.611  15.400  0.4337 -0.0438  0.1311
14824TIP3    H265888   6.304   0.755  15.446  0.8979  0.7644 -2.3194
14825TIP3   OH265889   4.309   0.597  16.899  0.5488  0.1454  0.2815
14825TIP3    H165890   4.304   0.528  16.965  1.6248 -1.5385 -1.3467
14825TIP3    H265891   4.250   0.568  16.829  0.1185  1.4615  0.0893
14826TIP3   OH265892   5.272   2.293   3.116 -0.0980  0.0817 -0.4150
14826TIP3    H165893   5.350   2.333   3.077  0.7027 -0.1475  0.9142
14826TIP3    H265894   5.292   2.200   3.122  0.3136  0.2658  1.6480
14827TIP3   OH265895   1.819   6.228   4.718 -0.8518 -0.5487 -0.1739
14827TIP3    H165896   1.748   6.264   4.663 -1.3588 -1.8848 -0.4263
14827TIP3    H265897   1.798   6.258   4.806 -0.5703  0.8139 -0.5621
14828TIP3   OH265898   2.082   6.658   3.335 -0.6322  0.2737  0.1042
14828TIP3    H165899   2.168   6.657   3.293 -0.9443 -0.6114 -0.5361
14828TIP3    H265900   2.100   6.683   3.426  0.0410  2.2830 -0.5596
14829TIP3   OH265901   0.414   4.487  15.685  0.3863 -0.0164  0.0902
14829TIP3    H165902   0.493   4.514  15.732  0.9204  1.2883 -1.5431
14829TIP3    H265903   0.445   4.430  15.615 -0.1095  0.6649 -0.6885
14830TIP3   OH265904   3.107   0.325  11.223  0.4737 -0.4118 -0.2125
14830TIP3    H165905   3.120   0.410  11.181 -0.6865  0.5101  1.2337
14830TIP3    H265906   3.060   0.273  11.159  1.5117 -0.0907 -1.2529
14831TIP3   OH265907   2.854   3.978  14.425  0.4139 -0.4345  0.1019
14831TIP3    H165908   2.896   4.060  14.451  1.5484 -0.9893  0.0641
14831TIP3    H265909   2.764   4.003  14.404  0.7067  0.7756  0.2243
14832TIP3   OH265910   1.840   4.657   5.554 -0.0629  0.2802  0.2245
14832TIP3    H165911   1.899   4.645   5.628  0.7685 -1.3002 -0.6602
14832TIP3    H265912   1.855   4.580   5.499 -0.5683  1.4991 -1.6557
14833TIP3   OH265913   5.071   4.100   3.192  0.5494  0.6264  0.1789
14833TIP3    H165914   5.000   4.120   3.254  1.2650  0.1441  1.1731
14833TIP3    H265915   5.093   4.009   3.211 -0.5476 -0.1552 -2.1517
14834TIP3   OH265916   2.217   2.855   6.302  0.3425  0.0866 -0.3576
14834TIP3    H165917   2.177   2.890   6.382  0.0950 -1.8087  0.3708
14834TIP3    H265918   2.302   2.899   6.297  0.8435 -0.5765  1.5703
14835TIP3   OH265919   0.614   2.549   1.706 -0.1407 -0.3769 -0.4092
14835TIP3    H165920   0.524   2.558   1.674 -0.5510  1.1578  1.1284
14835TIP3    H265921   0.668   2.550   1.627 -1.5673 -3.3308 -1.5309
14836TIP3   OH265922   2.747   0.029   1.690 -0.2106  0.0234  0.4965
14836TIP3    H165923   2.712   0.069   1.770 -0.9912  1.6459 -0.6139
14836TIP3    H265924   2.816   0.089   1.662 -0.0079 -0.4808 -0.0968
14837TIP3   OH265925   0.281   1.492   0.592  0.2166 -0.0307  0.4022
14837TIP3    H165926   0.369   1.473   0.625 -0.4812  0.5652  2.7814
14837TIP3    H265927   0.282   1.586   0.575  0.5600 -0.3345 -1.2553
14838TIP3   OH265928   3.936   6.639  16.770 -0.2181 -0.3148 -0.0627
14838TIP3    H165929   3.862   6.675  16.819 -1.2777  1.0802 -2.5986
14838TIP3    H265930   3.982   6.585  16.834 -1.0417  2.1100  2.7220
14839TIP3   OH265931   0.120   3.825   3.414 -0.0124 -0.0560  0.2936
14839TIP3    H165932   0.082   3.737   3.417 -0.0699 -0.2129 -2.8394
14839TIP3    H265933   0.045   3.884   3.417 -0.1612 -0.2023 -0.5157
14840TIP3   OH265934   2.476   4.459   6.024  0.3186  0.3080  0.2429
14840TIP3    H165935   2.482   4.458   6.119 -0.4401  0.2266  0.2894
14840TIP3    H265936   2.501   4.370   5.997 -0.9439 -0.1262  0.4603
14841TIP3   OH265937   1.136   4.057   1.255  0.0101  0.2488 -0.2820
14841TIP3    H165938   1.195   4.048   1.180  0.6029  0.7909  0.1191
14841TIP3    H265939   1.073   4.124   1.227 -0.7767 -0.7327 -0.9287
14842TIP3   OH265940   4.092   5.270   5.170  0.0800  0.2902 -0.5664
14842TIP3    H165941   4.084   5.362   5.194 -1.5949  0.4829 -1.6942
14842TIP3    H265942   4.020   5.256   5.107  0.5491 -1.6771 -0.6988
14843TIP3   OH265943   3.625   3.371   1.456  0.3751 -0.4434  0.7677
14843TIP3    H165944   3.676   3.293   1.480  0.6927  0.0230  1.6461
14843TIP3    H265945   3.670   3.407   1.380  0.4964 -0.8615  0.6395
14844TIP3   OH265946   5.442   6.065  13.734 -0.1744  0.2359  0.2986
14844TIP3    H165947   5.391   6.049  13.655 -0.3518  0.8374  0.2886
14844TIP3    H265948   5.376   6.075  13.803  0.0262 -2.0314  0.8674
14845TIP3   OH265949   5.943   3.315  12.691 -0.2786 -0.4583  0.2992
14845TIP3    H165950   5.871   3.271  12.736  0.4910  0.3105  2.3382
14845TIP3    H265951   5.973   3.381  12.754  1.7660 -0.3306 -0.7961
14846TIP3   OH265952   1.056   0.776   3.755 -0.4409  0.2031 -0.3679
14846TIP3    H165953   1.133   0.812   3.710 -0.3606  2.2252  1.2888
14846TIP3    H265954   1.092   0.737   3.835 -1.1332  1.5450  0.6290
14847TIP3   OH265955   4.507   1.164   4.776  0.0264 -0.1077  0.0876
14847TIP3    H165956   4.522   1.083   4.728  1.2115 -0.8575  1.6883
14847TIP3    H265957   4.593   1.189   4.810 -0.1530  2.2857 -1.0602
14848TIP3   OH265958   1.916   4.158   0.144  0.2815 -0.3822 -0.6388
14848TIP3    H165959   1.895   4.092   0.210  0.8761  0.0121 -0.0479
14848TIP3    H265960   1.988   4.120   0.095  2.6369  1.0136  1.5827
14849TIP3   OH265961   5.922   0.055   4.548 -0.4415 -0.5699 -0.1159
14849TIP3    H165962   5.923  -0.033   4.586  1.2257 -0.1589  0.8307
14849TIP3    H265963   5.839   0.092   4.579  0.1509 -0.8105  1.8604
14850TIP3   OH265964   3.988   4.769   3.916  0.1026 -0.0541  0.3874
14850TIP3    H165965   4.069   4.781   3.866 -0.1431 -1.2590 -0.3252
14850TIP3    H265966   3.960   4.680   3.895 -0.1710 -0.4908  2.4393
14851TIP3   OH265967   4.080   3.302   5.608 -0.9091 -0.6062 -0.4738
14851TIP3    H165968   4.053   3.357   5.682 -0.1265  0.5865 -1.0543
14851TIP3    H265969   4.044   3.346   5.531 -1.1598 -1.4838 -0.8583
14852TIP3   OH265970   4.588   5.901   2.343  0.2072  0.0237 -0.2203
14852TIP3    H165971   4.681   5.891   2.361  0.1717  0.9803  0.5367
14852TIP3    H265972   4.574   5.996   2.338 -0.5042 -0.1311 -1.5215
14853TIP3   OH265973   1.533   1.207  12.287 -0.1754 -0.2009 -0.2916
14853TIP3    H165974   1.587   1.247  12.355  0.5604 -0.3456 -0.7785
14853TIP3    H265975   1.489   1.134  12.331  0.4107 -0.3835 -0.0027
14854TIP3   OH265976   2.217   3.667  11.780 -0.0634  0.3033  0.0412
14854TIP3    H165977   2.248   3.739  11.724 -0.2344  0.5420  0.2577
14854TIP3    H265978   2.283   3.598  11.767 -0.1535  0.3192 -0.5315
14855TIP3   OH265979   0.512   6.377   0.159  0.2679 -0.8364  0.6136
14855TIP3    H165980   0.443   6.333   0.209 -0.6969 -1.4948 -1.2688
14855TIP3    H265981   0.465   6.429   0.094  1.5237 -1.1968 -0.6125
14856TIP3   OH265982   1.815   5.978   5.408  0.1331  0.1192 -0.0129
14856TIP3    H165983   1.881   6.029   5.455 -0.3182 -0.9052  1.7920
14856TIP3    H265984   1.866   5.918   5.353  0.6645  1.7124 -1.3106
14857TIP3   OH265985   1.204   6.549   0.631 -0.5960 -0.3495  0.4738
14857TIP3    H165986   1.133   6.505   0.679 -1.0523  0.5539  0.6344
14857TIP3    H265987   1.203   6.639   0.664 -0.5615  0.1429 -0.8430
14858TIP3   OH265988   5.424   5.444  12.022 -0.2090  0.5211  0.3044
14858TIP3    H165989   5.454   5.424  11.933 -0.0570 -2.9903  1.0762
14858TIP3    H265990   5.495   5.494  12.061  0.6033  0.3377 -0.9135
14859TIP3   OH265991   4.160   0.783   1.308  0.5782  0.2172  0.3091
14859TIP3    H165992   4.134   0.756   1.396  2.3036 -0.3594  0.6516
14859TIP3    H265993   4.220   0.715   1.278  0.9302  1.0187 -0.8489
14860TIP3   OH265994   2.774   4.520   4.430 -0.0192  0.3105  0.1377
14860TIP3    H165995   2.840   4.482   4.489  0.4453  0.4675 -0.2802
14860TIP3    H265996   2.777   4.464   4.352 -0.3295  0.3641  0.0860
14861TIP3   OH265997   1.029   6.765  11.418 -0.4419  0.2122 -0.1492
14861TIP3    H165998   0.939   6.799  11.424 -1.0665 -1.2415 -1.0307
14861TIP3    H265999   1.056   6.786  11.328 -0.0231  0.3275  0.0019
14862TIP3   OH266000   2.624   0.765  14.209 -0.5845 -0.6934  0.2442
14862TIP3    H166001   2.598   0.692  14.264  1.0241  0.1195  2.1575
14862TIP3    H266002   2.685   0.727  14.146 -0.6740 -1.2320  0.4807
14863TIP3   OH266003   2.286   3.257  15.349  0.3499  0.5438 -0.6492
14863TIP3    H166004   2.194   3.258  15.325  0.2766 -2.3514 -0.7643
14863TIP3    H266005   2.294   3.322  15.419 -1.9514  0.2288 -0.0570
14864TIP3   OH266006   0.569   2.092   1.216 -0.3295 -0.7261  0.4611
14864TIP3    H166007   0.642   2.073   1.158 -0.1878  0.5056  0.2150
14864TIP3    H266008   0.597   2.170   1.265 -1.6676  0.0731 -0.0170
14865TIP3   OH266009   4.343   3.877   5.465  0.2444  0.5438 -0.2367
14865TIP3    H166010   4.389   3.823   5.401 -0.9966 -0.0484 -0.6690
14865TIP3    H266011   4.327   3.818   5.539 -1.5511  0.1554 -0.9129
14866TIP3   OH266012   1.286   1.807   4.147  0.2209 -0.5005 -0.1295
14866TIP3    H166013   1.364   1.753   4.160  1.1491  0.4374 -1.6111
14866TIP3    H266014   1.228   1.754   4.093  0.7218 -0.4149 -0.7642
14867TIP3   OH266015   4.404   2.655  12.097  0.2852  0.0316  0.1903
14867TIP3    H166016   4.328   2.713  12.091  0.7353  0.5870 -0.3728
14867TIP3    H266017   4.452   2.687  12.173  0.0788 -0.1597  0.3980
14868TIP3   OH266018   2.702   3.140  13.598  0.3578  0.5033  0.7303
14868TIP3    H166019   2.611   3.114  13.584  0.5640  0.5088 -0.6982
14868TIP3    H266020   2.704   3.234  13.582  0.4833  0.6415  1.4988
14869TIP3   OH266021   6.288   1.688  13.979  0.2639 -0.2882  0.3475
14869TIP3    H166022   6.267   1.772  13.937 -0.2283 -0.4444  0.2764
14869TIP3    H266023   6.228   1.625  13.937  1.0825 -0.7957 -0.0631
14870TIP3   OH266024   0.494   3.774   3.396 -0.3393 -0.1042 -0.2178
14870TIP3    H166025   0.463   3.810   3.480  0.3503  0.6950 -0.2917
14870TIP3    H266026   0.435   3.811   3.331 -0.3498 -0.0340 -0.1692
14871TIP3   OH266027   4.447   0.665   5.226 -0.2060  0.1325 -0.0369
14871TIP3    H166028   4.462   0.573   5.247 -0.5223  0.2631  0.7508
14871TIP3    H266029   4.370   0.664   5.169 -0.0419 -0.1093 -0.2618
14872TIP3   OH266030   2.341   0.235  12.669 -0.4801 -0.2706  0.3127
14872TIP3    H166031   2.360   0.245  12.576 -1.6924  1.8841  0.2639
14872TIP3    H266032   2.374   0.148  12.691 -0.2508 -0.8393 -2.1382
14873TIP3   OH266033   3.659   5.830   4.259  0.2545  0.5702  0.4120
14873TIP3    H166034   3.686   5.896   4.195 -0.9751 -0.4093 -1.1449
14873TIP3    H266035   3.723   5.760   4.249 -0.0783  0.3142  0.1041
14874TIP3   OH266036   1.198   2.654  11.730 -0.2147 -0.1610  0.4421
14874TIP3    H166037   1.241   2.589  11.786  3.4955  1.0399 -0.7979
14874TIP3    H266038   1.213   2.622  11.640  0.5455  1.6639 -0.1194
14875TIP3   OH266039   1.243   5.998   2.726  0.3529 -0.1230 -0.0120
14875TIP3    H166040   1.273   5.998   2.817  1.4776  1.2969 -0.3701
14875TIP3    H266041   1.147   6.001   2.732  0.4205 -0.0802  1.1235
14876TIP3   OH266042   5.863   5.061   0.121 -0.4251 -0.2683 -0.2704
14876TIP3    H166043   5.924   5.060   0.047  1.1795  1.6569  0.9830
14876TIP3    H266044   5.820   5.146   0.115 -1.0353 -0.5334  0.4029
14877TIP3   OH266045   0.652   0.388   2.408 -0.1799  0.5562  0.5313
14877TIP3    H166046   0.593   0.314   2.417  0.8755 -0.2414  1.0617
14877TIP3    H266047   0.663   0.400   2.314 -1.7545  1.1837  0.4218
14878TIP3   OH266048   2.392   1.729   3.219 -0.0933 -0.7352  0.5541
14878TIP3    H166049   2.487   1.734   3.221 -0.0353 -1.2609 -0.4822
14878TIP3    H266050   2.372   1.636   3.231 -0.4034 -0.8535 -0.7245
14879TIP3   OH266051   6.247   0.275   3.442  0.0227 -0.0552  1.1329
14879TIP3    H166052   6.177   0.212   3.461  1.0183 -2.0161 -1.2528
14879TIP3    H266053   6.206   0.341   3.387 -0.2220 -0.6285  0.6212
14880TIP3   OH266054   6.206   5.822   1.905  0.0809 -0.0598  0.4586
14880TIP3    H166055   6.228   5.851   1.816  0.4464 -0.0646  0.5494
14880TIP3    H266056   6.128   5.767   1.893  0.3551 -0.3767  0.0921
14881TIP3   OH266057   4.419   1.441  14.043 -0.1118  0.7565  0.2640
14881TIP3    H166058   4.328   1.454  14.016 -0.1958 -2.3510 -1.1559
14881TIP3    H266059   4.417   1.360  14.095  2.3483 -1.5819 -3.0239
14882TIP3   OH266060   3.200   4.031   1.947  0.0898 -0.5830 -0.3210
14882TIP3    H166061   3.184   4.038   1.853  2.7490 -1.7864 -0.8917
14882TIP3    H266062   3.227   3.940   1.961  0.5520 -0.1950  1.4910
14883TIP3   OH266063   1.722   0.928   6.288 -0.2026  0.3700 -0.0679
14883TIP3    H166064   1.656   0.988   6.324  1.0083  2.3507 -1.0806
14883TIP3    H266065   1.673   0.848   6.268 -1.9013  1.1116  1.0120
14884TIP3   OH266066   6.438   1.101  11.805  0.1809  0.8507  0.0788
14884TIP3    H166067   6.437   1.145  11.720  1.4101 -1.9426 -1.4738
14884TIP3    H266068   6.438   1.007  11.783  0.4311  0.0809  3.1570
14885TIP3   OH266069   0.649   4.877   4.815 -0.0766  0.5025  0.2887
14885TIP3    H166070   0.607   4.935   4.879 -0.1844 -0.1530  0.8114
14885TIP3    H266071   0.583   4.811   4.795  0.0153  0.6074 -0.3804
14886TIP3   OH266072   5.439   2.289  16.989 -0.0946 -0.1814 -0.2733
14886TIP3    H166073   5.457   2.338  17.069  0.6457 -0.5502 -0.2112
14886TIP3    H266074   5.414   2.357  16.925  0.5397  0.2422 -0.0781
14887TIP3   OH266075   1.459   3.769  14.335  0.0768  0.3701  0.6392
14887TIP3    H166076   1.542   3.792  14.293  0.2055  1.0520  1.2590
14887TIP3    H266077   1.396   3.766  14.263  0.3633  1.1947  0.3443
14888TIP3   OH266078   1.049   2.023  15.465 -0.2744 -0.1589  0.1967
14888TIP3    H166079   1.049   2.118  15.474 -1.3080 -0.2048  0.7545
14888TIP3    H266080   1.135   1.995  15.497  0.2517  0.6350 -0.5208
14889TIP3   OH266081   3.566   1.102   3.088 -0.2414  0.0394  0.6891
14889TIP3    H166082   3.645   1.049   3.086  0.2798  0.8295 -0.1432
14889TIP3    H266083   3.597   1.191   3.106 -1.3273 -0.2835  4.7445
14890TIP3   OH266084   4.929   0.664  15.400 -1.4009  0.5204 -0.3929
14890TIP3    H166085   4.962   0.754  15.400  0.4742 -0.1381  0.3924
14890TIP3    H266086   4.994   0.615  15.451 -1.6994 -1.5179 -1.9051
14891TIP3   OH266087   3.315   2.270  11.642  0.0402 -0.5765 -0.3261
14891TIP3    H166088   3.407   2.290  11.632 -0.1211 -0.3426 -1.3721
14891TIP3    H266089   3.273   2.354  11.660  0.0020 -0.6577 -0.0227
14892TIP3   OH266090   0.280   3.024   1.623 -0.0992 -0.5001  0.3198
14892TIP3    H166091   0.316   2.959   1.684 -1.6913 -1.0898  0.6476
14892TIP3    H266092   0.273   3.104   1.675 -0.5912 -0.7593  0.6539
14893TIP3   OH266093   1.178   3.853   5.410 -0.1569 -0.1683 -0.2684
14893TIP3    H166094   1.159   3.829   5.500  3.6674  1.1682  0.9592
14893TIP3    H266095   1.169   3.948   5.408 -0.0324 -0.1727 -1.2706
14894TIP3   OH266096   6.576   2.662  13.076 -0.3762 -0.5441  0.0753
14894TIP3    H166097   6.531   2.623  13.151 -1.4505  1.4568  0.4914
14894TIP3    H266098   6.669   2.646  13.093 -0.5720  0.3291  2.0994
14895TIP3   OH266099   0.654   5.086  16.381 -0.3910  0.1065 -0.3512
14895TIP3    H166100   0.665   5.059  16.290 -0.6247  0.1223 -0.3824
14895TIP3    H266101   0.707   5.166  16.389  1.8429 -1.3856  0.2309
14896TIP3   OH266102   4.426   5.986  12.081 -0.4034 -0.3153  0.2887
14896TIP3    H166103   4.339   5.971  12.043 -1.0651 -0.2821  1.7841
14896TIP3    H266104   4.486   5.941  12.020 -1.4841 -0.6366 -0.5645
14897TIP3   OH266105   3.364   6.645   4.760  0.1937  0.2054  0.1719
14897TIP3    H166106   3.344   6.606   4.675 -1.9628  0.8087  0.3754
14897TIP3    H266107   3.284   6.633   4.811  0.8003  1.5607  1.4754
14898TIP3   OH266108   0.632   6.255  11.260 -0.1859  0.4799 -0.7165
14898TIP3    H166109   0.706   6.194  11.268 -0.3886  0.2819 -0.3456
14898TIP3    H266110   0.672   6.342  11.261 -0.1368  0.4485  1.7614
14899TIP3   OH266111   6.106   3.548   1.200 -0.1480 -0.5793  0.0121
14899TIP3    H166112   6.192   3.522   1.233 -0.1468 -0.9681 -0.2948
14899TIP3    H266113   6.080   3.477   1.142 -0.4856 -0.2581 -0.2338
14900TIP3   OH266114   4.051   6.491   2.509  0.0538 -0.0435 -1.0147
14900TIP3    H166115   3.999   6.481   2.429 -1.2061 -1.7763 -0.0046
14900TIP3    H266116   4.088   6.404   2.525  2.8362  1.0078 -1.3694
14901TIP3   OH266117   2.123   3.712   0.193 -0.0734  0.2942  0.3889
14901TIP3    H166118   2.062   3.656   0.146  0.5870  0.3003 -0.4766
14901TIP3    H266119   2.156   3.656   0.264  0.2009 -0.2678 -0.1675
14902TIP3   OH266120   2.931   2.853   3.237 -0.0847  0.1049  0.2253
14902TIP3    H166121   2.907   2.861   3.145 -0.2585  0.0811  0.2672
14902TIP3    H266122   2.982   2.772   3.241  1.1166  0.8528 -0.0824
14903TIP3   OH266123   0.443   2.396   3.379 -0.2057  0.7744  0.4126
14903TIP3    H166124   0.359   2.401   3.426  0.1379 -0.1091  1.1446
14903TIP3    H266125   0.493   2.331   3.428  0.8570  1.1940 -0.1125
14904TIP3   OH266126   1.411   0.218   0.670  0.1474 -0.5642 -0.1993
14904TIP3    H166127   1.452   0.212   0.756  1.1898  0.7135 -0.5886
14904TIP3    H266128   1.339   0.155   0.673  1.4901 -2.0851  0.8622
14905TIP3   OH266129   5.743   5.465   3.759 -0.6549 -0.4477 -0.2753
14905TIP3    H166130   5.832   5.429   3.750  0.4053  1.9727  0.1319
14905TIP3    H266131   5.716   5.483   3.669 -0.2330 -0.0495 -0.3267
14906TIP3   OH266132   5.075   3.836  12.888  0.4119  0.0708 -0.1912
14906TIP3    H166133   5.050   3.746  12.909 -0.4846  0.2102 -0.6156
14906TIP3    H266134   5.015   3.890  12.940 -0.9712  0.4163 -2.0761
14907TIP3   OH266135   3.825   2.591   0.739 -0.3677 -0.0132  0.3833
14907TIP3    H166136   3.826   2.687   0.743 -1.3429  0.1318 -2.1573
14907TIP3    H266137   3.876   2.570   0.661  0.3328 -1.6027  1.2531
14908TIP3   OH266138   1.406   3.374  16.380 -0.7381  0.4572  0.0534
14908TIP3    H166139   1.355   3.429  16.441 -2.1157 -0.4557 -0.2436
14908TIP3    H266140   1.440   3.304  16.435 -4.0454 -1.7757 -0.5674
14909TIP3   OH266141   5.956   5.872  13.071  0.0859  0.7523 -0.6797
14909TIP3    H166142   6.014   5.836  13.004  2.7484 -1.1634  2.4752
14909TIP3    H266143   5.877   5.819  13.064  0.2561  0.6772 -2.3656
14910TIP3   OH266144   6.403   0.744   0.231  0.5201 -0.0798  0.0580
14910TIP3    H166145   6.373   0.824   0.274 -2.8955 -1.4572  0.4366
14910TIP3    H266146   6.476   0.714   0.285 -1.0723  0.4102  2.6304
14911TIP3   OH266147   2.837   5.065  16.224  0.7065  0.1657 -0.3000
14911TIP3    H166148   2.915   5.071  16.169  0.2800 -1.7048 -1.1438
14911TIP3    H266149   2.775   5.126  16.185  1.1477  0.3986 -0.6388
14912TIP3   OH266150   0.499   4.570  14.803  0.2221 -0.2374  0.3304
14912TIP3    H166151   0.439   4.645  14.808 -0.0239 -0.4351  0.3651
14912TIP3    H266152   0.458   4.511  14.740  0.1431 -0.5823  0.6998
14913TIP3   OH266153   0.965   0.550   5.641  0.0614  0.1538  0.4911
14913TIP3    H166154   0.876   0.567   5.611 -0.4634 -1.2031  1.2358
14913TIP3    H266155   1.016   0.536   5.561 -0.5848  0.0512  0.1017
14914TIP3   OH266156   3.590   5.801  15.453  0.2647 -0.0531  0.1566
14914TIP3    H166157   3.641   5.866  15.502 -2.2435  1.9495  0.1772
14914TIP3    H266158   3.576   5.841  15.367 -1.1136 -0.6459  0.0895
14915TIP3   OH266159   0.320   0.869  14.139  0.8055 -0.2585 -0.1539
14915TIP3    H166160   0.384   0.898  14.074  1.7090  1.1123  1.3080
14915TIP3    H266161   0.238   0.863  14.091  1.9690 -1.7267 -1.9792
14916TIP3   OH266162   3.454   4.586   2.715 -0.0434  0.0771 -0.0361
14916TIP3    H166163   3.435   4.639   2.792 -3.9218 -1.4511  0.1627
14916TIP3    H266164   3.500   4.509   2.750  0.1941  0.4379  0.4511
14917TIP3   OH266165   3.251   6.192  13.653  0.2512 -0.2546 -0.1865
14917TIP3    H166166   3.320   6.164  13.593 -0.8582 -2.7280 -0.3805
14917TIP3    H266167   3.275   6.153  13.737  0.0226  0.3465  0.1570
14918TIP3   OH266168   3.350   1.512  17.211  0.1166  0.1209  0.4212
14918TIP3    H166169   3.437   1.501  17.249  0.4749 -0.0248 -0.4139
14918TIP3    H266170   3.297   1.550  17.281  0.4485 -1.2298  1.4144
14919TIP3   OH266171   1.926   5.942  15.885 -0.1361  0.0843  0.0595
14919TIP3    H166172   1.885   5.999  15.820  0.0142 -0.5197 -0.5758
14919TIP3    H266173   1.854   5.906  15.935 -0.4517 -1.4496 -1.4473
14920TIP3   OH266174   4.424   0.770   5.474 -0.0715  0.1090 -0.8550
14920TIP3    H166175   4.425   0.759   5.379  1.6472  1.8643 -1.0471
14920TIP3    H266176   4.498   0.718   5.505 -0.5044 -0.2890 -0.4594
14921TIP3   OH266177   4.157   6.420   4.481 -0.7543 -0.5096  0.1269
14921TIP3    H166178   4.204   6.337   4.479  0.2321  0.0731 -1.6033
14921TIP3    H266179   4.209   6.476   4.539 -0.3064 -0.4480 -0.3343
14922TIP3   OH266180   4.819   0.500  14.970 -0.0304 -0.0219  0.9960
14922TIP3    H166181   4.774   0.583  14.985  0.6265  0.3541  0.8874
14922TIP3    H266182   4.896   0.504  15.027 -0.3018 -0.7995  1.4293
14923TIP3   OH266183   6.057   2.026  14.223  0.6858  0.0989  0.5411
14923TIP3    H166184   6.013   1.949  14.259  1.1341  0.6959  2.4170
14923TIP3    H266185   6.012   2.100  14.263  0.5679  0.8173 -0.8914
14924TIP3   OH266186   3.116   6.334  11.472  0.1304  0.2229 -0.4239
14924TIP3    H166187   3.163   6.417  11.459  1.1227 -0.2158  0.2878
14924TIP3    H266188   3.077   6.315  11.387  0.8536  0.8410 -0.9036
14925TIP3   OH266189   3.677   2.906   5.422  0.7418  0.6942  0.0318
14925TIP3    H166190   3.734   2.829   5.423  1.3566  1.0778 -1.9445
14925TIP3    H266191   3.727   2.972   5.373 -0.2600  1.9579  0.6837
14926TIP3   OH266192   4.481   2.385  12.071  0.0101 -0.3427  0.5923
14926TIP3    H166193   4.554   2.392  12.133 -0.9968 -0.6542  1.8377
14926TIP3    H266194   4.433   2.467  12.081  0.3146 -0.0369 -0.4027
14927TIP3   OH266195   2.727   5.127   1.576 -0.5377 -0.1195  0.4312
14927TIP3    H166196   2.755   5.207   1.620 -1.7994 -0.2359  1.4581
14927TIP3    H266197   2.677   5.156   1.500  0.8703  0.0711 -0.4435
14928TIP3   OH266198   6.665   0.441  11.298 -0.3165  0.4741  0.2902
14928TIP3    H166199   6.631   0.452  11.209  1.3090 -0.2886 -0.4423
14928TIP3    H266200   6.591   0.407  11.348 -1.2317  0.8588 -0.7738
14929TIP3   OH266201   6.305   2.632   2.629  0.6518 -0.4787  0.0614
14929TIP3    H166202   6.332   2.581   2.705  0.8828 -0.8492 -0.2617
14929TIP3    H266203   6.353   2.714   2.636  0.3293 -0.3329  0.5509
14930TIP3   OH266204   4.054   3.360  13.330  0.2993 -0.0307  0.3230
14930TIP3    H166205   4.144   3.347  13.300  0.6614  0.4839  1.1741
14930TIP3    H266206   4.051   3.451  13.357  0.1898 -0.6671  2.5180
14931TIP3   OH266207   4.559   1.764  15.315  0.2381  0.0462 -0.6329
14931TIP3    H166208   4.464   1.753  15.308 -0.3930  3.2588  1.7966
14931TIP3    H266209   4.581   1.723  15.399  0.4253  2.3444  0.4706
14932TIP3   OH266210   0.051   0.873  11.845  0.2912 -0.2932  0.0868
14932TIP3    H166211   0.140   0.864  11.881  0.4264  1.0801  0.1218
14932TIP3    H266212   0.009   0.790  11.865  0.3110  0.4769  3.6542
14933TIP3   OH266213   0.144   2.120   2.643 -0.0728  0.1766  0.0830
14933TIP3    H166214   0.192   2.094   2.721 -0.6446  0.7358  0.6258
14933TIP3    H266215   0.187   2.073   2.571  1.2564  0.6398  0.5617
14934TIP3   OH266216   1.277   3.736   5.149  0.3057  0.3432  0.0341
14934TIP3    H166217   1.357   3.751   5.099 -1.0959  1.6622 -1.9211
14934TIP3    H266218   1.253   3.823   5.181  0.2938 -0.2366  1.6210
14935TIP3   OH266219   1.250   5.991  12.359  0.6219 -0.4933 -0.3057
14935TIP3    H166220   1.297   6.073  12.375  1.4779 -1.3270  1.5494
14935TIP3    H266221   1.254   5.979  12.264  0.3442  1.6785 -0.6247
14936TIP3   OH266222   4.626   6.709   3.345 -0.1269 -0.1792 -0.0420
14936TIP3    H166223   4.564   6.678   3.279 -1.0386  1.1512  0.1626
14936TIP3    H266224   4.680   6.633   3.365 -1.6481 -1.3543 -0.2953
14937TIP3   OH266225   3.340   2.501   5.756 -0.3009 -0.2864 -0.6678
14937TIP3    H166226   3.427   2.539   5.768 -0.5718  0.2972 -0.5180
14937TIP3    H266227   3.328   2.444   5.832  0.2025 -0.8515 -1.0118
14938TIP3   OH266228   6.519   5.831  14.681  0.4878 -0.3927 -0.0632
14938TIP3    H166229   6.480   5.803  14.599  0.6599 -0.0732 -0.2573
14938TIP3    H266230   6.470   5.910  14.706 -2.2344 -2.6963  2.2126
14939TIP3   OH266231   1.508   0.982   2.313 -0.2504  0.1984  0.2582
14939TIP3    H166232   1.494   0.923   2.387  0.8460 -1.5603 -0.8690
14939TIP3    H266233   1.421   1.012   2.288 -0.8534 -1.1763  0.6968
14940TIP3   OH266234   6.340   1.359  11.111  0.6008 -0.1086 -0.0499
14940TIP3    H166235   6.300   1.289  11.162  1.0777 -1.3043 -1.2908
14940TIP3    H266236   6.411   1.317  11.064  0.6325  1.1259 -1.1419
14941TIP3   OH266237   5.175   2.832   2.277 -0.2117  0.2249  0.1406
14941TIP3    H166238   5.140   2.891   2.210  0.4373  0.1805 -0.2459
14941TIP3    H266239   5.124   2.852   2.356 -1.7701 -0.5300 -0.6615
14942TIP3   OH266240   4.645   2.068  16.762  0.3568 -0.4780 -0.0603
14942TIP3    H166241   4.556   2.102  16.777  0.1983 -1.2783  0.9197
14942TIP3    H266242   4.677   2.048  16.850  2.1752  1.4394 -0.2581
14943TIP3   OH266243   4.493   5.243   5.050  0.8427  0.0923  0.1257
14943TIP3    H166244   4.442   5.175   5.093 -1.6580  0.4964 -2.1092
14943TIP3    H266245   4.519   5.205   4.966  1.5850  1.0115 -0.0820
14944TIP3   OH266246   2.831   1.458   3.785 -0.5617 -0.6154  0.3727
14944TIP3    H166247   2.773   1.427   3.854 -0.5178 -1.8575 -0.1181
14944TIP3    H266248   2.919   1.435   3.815 -0.6563 -2.6859 -0.8113
14945TIP3   OH266249   5.782   1.657  15.881  0.3860  0.0810  0.8117
14945TIP3    H166250   5.778   1.748  15.911  1.2851  0.1706  0.6743
14945TIP3    H266251   5.747   1.660  15.792 -0.1818  0.1806  1.0330
14946TIP3   OH266252   1.903   1.058  14.153  0.6454  0.1018  0.1603
14946TIP3    H166253   1.937   1.016  14.074 -1.8366  0.1234 -0.9994
14946TIP3    H266254   1.891   0.987  14.215  1.0674 -0.1662 -0.0641
14947TIP3   OH266255   4.902   2.636  11.095  0.1837 -0.5257  0.4967
14947TIP3    H166256   4.909   2.543  11.074  0.9349 -0.8127  1.9799
14947TIP3    H266257   4.900   2.679  11.009  1.4353 -1.7940 -0.1994
14948TIP3   OH266258   2.662   3.321  11.134  0.6485 -0.7069 -0.2755
14948TIP3    H166259   2.667   3.416  11.121 -0.2516 -0.6164 -0.0447
14948TIP3    H266260   2.749   3.296  11.165  1.0708 -0.0493 -0.9269
14949TIP3   OH266261   5.451   6.475  12.396 -0.1563 -0.0183 -0.3558
14949TIP3    H166262   5.541   6.443  12.386  0.2987  0.5799  1.5711
14949TIP3    H266263   5.461   6.567  12.421 -1.2926  0.0032  0.0515
14950TIP3   OH266264   3.629   3.165   3.069 -0.0636  0.2711 -0.1329
14950TIP3    H166265   3.543   3.169   3.113  0.3090 -1.0250  0.7231
14950TIP3    H266266   3.678   3.099   3.118  0.9122 -0.0681 -1.5574
14951TIP3   OH266267   5.638   1.122   2.081 -0.3186  0.3478  0.5708
14951TIP3    H166268   5.666   1.154   1.995 -1.8726  0.1339 -0.0196
14951TIP3    H266269   5.715   1.137   2.137  0.7487  0.3964 -0.8598
14952TIP3   OH266270   0.552   0.850   4.334  0.3076  0.4927 -0.1009
14952TIP3    H166271   0.591   0.795   4.266  1.3488 -0.6400  1.3872
14952TIP3    H266272   0.534   0.933   4.290 -1.7694 -1.1873 -2.5053
14953TIP3   OH266273   6.530   3.791   1.095  0.3294 -0.6145 -0.3996
14953TIP3    H166274   6.520   3.866   1.153  0.1198  1.7727 -3.4321
14953TIP3    H266275   6.624   3.776   1.089  0.4042 -0.1287 -0.3863
14954TIP3   OH266276   2.111   6.687   5.021 -0.0924  0.0463 -0.0421
14954TIP3    H166277   2.207   6.689   5.014 -0.1386 -1.3102 -1.2008
14954TIP3    H266278   2.085   6.607   4.977 -1.8519  0.9095 -0.6294
14955TIP3   OH266279   5.405   5.206  14.654  0.0927  0.0627 -0.3153
14955TIP3    H166280   5.335   5.219  14.590  0.0892  0.4344 -0.2406
14955TIP3    H266281   5.369   5.238  14.737 -0.2603 -1.3579  0.0922
14956TIP3   OH266282   2.301   2.664  14.023 -0.3596 -0.6370 -0.3035
14956TIP3    H166283   2.332   2.574  14.010  0.1961 -0.4437 -0.3219
14956TIP3    H266284   2.335   2.689  14.109 -1.5037 -0.8527  0.2225
14957TIP3   OH266285   5.172   4.177  14.130 -0.4422  0.4970  0.0364
14957TIP3    H166286   5.203   4.157  14.042 -1.3397 -0.0514 -0.1674
14957TIP3    H266287   5.140   4.093  14.164 -0.1887  0.7259  0.8483
14958TIP3   OH266288   1.919   2.281   3.877 -0.0994  0.0064 -0.3674
14958TIP3    H166289   1.901   2.194   3.913 -0.5689 -0.6102 -2.0276
14958TIP3    H266290   2.013   2.281   3.861  0.0831  0.2171  0.6346
14959TIP3   OH266291   1.263   6.029   1.151  0.0078  0.4258  0.0263
14959TIP3    H166292   1.273   5.977   1.072  1.1195 -1.2006  1.1966
14959TIP3    H266293   1.305   6.112   1.131 -0.4826  0.3492 -1.3634
14960TIP3   OH266294   5.368   2.268   5.369  0.4086 -0.1837  0.0871
14960TIP3    H166295   5.433   2.253   5.439  2.2299  0.0647 -1.5015
14960TIP3    H266296   5.352   2.181   5.333  0.5033 -0.1425 -0.0570
14961TIP3   OH266297   3.715   1.964  15.057  0.2145 -0.9622  0.1045
14961TIP3    H166298   3.692   1.878  15.090 -1.7980 -0.9702 -1.2300
14961TIP3    H266299   3.679   2.025  15.121 -0.3077 -1.0635 -0.0929
14962TIP3   OH266300   6.563   3.270   3.683  0.4603  0.0428  0.2038
14962TIP3    H166301   6.598   3.235   3.765 -2.3765 -1.4874  0.8118
14962TIP3    H266302   6.473   3.239   3.680 -0.0124  1.5340 -2.6771
14963TIP3   OH266303   5.523   0.009  12.441  0.0954  0.0617  0.2425
14963TIP3    H166304   5.483   0.015  12.355  0.6959 -0.7804 -0.1075
14963TIP3    H266305   5.450   0.017  12.502 -0.5892 -1.2570 -0.3808
14964TIP3   OH266306   4.339   4.960  12.172  0.2412 -0.0643 -0.0133
14964TIP3    H166307   4.280   4.975  12.098 -0.0823 -1.3298 -0.0249
14964TIP3    H266308   4.310   5.023  12.238  0.7813  1.3554 -1.0888
14965TIP3   OH266309   6.252   4.345   5.822 -0.2436 -0.4224 -0.1625
14965TIP3    H166310   6.329   4.399   5.841 -1.0155  0.3411  0.8650
14965TIP3    H266311   6.184   4.380   5.880 -0.4804 -3.2024  1.2997
14966TIP3   OH266312   0.656   6.736  14.146 -0.0714  0.4258 -0.1746
14966TIP3    H166313   0.619   6.647  14.150  1.1487 -0.1067 -0.5516
14966TIP3    H266314   0.605   6.779  14.077 -0.0937 -0.2559 -0.5963
14967TIP3   OH266315   4.002   6.514   3.232  0.5773  0.1863  0.3807
14967TIP3    H166316   4.001   6.573   3.157 -1.4388  0.5515  0.6472
14967TIP3    H266317   3.923   6.537   3.281 -0.9426 -3.5231 -0.1607
14968TIP3   OH266318   0.952   1.415  15.411 -0.7128  0.5040  0.4467
14968TIP3    H166319   0.985   1.462  15.487 -0.5011 -0.7553  1.1526
14968TIP3    H266320   0.862   1.447  15.399 -0.9600  0.2463  1.6087
14969TIP3   OH266321   6.102   6.059   0.873  0.3390 -0.0108  0.1473
14969TIP3    H166322   6.086   6.150   0.900  0.4962  0.5533 -1.5810
14969TIP3    H266323   6.160   6.066   0.797  0.1293 -1.5450 -0.1774
14970TIP3   OH266324   0.527   2.637   2.384 -0.3517 -0.5749  0.0993
14970TIP3    H166325   0.545   2.703   2.451 -0.6289 -0.4064  0.0101
14970TIP3    H266326   0.522   2.555   2.432 -0.4859 -0.4626  0.2800
14971TIP3   OH266327   6.454   1.975   3.093  0.0118  0.0789 -0.0560
14971TIP3    H166328   6.481   1.942   3.178 -1.8497  1.5527  1.1576
14971TIP3    H266329   6.361   1.954   3.087 -0.0690  0.7502 -1.3413
14972TIP3   OH266330   0.441   4.898   2.705  0.8953  0.6659 -0.0178
14972TIP3    H166331   0.390   4.821   2.729 -2.0063  1.9211 -1.8753
14972TIP3    H266332   0.513   4.863   2.652 -1.1331 -0.6558 -1.9575
14973TIP3   OH266333   3.489   2.528  16.757 -0.5109  0.1288  0.0481
14973TIP3    H166334   3.521   2.601  16.810 -0.9239 -0.5425  1.2342
14973TIP3    H266335   3.560   2.464  16.760 -0.7303 -0.1052  0.1568
14974TIP3   OH266336   0.547   0.792  12.017  0.3046  0.5937  0.2583
14974TIP3    H166337   0.512   0.865  12.066 -0.5352  1.1911 -1.2018
14974TIP3    H266338   0.609   0.750  12.077 -0.7942  1.2098  1.8475
14975TIP3   OH266339   1.316   1.507   1.864  0.1682  0.1432  0.4816
14975TIP3    H166340   1.297   1.568   1.792  0.1955 -0.1777  0.1991
14975TIP3    H266341   1.295   1.556   1.943  1.8038  1.1338  0.3392
14976TIP3   OH266342   6.736   2.966   3.692  0.6101 -0.6020  0.2769
14976TIP3    H166343   6.812   2.915   3.716  1.5527  0.2045 -0.9462
14976TIP3    H266344   6.661   2.914   3.722  1.6451 -1.1083  2.0305
14977TIP3   OH266345   5.673   2.507   6.100 -0.0405  0.3365  0.8025
14977TIP3    H166346   5.671   2.464   6.014 -0.2522  2.8417 -0.4857
14977TIP3    H266347   5.757   2.552   6.103 -1.7704  3.7769  0.0726
14978TIP3   OH266348   5.613   3.311   5.537  0.3852  0.1449 -0.2619
14978TIP3    H166349   5.672   3.280   5.606  0.4275 -0.0578 -0.3914
14978TIP3    H266350   5.672   3.342   5.468  0.3802  2.1188  0.5731
14979TIP3   OH266351   4.756   6.724  11.240 -0.5222 -0.6065  0.1929
14979TIP3    H166352   4.693   6.733  11.312  0.0286 -0.0360  0.6028
14979TIP3    H266353   4.763   6.629  11.227 -0.1326 -0.7418  1.3257
14980TIP3   OH266354   4.903   1.229   3.234 -0.2656  0.4872  1.0762
14980TIP3    H166355   4.975   1.180   3.273  0.5065  1.1660  0.5189
14980TIP3    H266356   4.913   1.318   3.267 -1.2610  0.4352  1.5382
14981TIP3   OH266357   2.581   1.871   0.587  0.3075  0.0274  0.6752
14981TIP3    H166358   2.516   1.869   0.657  0.2920 -0.7178  0.6436
14981TIP3    H266359   2.585   1.780   0.556  0.2906  0.3612 -0.3086
14982TIP3   OH266360   1.177   0.649  10.996  0.1913 -0.3581  0.3834
14982TIP3    H166361   1.126   0.603  10.929  0.2559 -0.1428  0.1816
14982TIP3    H266362   1.268   0.634  10.971  0.2117 -0.1146  0.3110
14983TIP3   OH266363   0.679   1.218   0.368 -0.1540 -0.1352  0.2813
14983TIP3    H166364   0.660   1.311   0.357  0.6731  0.0342  0.2221
14983TIP3    H266365   0.763   1.206   0.324  0.7371 -0.4752  2.0369
14984TIP3   OH266366   0.415   5.670  13.435  0.6199 -0.3319 -0.0928
14984TIP3    H166367   0.393   5.762  13.419 -1.4353 -0.8055 -0.1039
14984TIP3    H266368   0.475   5.647  13.365  0.0283  0.6257 -0.9190
14985TIP3   OH266369   6.433   1.251  10.404 -0.2842  0.1783  0.4554
14985TIP3    H166370   6.442   1.160  10.431 -1.6323  0.0059  0.3546
14985TIP3    H266371   6.403   1.247  10.313  0.8481  0.7353  0.0473
14986TIP3   OH266372   3.618   0.592   1.825 -0.2917  0.0087 -0.1272
14986TIP3    H166373   3.613   0.581   1.730  0.6860 -0.1829 -0.1585
14986TIP3    H266374   3.689   0.655   1.838  1.4028 -1.9992  0.5999
14987TIP3   OH266375   0.852   3.432   3.393  0.5350  0.4503 -0.2955
14987TIP3    H166376   0.762   3.446   3.361  0.0873  0.0016  0.7639
14987TIP3    H266377   0.867   3.338   3.383  0.1749  0.2063  1.3704
14988TIP3   OH266378   0.588   3.767  11.618 -0.3353 -0.2354  0.1400
14988TIP3    H166379   0.679   3.738  11.622 -0.4011 -0.4738 -0.1109
14988TIP3    H266380   0.539   3.701  11.666 -0.4403 -0.3622 -0.1411
14989TIP3   OH266381   3.248   0.286   3.366  0.1596  0.1827  0.0980
14989TIP3    H166382   3.216   0.347   3.300 -0.0393  1.5087  1.3801
14989TIP3    H266383   3.336   0.320   3.388  1.6465 -2.2202 -1.9171
14990TIP3   OH266384   2.637   1.543   2.290  0.1496  0.6735  0.4508
14990TIP3    H166385   2.606   1.454   2.306  0.4876  1.0550  3.5112
14990TIP3    H266386   2.728   1.532   2.261  0.1167  0.0122  0.5862
14991TIP3   OH266387   5.708   3.323  13.438 -0.0431 -0.8511  0.4936
14991TIP3    H166388   5.672   3.261  13.501 -0.9605 -1.2041 -0.3593
14991TIP3    H266389   5.632   3.352  13.387  0.1825  1.8862  1.6365
14992TIP3   OH266390   2.577   4.489   4.618  0.0545  0.5856 -0.0038
14992TIP3    H166391   2.642   4.518   4.553  2.2238  0.8224  2.1702
14992TIP3    H266392   2.600   4.398   4.635  0.1283  0.8034  1.1078
14993TIP3   OH266393   1.840   2.039  10.571  0.0352 -0.1281  1.0125
14993TIP3    H166394   1.834   2.030  10.476 -0.0411  2.4125  0.7267
14993TIP3    H266395   1.756   2.007  10.604  0.3306 -1.6555  0.2866
14994TIP3   OH266396   2.563   4.884  14.847  0.0971 -0.3348  0.4259
14994TIP3    H166397   2.504   4.958  14.839  1.2126  0.4603 -0.6028
14994TIP3    H266398   2.634   4.916  14.904  0.1122 -0.9085  0.7352
14995TIP3   OH266399   2.004   1.413   0.882  0.0347  0.4609  0.6727
14995TIP3    H166400   1.997   1.464   0.801 -0.5234  1.3105  1.2420
14995TIP3    H266401   2.079   1.451   0.927  0.3053  0.0321  0.5802
14996TIP3   OH266402   1.053   6.509  17.076 -0.0585 -0.2720  0.7037
14996TIP3    H166403   1.062   6.436  17.136  2.1712 -0.2981  0.3810
14996TIP3    H266404   1.115   6.575  17.109  0.1292  0.2816 -0.7286
14997TIP3   OH266405   5.790   4.747  10.613 -0.2194  0.0289  0.3881
14997TIP3    H166406   5.854   4.787  10.554 -1.1422  1.6974  0.4578
14997TIP3    H266407   5.758   4.670  10.566  0.2833  0.3969 -0.5775
14998TIP3   OH266408   4.810   0.970  14.432 -0.3770  0.1820 -0.4607
14998TIP3    H166409   4.887   0.955  14.378 -0.7372  1.8812 -1.4864
14998TIP3    H266410   4.845   1.003  14.515  0.1001 -1.1120 -0.1345
14999TIP3   OH266411   3.800   6.225   4.413 -0.0212  0.0983  0.1828
14999TIP3    H166412   3.778   6.310   4.452 -0.3272 -0.2684  0.8091
14999TIP3    H266413   3.716   6.181   4.401  0.0778  0.1440 -0.7693
15000TIP3   OH266414   4.479   2.535  10.715  0.1475 -0.0925 -0.3513
15000TIP3    H166415   4.556   2.582  10.683 -0.5190  0.6492 -0.8897
15000TIP3    H266416   4.419   2.535  10.641  0.5065 -2.6770 -0.6857
15001TIP3   OH266417   6.154   3.326   3.073 -0.8774 -0.7241 -0.1421
15001TIP3    H166418   6.243   3.358   3.090 -0.9463 -0.5618 -0.0883
15001TIP3    H266419   6.164   3.263   3.001 -0.7185 -0.7073 -0.1340
15002TIP3   OH266420   4.068   2.332   4.896  0.1852  0.3433  0.3122
15002TIP3    H166421   4.031   2.418   4.916 -0.5452  0.1100 -0.0371
15002TIP3    H266422   4.149   2.352   4.849  1.7732  0.8910  3.1873
15003TIP3   OH266423   5.312   6.695   2.789 -0.3440 -0.3540  0.1014
15003TIP3    H166424   5.363   6.625   2.747 -1.4214 -0.6345 -0.7344
15003TIP3    H266425   5.355   6.776   2.762  3.0245 -0.7609  3.7985
15004TIP3   OH266426   5.923   6.735   2.898 -0.4045  0.0007  0.3404
15004TIP3    H166427   5.915   6.650   2.941  0.6275  0.7948  2.1534
15004TIP3    H266428   6.017   6.750   2.891 -0.5615  0.0626 -1.8783
15005TIP3   OH266429   2.289   5.540  12.074  0.2353  0.4862  0.2759
15005TIP3    H166430   2.379   5.514  12.095  0.7371  2.1121  0.2545
15005TIP3    H266431   2.289   5.552  11.979  0.5496  2.3569  0.4768
15006TIP3   OH266432   0.892   5.534   1.075 -0.0111  0.4629  0.1003
15006TIP3    H166433   0.887   5.630   1.080  3.7042  0.6550  1.1933
15006TIP3    H266434   0.947   5.509   1.150  1.3997 -2.2837 -1.7930
15007TIP3   OH266435   0.513   2.544  12.732 -0.3917  0.5707  0.1861
15007TIP3    H166436   0.550   2.498  12.807  0.1718  1.3199  0.3745
15007TIP3    H266437   0.569   2.519  12.659 -0.6341  0.2432  0.1121
15008TIP3   OH266438   2.597   5.597   3.239  0.7832  0.2288 -0.1433
15008TIP3    H166439   2.607   5.502   3.227  0.1027 -0.3860  3.4517
15008TIP3    H266440   2.685   5.629   3.255  0.6720 -0.3484  1.7588
15009TIP3   OH266441   3.125   0.251  14.121  0.2914 -0.5532 -0.0923
15009TIP3    H166442   3.119   0.180  14.185  0.7288 -2.7543 -2.4344
15009TIP3    H266443   3.091   0.328  14.168  0.6145 -2.0692  2.7720
15010TIP3   OH266444   0.366   3.360   5.763 -0.4473 -0.1194  0.1451
15010TIP3    H166445   0.448   3.399   5.732 -1.1800  1.5026  0.2023
15010TIP3    H266446   0.321   3.331   5.684 -0.2365 -0.1821  0.0485
15011TIP3   OH266447   1.536   5.356   4.953  0.4642  0.2890 -0.1010
15011TIP3    H166448   1.620   5.311   4.957 -0.6513 -2.1191 -2.0827
15011TIP3    H266449   1.531   5.405   5.035  2.7678 -1.3727  1.1057
15012TIP3   OH266450   5.462   3.160  12.377  0.1770 -0.6363 -1.1088
15012TIP3    H166451   5.466   3.120  12.290  0.3825  2.6129 -2.6862
15012TIP3    H266452   5.552   3.159  12.408  0.1738 -1.4027 -1.1181
15013TIP3   OH266453   2.536   5.153  15.877 -0.3637  0.0013 -0.2487
15013TIP3    H166454   2.481   5.106  15.940 -0.3864  2.0502  1.3467
15013TIP3    H266455   2.609   5.187  15.929  2.2470 -2.2995 -2.2615
15014TIP3   OH266456   4.984   0.527  11.521 -0.3390  0.1046 -0.5485
15014TIP3    H166457   4.888   0.526  11.515 -0.4416  1.7842  0.4160
15014TIP3    H266458   5.009   0.612  11.485  0.8319 -0.5371 -1.2559
15015TIP3   OH266459   4.740   5.887  12.844 -0.3496 -0.4289  0.1495
15015TIP3    H166460   4.755   5.975  12.812 -0.8171 -0.8284 -1.2008
15015TIP3    H266461   4.774   5.888  12.934 -0.0399  1.0123  0.0288
15016TIP3   OH266462   1.745   5.896  15.400 -0.1190 -0.2535 -0.1453
15016TIP3    H166463   1.759   5.901  15.305  2.8859  0.5450  0.2887
15016TIP3    H266464   1.752   5.987  15.430  1.3985 -0.7589  1.1213
15017TIP3   OH266465   1.308   3.222  13.183  0.2371  0.7364 -0.1204
15017TIP3    H166466   1.279   3.223  13.275  0.9181  0.1881  0.1024
15017TIP3    H266467   1.363   3.144  13.176  0.5586  1.0282 -0.8806
15018TIP3   OH266468   1.284   1.073   5.792  0.0172  0.1431 -0.4824
15018TIP3    H166469   1.204   1.117   5.766  0.1583 -0.0649 -1.2994
15018TIP3    H266470   1.355   1.132   5.765  0.1262  0.5718  0.7193
15019TIP3   OH266471   4.928   5.652  13.736  0.0728  0.0603 -0.1704
15019TIP3    H166472   4.970   5.566  13.724  1.9711  0.9539 -0.0347
15019TIP3    H266473   4.966   5.707  13.667  3.1647  2.3301  3.1815
15020TIP3   OH266474   3.448   6.261  10.861  1.0778 -0.0956 -0.0783
15020TIP3    H166475   3.456   6.184  10.804 -0.1368 -1.3050  1.3588
15020TIP3    H266476   3.413   6.329  10.804 -0.2232 -1.3224 -0.7697
15021TIP3   OH266477   4.729   6.716  12.103  0.5704 -0.3828  0.4102
15021TIP3    H166478   4.727   6.626  12.070 -0.7832 -1.1440  2.5067
15021TIP3    H266479   4.637   6.739  12.114  0.7160  2.5384 -3.3495
15022TIP3   OH266480   1.949   0.222   3.220  0.0368 -0.0999 -0.1363
15022TIP3    H166481   2.036   0.261   3.219 -0.3856  0.8700 -1.5723
15022TIP3    H266482   1.898   0.275   3.281  0.7326 -1.3502  1.5611
15023TIP3   OH266483   2.891   2.600   5.951 -0.5904  0.0733  0.2752
15023TIP3    H166484   2.985   2.588   5.942 -0.6061  0.4100 -0.3851
15023TIP3    H266485   2.854   2.514   5.933 -0.4137 -0.0588  0.5321
15024TIP3   OH266486   2.653   4.028   4.876  0.4874 -0.0760  0.2097
15024TIP3    H166487   2.671   3.979   4.796  1.5410  0.0247  0.3761
15024TIP3    H266488   2.561   4.010   4.896  0.7316 -1.5785 -0.0035
15025TIP3   OH266489   5.936   4.239   0.997 -0.5168  0.3483  0.3458
15025TIP3    H166490   5.935   4.145   1.014  0.6871  0.2124 -0.2171
15025TIP3    H266491   5.923   4.280   1.082 -0.3701 -0.3293  0.6945
15026TIP3   OH266492   6.537   6.431   5.304  0.5088  0.6928  0.0343
15026TIP3    H166493   6.467   6.494   5.324  0.2851  0.4889 -0.1085
15026TIP3    H266494   6.607   6.452   5.367  1.1386  2.2193 -1.1384
15027TIP3   OH266495   0.301   1.905   2.565  0.3459  0.3053  0.3309
15027TIP3    H166496   0.253   1.907   2.648  0.1099  0.2148  0.1970
15027TIP3    H266497   0.391   1.889   2.590  0.3481  0.7397  0.6027
15028TIP3   OH266498   6.363   4.577  14.804 -0.3840  0.5118  0.1566
15028TIP3    H166499   6.343   4.664  14.769  0.6203  0.9679  0.7237
15028TIP3    H266500   6.445   4.588  14.852 -1.2796 -0.3081  1.9156
15029TIP3   OH266501   3.364   6.132   2.848 -0.9566 -0.2964  0.3665
15029TIP3    H166502   3.298   6.160   2.912 -1.0693 -2.4427  1.2018
15029TIP3    H266503   3.335   6.046   2.819  1.0340 -0.9056  0.1250
15030TIP3   OH266504   1.460   1.635  11.346  0.5210 -0.0227  0.3417
15030TIP3    H166505   1.416   1.617  11.430  0.9482  1.2848  0.8646
15030TIP3    H266506   1.390   1.666  11.289  0.6969  1.9130  1.1292
15031TIP3   OH266507   1.300   4.153   1.654  0.0193  0.1051 -0.5339
15031TIP3    H166508   1.285   4.224   1.591  0.5553 -1.9933 -3.1038
15031TIP3    H266509   1.229   4.092   1.638  0.3156 -0.5802  0.7345
15032TIP3   OH266510   4.381   3.129  11.831  0.1427  0.2390  0.0046
15032TIP3    H166511   4.414   3.134  11.741 -0.4123  0.3682 -0.1942
15032TIP3    H266512   4.343   3.215  11.848 -1.3365 -0.3521 -0.2579
15033TIP3   OH266513   6.133   2.386  13.342 -0.6929 -0.9355 -0.1495
15033TIP3    H166514   6.048   2.359  13.378 -0.8321  0.0704  0.3033
15033TIP3    H266515   6.131   2.481  13.345  0.8094 -0.9005  0.7164
15034TIP3   OH266516   5.323   6.091   2.831 -0.1445  0.1949 -0.4704
15034TIP3    H166517   5.242   6.062   2.874 -0.3444 -1.6321 -2.0119
15034TIP3    H266518   5.303   6.179   2.799 -1.2297  0.0930 -0.1123
15035TIP3   OH266519   1.323   3.078  12.358  0.0298  0.1985  0.8076
15035TIP3    H166520   1.250   3.073  12.296  0.2083 -0.2485  0.6254
15035TIP3    H266521   1.288   3.123  12.434 -0.3811  0.1614  0.6386
15036TIP3   OH266522   5.041   3.310  16.939  0.1663 -1.0247 -0.1025
15036TIP3    H166523   4.969   3.361  16.975 -0.0418 -1.7324  0.5071
15036TIP3    H266524   5.111   3.373  16.924  0.1151 -0.6562  1.1791
15037TIP3   OH266525   4.647   3.483  16.326 -0.2145  0.2977 -0.6328
15037TIP3    H166526   4.740   3.504  16.311  0.4051 -1.6618  0.3276
15037TIP3    H266527   4.636   3.496  16.420 -0.0881 -2.5164 -0.1948
15038TIP3   OH266528   6.222   1.564   1.567  0.8679  0.1553  0.2276
15038TIP3    H166529   6.249   1.585   1.478 -0.0278  1.1706  0.1832
15038TIP3    H266530   6.303   1.555   1.616  1.3333  0.7398 -0.4321
15039TIP3   OH266531   6.389   3.328   0.529  0.0349  0.1132 -0.6844
15039TIP3    H166532   6.469   3.287   0.563 -0.2475 -0.1383 -0.3272
15039TIP3    H266533   6.318   3.289   0.579 -0.4457 -0.7638 -2.0178
15040TIP3   OH266534   4.338   5.707  11.806 -0.4452 -0.0758 -0.1641
15040TIP3    H166535   4.371   5.759  11.733  0.1893 -0.1473  0.0725
15040TIP3    H266536   4.275   5.765  11.850 -0.3198  0.2069 -0.3605
15041TIP3   OH266537   4.240   6.560  12.719  0.9418 -0.0391 -0.2085
15041TIP3    H166538   4.231   6.506  12.798  0.9729 -0.6386 -0.6081
15041TIP3    H266539   4.154   6.600  12.708  0.3977 -1.3489 -0.8572
15042TIP3   OH266540   2.879   3.057   0.822  0.1823  0.5979 -0.6161
15042TIP3    H166541   2.943   3.088   0.758  0.8168 -1.0252 -0.7813
15042TIP3    H266542   2.803   3.030   0.770 -0.0747  1.1514 -0.5303
15043TIP3   OH266543   4.438   4.368  12.107  0.1457 -0.2910 -0.5675
15043TIP3    H166544   4.519   4.324  12.082  0.9386  0.1744  1.0604
15043TIP3    H266545   4.459   4.462  12.101  0.2258 -0.1641  1.2817
15044TIP3   OH266546   1.513   0.660   0.342  0.1663  0.3694 -0.5977
15044TIP3    H166547   1.606   0.683   0.351  0.0334  0.8685 -0.5297
15044TIP3    H266548   1.471   0.695   0.420  0.2352 -1.5098  0.3034
15045TIP3   OH266549   2.024   3.034  11.170  0.5837  0.4937 -0.2272
15045TIP3    H166550   2.083   2.970  11.209 -1.1185  0.1351  1.8717
15045TIP3    H266551   2.061   3.051  11.084  2.0336 -2.0226 -0.1687
15046TIP3   OH266552   1.293   1.875  11.268  0.3824 -0.3890  0.1761
15046TIP3    H166553   1.219   1.936  11.267  0.9711  0.3221  0.0004
15046TIP3    H266554   1.289   1.830  11.184 -0.2484 -0.8375  0.4394
15047TIP3   OH266555   0.372   4.280  12.518  0.0179  0.3171  0.0665
15047TIP3    H166556   0.409   4.368  12.511 -1.3130  0.9159  0.4168
15047TIP3    H266557   0.282   4.290  12.488 -0.7561 -0.5057  2.0538
15048TIP3   OH266558   0.412   3.677   5.998 -0.0366 -0.3537 -0.6772
15048TIP3    H166559   0.483   3.632   6.045 -1.1994  0.1152  1.6264
15048TIP3    H266560   0.389   3.750   6.056 -2.8989 -0.9450 -1.0209
15049TIP3   OH266561   3.941   0.361  12.440  0.5314 -0.5441 -0.5732
15049TIP3    H166562   3.847   0.358  12.424  0.8028 -2.4303 -1.9675
15049TIP3    H266563   3.971   0.438  12.391 -0.1343 -0.5158 -0.9387
15050TIP3   OH266564   3.408   5.005  12.542 -0.3353 -0.8572  0.2863
15050TIP3    H166565   3.490   4.961  12.518 -0.1752  0.7045 -2.1884
15050TIP3    H266566   3.340   4.956  12.496 -0.5092 -0.4285  0.0929
15051TIP3   OH266567   2.886   4.661   0.606  0.3638  0.0019  0.0191
15051TIP3    H166568   2.922   4.748   0.587  1.5492 -0.5118 -0.0793
15051TIP3    H266569   2.897   4.651   0.701  0.9866 -0.3846 -0.0945
15052TIP3   OH266570   6.721   0.049  12.558  0.0871 -0.1544 -0.3725
15052TIP3    H166571   6.810   0.020  12.536 -0.5623 -2.3778 -0.2184
15052TIP3    H266572   6.670   0.033  12.478 -0.0170  1.8842 -0.7307
15053TIP3   OH266573   4.739   4.053  11.692  0.1645 -0.3354 -0.4243
15053TIP3    H166574   4.739   3.974  11.745  0.0777  0.2622  0.4726
15053TIP3    H266575   4.787   4.029  11.612 -0.0113 -1.3303 -0.2281
15054TIP3   OH266576   0.964   3.467   0.642 -0.3127  0.1186 -0.3342
15054TIP3    H166577   0.995   3.467   0.551  2.3325 -0.0335  0.5230
15054TIP3    H266578   0.952   3.560   0.662 -0.4181  0.1829 -0.6805
15055TIP3   OH266579   6.078   2.535  13.904  0.5391  0.3092  0.1497
15055TIP3    H166580   6.077   2.518  13.810 -2.5127  3.7607 -0.5389
15055TIP3    H266581   5.993   2.502  13.935  0.3671  1.6575  1.1755
15056TIP3   OH266582   2.640   2.705   1.244 -0.2673 -0.1228  0.2938
15056TIP3    H166583   2.729   2.741   1.246 -0.1062 -0.4638 -0.6092
15056TIP3    H266584   2.584   2.782   1.237  0.0216  0.0163 -0.4810
15057TIP3   OH266585   3.981   6.125   0.984  0.0225  1.0019  0.2046
15057TIP3    H166586   4.050   6.078   0.937 -0.1632  0.2580  0.6539
15057TIP3    H266587   4.019   6.209   1.008  1.1047  0.2172  1.3015
15058TIP3   OH266588   6.613   0.756  15.540  0.2470 -0.3157  0.2077
15058TIP3    H166589   6.530   0.720  15.510  0.6011 -1.7745  0.9018
15058TIP3    H266590   6.666   0.679  15.563  1.3386  0.6246  0.9429
15059TIP3   OH266591   4.044   4.911   2.914 -0.3102  0.0701  0.2494
15059TIP3    H166592   3.982   4.960   2.861 -0.7718 -0.4837  0.2732
15059TIP3    H266593   4.096   4.861   2.850  1.8401  2.4932  0.0456
15060TIP3   OH266594   4.047   0.308   4.211 -0.3487  0.0017  0.1095
15060TIP3    H166595   3.960   0.344   4.228 -0.5191  0.2018 -1.1521
15060TIP3    H266596   4.036   0.213   4.220 -0.9265 -0.0427 -1.0399
15061TIP3   OH266597   5.938   1.291   4.788 -0.3083 -0.0353 -0.3160
15061TIP3    H166598   5.977   1.370   4.751 -0.9664  1.0693  1.2914
15061TIP3    H266599   5.846   1.315   4.804  0.4121  0.2514  3.9009
15062TIP3   OH266600   2.594   4.457  14.903 -0.4544 -0.6738 -0.2434
15062TIP3    H166601   2.550   4.532  14.944 -0.8552  0.1170 -2.0986
15062TIP3    H266602   2.639   4.414  14.976 -0.4456  1.2002  0.9106
15063TIP3   OH266603   4.171   5.508   3.591 -0.0714 -0.1855  0.0949
15063TIP3    H166604   4.228   5.461   3.529 -1.7553 -0.7760 -1.0387
15063TIP3    H266605   4.160   5.447   3.664  0.4579 -0.2125  0.1554
15064TIP3   OH266606   4.982   5.886   1.891  0.6315 -0.2124 -0.5388
15064TIP3    H166607   4.920   5.834   1.840  1.4049 -0.3855 -1.3146
15064TIP3    H266608   4.931   5.962   1.920 -0.0471 -0.5497 -0.8280
15065TIP3   OH266609   1.523   0.190   0.899  0.1307  0.3094  1.0371
15065TIP3    H166610   1.600   0.134   0.904  0.0257 -0.0792 -1.0525
15065TIP3    H266611   1.549   0.271   0.943  2.0598  0.5050 -0.3870
15066TIP3   OH266612   2.426   6.084   0.180 -0.3243  0.1757 -0.2083
15066TIP3    H166613   2.460   6.133   0.105 -0.6861 -0.7980 -1.0361
15066TIP3    H266614   2.478   6.004   0.181  0.3845  0.6455  1.2385
15067TIP3   OH266615   5.077   3.367  14.120 -0.0531 -0.0389  0.1772
15067TIP3    H166616   5.172   3.374  14.131 -0.2475  1.0160  1.1994
15067TIP3    H266617   5.065   3.285  14.072  1.2458 -1.1905  1.7889
15068TIP3   OH266618   0.073   5.386   3.339  0.2333 -0.2008  0.0868
15068TIP3    H166619   0.039   5.391   3.428  0.3867  1.7128  0.0595
15068TIP3    H266620   0.064   5.475   3.305  0.3014 -0.8731 -1.7653
15069TIP3   OH266621   4.981   4.180  11.800 -0.1703  0.2917  0.1792
15069TIP3    H166622   5.001   4.087  11.789 -0.6866  0.1773  0.1901
15069TIP3    H266623   4.889   4.188  11.776 -0.4060  0.6213  1.1726
15070TIP3   OH266624   4.192   4.847   4.609 -0.3764  0.4517  0.3658
15070TIP3    H166625   4.222   4.901   4.682 -0.5728  0.2286  0.6091
15070TIP3    H266626   4.254   4.774   4.605 -0.3245  0.5001  0.2623
15071TIP3   OH266627   0.529   0.396   1.397 -0.2095  0.3663  0.4306
15071TIP3    H166628   0.604   0.338   1.414  0.8854  1.6626  0.0837
15071TIP3    H266629   0.556   0.480   1.432 -0.4446  1.5154 -2.0538
15072TIP3   OH266630   4.605   6.411   3.284 -0.8611  0.3853 -1.0024
15072TIP3    H166631   4.515   6.430   3.310 -0.8949 -0.0688 -0.7816
15072TIP3    H266632   4.602   6.401   3.189 -1.0404  0.3868 -0.9961
15073TIP3   OH266633   1.111   2.922  12.858  0.1099 -0.3221 -0.0995
15073TIP3    H166634   1.077   2.979  12.927 -2.2053 -0.0359 -1.4292
15073TIP3    H266635   1.201   2.952  12.844  0.0496  0.7091  1.6144
15074TIP3   OH266636   1.765   1.113  16.613  0.0331  0.6465 -0.3282
15074TIP3    H166637   1.679   1.120  16.573 -0.0187  1.6766 -0.0461
15074TIP3    H266638   1.770   1.187  16.674  1.0240  0.4636 -0.1738
15075TIP3   OH266639   5.824   4.197   3.458  0.5324  0.1921  0.2731
15075TIP3    H166640   5.804   4.158   3.373 -0.3988  1.4245 -0.0944
15075TIP3    H266641   5.856   4.124   3.511 -0.0282 -0.8229 -0.7551
15076TIP3   OH266642   5.388   1.767   5.860  0.2036  0.2938 -0.0136
15076TIP3    H166643   5.409   1.679   5.829 -1.5402  0.2471 -1.0882
15076TIP3    H266644   5.326   1.801   5.796  0.3368  2.0518  0.7696
15077TIP3   OH266645   0.701   1.795   0.406 -0.2011  0.6126 -0.5778
15077TIP3    H166646   0.743   1.738   0.471  0.9395  1.9372 -0.1394
15077TIP3    H266647   0.735   1.882   0.425 -2.7333  1.6404 -0.5756
15078TIP3   OH266648   2.847   6.137  12.554 -0.0577  0.5143  0.6799
15078TIP3    H166649   2.875   6.176  12.471 -1.0066  0.3106  0.2579
15078TIP3    H266650   2.752   6.130  12.547  0.1267 -2.6164  0.4034
15079TIP3   OH266651   3.867   5.441   2.548 -0.8288  0.1622  0.0967
15079TIP3    H166652   3.881   5.533   2.526  0.9488 -0.7634 -2.9060
15079TIP3    H266653   3.900   5.434   2.638 -1.2307  2.5024  0.4664
15080TIP3   OH266654   2.836   0.938  15.749 -0.0144  0.4090  0.1836
15080TIP3    H166655   2.871   0.856  15.784 -0.1039  1.2041  2.2053
15080TIP3    H266656   2.846   1.001  15.820 -0.0195  2.1505 -1.3190
15081TIP3   OH266657   0.429   2.867  13.267 -0.4972 -0.0077  0.1005
15081TIP3    H166658   0.360   2.929  13.245  0.0868 -0.5968 -3.7987
15081TIP3    H266659   0.499   2.887  13.204  1.4115 -1.7797  1.6028
15082TIP3   OH266660   4.598   2.451  15.756 -0.1201  0.6916 -0.4093
15082TIP3    H166661   4.690   2.451  15.730 -0.6281  1.4164 -2.2762
15082TIP3    H266662   4.556   2.386  15.699 -0.7107  0.1215  0.6520
15083TIP3   OH266663   4.742   2.774  13.101  1.5636  0.2194  0.0794
15083TIP3    H166664   4.730   2.861  13.065  3.6320  1.1673  1.5688
15083TIP3    H266665   4.832   2.749  13.077  1.1305 -1.3392 -0.0083
15084TIP3   OH266666   6.676   1.208   0.754  0.2507  0.2445 -0.0006
15084TIP3    H166667   6.741   1.253   0.807  1.9941 -0.6408 -1.3255
15084TIP3    H266668   6.601   1.267   0.751  1.2413  1.5660  1.0164
15085TIP3   OH266669   1.576   6.192   0.104  0.1308  0.5015 -0.1370
15085TIP3    H166670   1.481   6.193   0.088  0.2231  0.4359 -0.7274
15085TIP3    H266671   1.594   6.102   0.133  0.1269  0.2787 -0.8050
15086TIP3   OH266672   5.899   6.008   0.399 -0.8712  0.1388  0.0491
15086TIP3    H166673   5.994   5.995   0.392 -1.0069 -1.0088  0.3281
15086TIP3    H266674   5.877   5.980   0.488 -1.6965 -0.9975 -0.5006
15087TIP3   OH266675   2.944   2.704   2.025  0.6962  0.2846  0.6415
15087TIP3    H166676   2.998   2.693   2.104  1.0123  0.1996  0.4162
15087TIP3    H266677   2.934   2.615   1.991  0.4039  0.2994  0.6879
15088TIP3   OH266678   6.034   6.741   4.315  0.0163 -0.5929 -0.1339
15088TIP3    H166679   5.996   6.788   4.389 -1.3282 -0.8989 -0.6271
15088TIP3    H266680   6.078   6.665   4.355 -0.7775 -0.8039  0.3442
15089TIP3   OH266681   0.920   4.816  15.947 -0.3241  0.0689  0.5517
15089TIP3    H166682   0.871   4.796  16.027 -1.9179 -0.8223 -0.6063
15089TIP3    H266683   0.964   4.734  15.924 -2.3878 -0.6289 -1.1514
15090TIP3   OH266684   2.454   1.193  15.473  0.0456 -0.0239 -0.3696
15090TIP3    H166685   2.523   1.228  15.417 -1.1210  2.0005 -0.5938
15090TIP3    H266686   2.414   1.270  15.514 -1.3228 -1.2341  0.6302
15091TIP3   OH266687   3.132   3.044  12.593  0.0736  0.2808  0.0677
15091TIP3    H166688   3.127   3.135  12.564  0.6799  0.2094 -0.2796
15091TIP3    H266689   3.056   3.032  12.650 -1.4347  0.2859 -1.8958
15092TIP3   OH266690   1.143   2.337  13.990 -1.0208 -0.1901  0.7215
15092TIP3    H166691   1.202   2.261  13.995 -0.1769  0.4085  0.0523
15092TIP3    H266692   1.107   2.333  13.901  0.0481  0.9342  0.2260
15093TIP3   OH266693   0.816   1.901  12.733 -0.5338 -0.1426 -0.0911
15093TIP3    H166694   0.876   1.938  12.798 -0.4195 -1.0465  0.3176
15093TIP3    H266695   0.788   1.977  12.681  2.2022  0.1160 -1.3254
15094TIP3   OH266696   5.560   1.669  14.794 -0.2006  0.5597  1.0509
15094TIP3    H166697   5.566   1.661  14.699  2.4826  1.9621  1.0580
15094TIP3    H266698   5.538   1.580  14.824  0.6763 -0.2910 -0.7618
15095TIP3   OH266699   6.016   3.171   4.851  0.4659 -0.2270  0.9822
15095TIP3    H166700   6.103   3.208   4.835  0.8260 -1.6229 -0.4010
15095TIP3    H266701   5.969   3.241   4.897  1.7634  1.1916  0.2365
15096TIP3   OH266702   4.859   2.821  17.232  0.1405 -0.2782 -0.3306
15096TIP3    H166703   4.931   2.763  17.206  0.5556 -0.0519  0.2879
15096TIP3    H266704   4.847   2.803  17.325  0.0817  0.4195 -0.2011
15097TIP3   OH266705   6.661   3.207  15.368 -0.3882 -0.4318 -0.4310
15097TIP3    H166706   6.620   3.142  15.311 -1.4069 -0.1674  0.0023
15097TIP3    H266707   6.589   3.246  15.416  0.2853  0.6050 -0.2532
15098TIP3   OH266708   1.630   2.658  15.180  0.0553 -0.2026 -0.5908
15098TIP3    H166709   1.646   2.690  15.091  0.6870  3.2924  0.7070
15098TIP3    H266710   1.535   2.660  15.189  0.0452  0.4135 -0.8270
15099TIP3   OH266711   4.635   5.774   0.799 -0.0640 -0.2794 -0.4500
15099TIP3    H166712   4.636   5.775   0.703  0.1993 -0.1564 -0.4429
15099TIP3    H266713   4.629   5.681   0.821  1.2627 -0.3963 -0.5631
15100TIP3   OH266714   0.135   4.486  17.007 -0.5081 -0.3963  0.0080
15100TIP3    H166715   0.121   4.432  17.085  0.6530  0.1972  0.6401
15100TIP3    H266716   0.174   4.567  17.040 -1.3216  0.4427 -1.0394
15101TIP3   OH266717   4.273   0.646   5.000  0.6685 -0.1726 -0.0207
15101TIP3    H166718   4.329   0.684   4.933  0.0094 -0.3442 -0.6699
15101TIP3    H266719   4.259   0.556   4.972  1.3381 -0.5997  0.9550
15102TIP3   OH266720   0.514   2.019  15.267  0.1662  0.4561  0.0602
15102TIP3    H166721   0.437   2.008  15.211  0.2170 -0.4294  0.1549
15102TIP3    H266722   0.522   1.935  15.313 -0.7664  1.6500  2.5193
15103TIP3   OH266723   1.788   4.291  12.279  0.0330  0.3079 -0.0435
15103TIP3    H166724   1.765   4.201  12.301  4.1902 -0.5697  1.0969
15103TIP3    H266725   1.818   4.330  12.361 -1.5379  2.7486 -0.5439
15104TIP3   OH266726   0.215   2.856  14.927 -0.0107  0.8222  0.0613
15104TIP3    H166727   0.158   2.918  14.880  0.2729  1.0895  0.0673
15104TIP3    H266728   0.218   2.890  15.017 -1.0703 -0.0467  0.4364
15105TIP3   OH266729   1.901   4.110  16.719  0.0645 -0.4193  0.3879
15105TIP3    H166730   1.863   4.047  16.658  0.9130 -0.4277 -0.1264
15105TIP3    H266731   1.995   4.092  16.718  0.0400 -0.8107  2.1271
15106TIP3   OH266732   6.579   1.622   0.437  0.2850  0.0559 -0.4544
15106TIP3    H166733   6.563   1.593   0.347  1.4642  1.2854 -1.0989
15106TIP3    H266734   6.662   1.671   0.431 -0.1003  0.9287  1.1241
15107TIP3   OH266735   2.983   6.337   1.774 -0.2193 -0.5341 -0.5965
15107TIP3    H166736   2.888   6.343   1.783 -0.2328  1.2146 -1.6288
15107TIP3    H266737   3.011   6.426   1.755  1.8519 -0.6803  1.5045
15108TIP3   OH266738   4.462   5.475   2.135  0.5166  0.2702  0.0427
15108TIP3    H166739   4.458   5.562   2.095  1.7973  0.6293  0.6583
15108TIP3    H266740   4.445   5.491   2.228  2.6612  0.1384  0.4791
15109TIP3   OH266741   5.521   0.077   3.101  0.2779  0.0356  0.2928
15109TIP3    H166742   5.465   0.154   3.107 -0.1675 -0.2412 -0.2400
15109TIP3    H266743   5.560   0.081   3.014 -0.4904 -0.8347 -0.1041
15110TIP3   OH266744   6.575   2.495  16.868  0.3855  0.2753 -0.1134
15110TIP3    H166745   6.651   2.453  16.827 -0.6517 -1.8470  0.0605
15110TIP3    H266746   6.520   2.523  16.795 -0.7793 -2.2321 -0.2557
15111TIP3   OH266747   3.957   4.481  14.829  0.0561 -0.0009  0.0179
15111TIP3    H166748   3.950   4.551  14.765  2.4614  1.5072  1.3083
15111TIP3    H266749   3.984   4.405  14.778 -0.1031  0.6478 -1.0523
15112TIP3   OH266750   1.331   3.902   2.017  0.2579  0.2779 -0.7679
15112TIP3    H166751   1.238   3.885   2.032  0.4752  0.2615  0.5650
15112TIP3    H266752   1.360   3.829   1.963 -0.3724  0.0054 -0.7499
15113TIP3   OH266753   4.879   1.764   2.508  1.0003 -0.5193 -0.4554
15113TIP3    H166754   4.871   1.788   2.416 -0.3879 -0.7238 -0.4033
15113TIP3    H266755   4.884   1.668   2.507 -2.6888 -0.7788 -0.1281
15114TIP3   OH266756   4.140   3.918   4.334  0.1023 -0.5359 -0.2119
15114TIP3    H166757   4.213   3.909   4.272 -0.7338 -3.6182 -0.8510
15114TIP3    H266758   4.062   3.926   4.278 -0.4897 -1.8602  0.3904
15115TIP3   OH266759   2.432   0.973   4.503  0.2341  0.0873 -0.4202
15115TIP3    H166760   2.366   1.021   4.553 -1.4772 -1.6806 -0.9215
15115TIP3    H266761   2.446   1.027   4.425 -1.2475  0.0750 -0.7100
15116TIP3   OH266762   5.132   4.693   5.593  0.1799 -0.2514  0.3521
15116TIP3    H166763   5.106   4.768   5.646  2.1729  1.2867 -0.7838
15116TIP3    H266764   5.185   4.639   5.652  0.8036  0.4928  0.4722
15117TIP3   OH266765   3.979   2.907   1.947  0.1431  0.8303 -0.0464
15117TIP3    H166766   3.996   2.830   1.893  2.0977  0.9576  0.3474
15117TIP3    H266767   4.006   2.880   2.035 -1.8240  1.0382  0.6443
15118TIP3   OH266768   2.367   3.999  16.579  0.6811 -0.2503  0.1596
15118TIP3    H166769   2.452   4.019  16.540  0.3966  1.4958  0.3875
15118TIP3    H266770   2.381   4.007  16.673  0.1875  0.3811  0.1861
15119TIP3   OH266771   0.363   0.182   4.383 -0.3366  0.5161  0.1927
15119TIP3    H166772   0.285   0.228   4.413 -0.1447  0.6078  0.5494
15119TIP3    H266773   0.434   0.246   4.387 -0.2861  0.4997 -0.3550
15120TIP3   OH266774   3.019   4.659   1.142 -0.1676  0.9268 -0.2370
15120TIP3    H166775   3.029   4.737   1.196  0.4449  0.6439  0.0766
15120TIP3    H266776   3.109   4.637   1.115 -0.2102 -0.2303  0.4923
15121TIP3   OH266777   0.689   4.406   4.408 -0.2442  0.1806 -0.0930
15121TIP3    H166778   0.776   4.444   4.396  1.2637 -2.1117  2.9405
15121TIP3    H266779   0.664   4.374   4.322  2.3013  0.1270 -0.8342
15122TIP3   OH266780   5.866   6.164  13.955  0.1751 -0.3103  0.1013
15122TIP3    H166781   5.949   6.170  13.907 -1.1474  1.2735 -2.0849
15122TIP3    H266782   5.841   6.072  13.948  1.4067 -0.6601  0.1746
15123TIP3   OH266783   3.147   3.193   2.371  0.1221 -0.2367  0.1339
15123TIP3    H166784   3.072   3.251   2.357  0.2103 -0.0815  0.3108
15123TIP3    H266785   3.170   3.206   2.463 -0.3260 -1.0997  0.3742
15124TIP3   OH266786   3.706   6.133   5.771  0.3729 -0.1871  0.0877
15124TIP3    H166787   3.718   6.046   5.808  0.7511  1.2786  3.5520
15124TIP3    H266788   3.730   6.123   5.678  1.5544 -3.4619  0.6852
15125TIP3   OH266789   1.405   6.247  15.690  0.4333  0.2537 -0.4359
15125TIP3    H166790   1.472   6.215  15.750  1.9355  0.6152 -1.8634
15125TIP3    H266791   1.443   6.234  15.603 -1.6426 -0.1512 -1.3134
15126TIP3   OH266792   2.189   1.853  12.362 -0.2720 -0.2746 -0.1298
15126TIP3    H166793   2.149   1.867  12.448  0.3717 -0.8335  0.2683
15126TIP3    H266794   2.262   1.794  12.379  1.2230  1.3567 -0.6969
15127TIP3   OH266795   5.754   0.957   5.601 -0.2356 -0.0054  0.2312
15127TIP3    H166796   5.727   0.933   5.512  0.7423  0.3264 -0.1649
15127TIP3    H266797   5.672   0.972   5.648 -0.7800 -1.2709 -0.3057
15128TIP3   OH266798   3.723   5.115  11.852  0.1207 -0.2555 -1.0384
15128TIP3    H166799   3.730   5.021  11.838  0.5666 -0.3772 -0.0379
15128TIP3    H266800   3.732   5.126  11.947  0.4352  0.8284 -1.1894
15129TIP3   OH266801   5.925   0.386  12.082 -0.1833  0.5333  0.0390
15129TIP3    H166802   5.977   0.336  12.145  0.3480  0.3868 -0.5108
15129TIP3    H266803   5.855   0.327  12.056 -0.4484  0.6179  0.5353
15130TIP3   OH266804   5.297   5.785   5.716 -0.8228 -0.3502  0.5195
15130TIP3    H166805   5.269   5.695   5.699 -1.3135 -0.1768  0.3998
15130TIP3    H266806   5.221   5.827   5.754 -0.4685 -0.0873  0.9410
15131TIP3   OH266807   5.064   6.592  16.786  0.8138  0.5204  0.0230
15131TIP3    H166808   4.991   6.580  16.846  1.0482  1.1973  0.4593
15131TIP3    H266809   5.068   6.687  16.772  0.9832  0.3988 -0.7867
15132TIP3   OH266810   3.717   0.221   6.265  0.1619  0.2702  0.5587
15132TIP3    H166811   3.627   0.223   6.296 -0.4369  0.0890 -1.1373
15132TIP3    H266812   3.721   0.288   6.197  0.7613 -1.1519 -0.8167
15133TIP3   OH266813   4.623   3.693   2.542 -0.2795  0.1214 -0.2534
15133TIP3    H166814   4.539   3.706   2.585 -0.5704 -1.1343 -0.4041
15133TIP3    H266815   4.659   3.781   2.532 -2.1188  0.7799 -1.3214
15134TIP3   OH266816   2.417   4.192  15.122  0.4782  0.2145 -0.1088
15134TIP3    H166817   2.400   4.103  15.153 -0.5215  0.8040  1.1062
15134TIP3    H266818   2.497   4.218  15.167  0.0889  0.3661  0.5114
15135TIP3   OH266819   5.659   2.520   2.193  0.0961 -0.1182 -0.0133
15135TIP3    H166820   5.570   2.507   2.161 -0.1141  1.0347  0.0940
15135TIP3    H266821   5.649   2.546   2.285  0.4219  2.0287 -0.5562
15136TIP3   OH266822   5.983   2.165  11.129 -0.1828  0.3223 -0.0482
15136TIP3    H166823   5.901   2.145  11.085 -0.7938 -0.3662  1.3592
15136TIP3    H266824   6.048   2.109  11.087 -0.7215 -0.1813 -0.2145
15137TIP3   OH266825   4.656   1.446  16.583 -0.9163 -0.0557  0.2572
15137TIP3    H166826   4.728   1.422  16.525  0.6669  0.1232  2.1168
15137TIP3    H266827   4.600   1.502  16.529 -0.9391 -2.0875 -1.9268
15138TIP3   OH266828   4.061   4.331   5.294  0.2963  0.1413 -0.4213
15138TIP3    H166829   4.123   4.401   5.277  0.1997  0.8970  2.1249
15138TIP3    H266830   4.106   4.251   5.265 -0.4268  1.4013 -5.3121
15139TIP3   OH266831   0.145   2.799   2.612  0.6675 -0.3841 -0.5221
15139TIP3    H166832   0.136   2.798   2.708  2.6202 -1.0944 -0.3311
15139TIP3    H266833   0.181   2.885   2.592 -2.1431  0.7785 -0.8985
15140TIP3   OH266834   6.257   6.045  17.157 -0.0470  0.7840 -0.2442
15140TIP3    H166835   6.207   5.999  17.090 -2.3909  0.4474  1.6452
15140TIP3    H266836   6.211   6.025  17.239  2.0108  2.1623  1.3007
15141TIP3   OH266837   2.539   1.994   3.049  0.0034  0.4942 -0.2364
15141TIP3    H166838   2.585   1.948   3.120 -1.6151  1.6153  1.6154
15141TIP3    H266839   2.517   1.925   2.986  1.1382 -0.6063  0.5396
15142TIP3   OH266840   5.211   1.859   5.089  0.3076  0.4401 -0.0210
15142TIP3    H166841   5.120   1.889   5.090 -0.4550 -1.6781  3.0586
15142TIP3    H266842   5.227   1.833   4.998 -2.8962 -1.1738 -0.1933
15143TIP3   OH266843   3.569   5.707  11.827  0.2759  0.2249 -0.2470
15143TIP3    H166844   3.595   5.640  11.764 -1.2985 -1.1930  0.5721
15143TIP3    H266845   3.615   5.786  11.798  4.8537 -1.9065  0.6746
15144TIP3   OH266846   4.083   5.460  13.547  0.4509 -0.4891 -0.6401
15144TIP3    H166847   4.123   5.393  13.602  2.8948 -0.9290 -2.8804
15144TIP3    H266848   4.157   5.511  13.513 -1.1213  0.8697 -2.1371
15145TIP3   OH266849   3.811   6.588  11.224  0.5160  0.4609 -0.3025
15145TIP3    H166850   3.775   6.620  11.141 -0.6509 -2.1793 -0.8614
15145TIP3    H266851   3.850   6.504  11.201  0.0850 -0.3419  1.8717
15146TIP3   OH266852   0.086   3.146  12.420  0.3225 -0.0507  0.0497
15146TIP3    H166853   0.073   3.054  12.444 -1.4437 -0.4760 -2.3519
15146TIP3    H266854   0.169   3.170  12.461 -0.1443 -2.1265  2.3320
15147TIP3   OH266855   3.698   2.308  10.951  0.0710  0.2877 -0.0233
15147TIP3    H166856   3.654   2.289  10.868 -2.5555  3.3877  0.5552
15147TIP3    H266857   3.756   2.381  10.931  0.1675  0.3941  0.6336
15148TIP3   OH266858   4.912   0.587  14.365  0.2026 -0.5251  0.3463
15148TIP3    H166859   4.955   0.673  14.361  1.6959 -1.3229 -1.5555
15148TIP3    H266860   4.980   0.527  14.394 -0.2128 -1.4452 -0.5460
15149TIP3   OH266861   3.473   2.995  16.216 -0.4550 -0.5648 -0.7756
15149TIP3    H166862   3.378   2.987  16.207 -0.7896  2.2211 -0.1140
15149TIP3    H266863   3.488   3.010  16.309  0.5427  0.1279 -1.0405
15150TIP3   OH266864   3.197   4.604   5.064  0.3424 -0.7370  0.0303
15150TIP3    H166865   3.188   4.583   4.971 -0.1210 -2.2337  0.4013
15150TIP3    H266866   3.267   4.669   5.067  1.0285 -1.3885 -1.2717
15151TIP3   OH266867   6.335   3.676   4.414 -0.8649  0.2975 -0.8128
15151TIP3    H166868   6.425   3.703   4.399  0.0333 -1.1322  1.6951
15151TIP3    H266869   6.314   3.619   4.339 -0.1766  1.6810 -2.0891
15152TIP3   OH266870   3.885   4.518   1.811 -0.2806 -0.1507  0.4668
15152TIP3    H166871   3.801   4.481   1.783 -0.8338  0.5011  1.2674
15152TIP3    H266872   3.863   4.606   1.841  1.1613  1.2777 -2.4019
15153TIP3   OH266873   5.873   4.541   1.987 -0.2130 -0.1078 -0.6179
15153TIP3    H166874   5.833   4.623   2.017  1.0547 -0.4517  2.1757
15153TIP3    H266875   5.915   4.564   1.904 -0.3123  1.9564 -0.1242
15154TIP3   OH266876   6.700   6.484  12.799  0.4260 -0.1811 -0.2757
15154TIP3    H166877   6.709   6.468  12.893  0.1448  0.6585 -0.1054
15154TIP3    H266878   6.789   6.507  12.771  0.3167  0.5406 -0.0305
15155TIP3   OH266879   5.236   0.943  12.701 -0.2105 -0.5062  0.0884
15155TIP3    H166880   5.179   0.932  12.777  0.3179 -3.8226  0.0549
15155TIP3    H266881   5.225   0.863  12.650  1.9322  0.2493 -1.6441
15156TIP3   OH266882   0.574   5.422  14.372  0.2115 -0.5210  0.5922
15156TIP3    H166883   0.544   5.334  14.349 -3.0558  0.3813  1.1976
15156TIP3    H266884   0.554   5.430  14.465 -0.1936  1.1185  0.3678
15157TIP3   OH266885   1.802   3.135   1.206 -0.2423  0.3703 -0.2334
15157TIP3    H166886   1.741   3.084   1.152  0.5447  0.1368 -0.9045
15157TIP3    H266887   1.834   3.203   1.147 -1.9604  2.2282  0.8960
15158TIP3   OH266888   1.832   1.174   5.907 -0.0844  0.2033  0.3890
15158TIP3    H166889   1.863   1.166   5.997  0.3851  0.4855  0.2578
15158TIP3    H266890   1.892   1.120   5.856 -2.5366 -2.9039  0.7015
15159TIP3   OH266891   2.332   3.619   0.625 -0.7734 -0.1037  0.0262
15159TIP3    H166892   2.394   3.580   0.686  1.5885  2.9835 -0.3117
15159TIP3    H266893   2.254   3.637   0.677 -0.4748 -1.6884  1.0412
15160TIP3   OH266894   3.652   4.539   3.908 -0.9540 -0.2053 -0.5003
15160TIP3    H166895   3.729   4.507   3.955 -0.0148 -0.9483 -2.4652
15160TIP3    H266896   3.610   4.600   3.968  1.1685  0.2009  0.6105
15161TIP3   OH266897   5.911   5.668  11.503 -0.2353  0.2377 -0.3525
15161TIP3    H166898   5.858   5.747  11.488 -0.0105  0.4940  0.2030
15161TIP3    H266899   5.891   5.642  11.593  0.6809  0.4129 -0.0919
15162TIP3   OH266900   2.885   0.617   1.510 -0.3739 -0.2362  0.0561
15162TIP3    H166901   2.794   0.591   1.504 -0.6446  0.6059  0.4057
15162TIP3    H266902   2.884   0.713   1.501  0.5462 -0.2846 -0.7318
15163TIP3   OH266903   0.258   4.091   0.643  0.2700  0.0854  0.1939
15163TIP3    H166904   0.224   4.007   0.612  0.0685  0.2952 -0.1559
15163TIP3    H266905   0.181   4.139   0.672  0.5568 -0.4487  1.8430
15164TIP3   OH266906   1.736   5.921  13.612  0.1472 -0.6862 -0.1139
15164TIP3    H166907   1.800   5.983  13.645 -1.8207  1.0630  0.4968
15164TIP3    H266908   1.771   5.835  13.635  2.3967  0.2210 -0.0688
15165TIP3   OH266909   1.343   2.570  11.976  0.4494 -0.0099 -1.3375
15165TIP3    H166910   1.393   2.651  11.969 -0.0673  0.2274 -2.4218
15165TIP3    H266911   1.371   2.518  11.900  0.2212 -0.5256 -1.0730
15166TIP3   OH266912   3.826   1.614  17.117  0.3689 -0.6532 -0.0412
15166TIP3    H166913   3.905   1.634  17.067 -1.2831  2.2585 -1.6565
15166TIP3    H266914   3.857   1.592  17.204  2.9917 -0.4435 -0.8804
15167TIP3   OH266915   5.430   1.041  12.061  0.3992 -0.4101  0.3922
15167TIP3    H166916   5.443   1.136  12.057  0.0272 -0.3971 -0.9263
15167TIP3    H266917   5.343   1.031  12.101 -1.1694 -0.0383 -2.7553
15168TIP3   OH266918   0.292   4.920  14.002  0.2538 -0.3088  0.0438
15168TIP3    H166919   0.305   5.012  13.979  1.8835 -0.5510 -0.0602
15168TIP3    H266920   0.288   4.919  14.098  0.2517 -0.1394  0.0438
15169TIP3   OH266921   4.788   2.967   5.272  0.2141  0.5036 -0.5023
15169TIP3    H166922   4.723   2.898   5.261  0.6371  0.0721 -0.2816
15169TIP3    H266923   4.737   3.042   5.303 -0.0156 -0.1575  0.7625
15170TIP3   OH266924   3.365   3.792  16.121  0.0177 -0.2265  0.1932
15170TIP3    H166925   3.291   3.741  16.089 -0.4354 -0.2002  1.1818
15170TIP3    H266926   3.435   3.727  16.133 -0.8801 -0.8136  2.4617
15171TIP3   OH266927   5.440   4.086   4.496  0.4012  0.4254 -0.4174
15171TIP3    H166928   5.450   4.092   4.591 -1.6678  1.5879 -0.2486
15171TIP3    H266929   5.395   4.003   4.482  0.1441  0.5510 -0.3345
15172TIP3   OH266930   4.088   3.517   3.055  0.5227 -0.1008 -0.1279
15172TIP3    H166931   4.007   3.534   3.102 -0.6480  1.9886 -2.8453
15172TIP3    H266932   4.157   3.534   3.120 -1.1017  0.7470  1.4040
15173TIP3   OH266933   1.155   0.875   0.807 -0.0574 -0.3825  0.1206
15173TIP3    H166934   1.110   0.913   0.732  1.3666 -1.0270 -1.0804
15173TIP3    H266935   1.241   0.850   0.773  0.7729 -0.2557  2.0740
15174TIP3   OH266936   4.132   1.055   1.295 -0.3960  0.1600 -0.2136
15174TIP3    H166937   4.123   0.960   1.286 -0.7982  0.0713  0.9591
15174TIP3    H266938   4.179   1.083   1.217  1.6122 -1.2992  0.4432
15175TIP3   OH266939   4.339   5.754   1.321  0.4730  0.4784  0.0375
15175TIP3    H166940   4.389   5.790   1.248 -0.5429 -0.8236 -1.3313
15175TIP3    H266941   4.347   5.819   1.391  2.7163  1.0369 -0.7071
15176TIP3   OH266942   4.841   6.110   1.989 -0.2103 -0.3434  0.8619
15176TIP3    H166943   4.885   6.100   2.074  2.4013  1.0801 -0.2712
15176TIP3    H266944   4.780   6.183   2.002  0.5958  0.2536  1.3635
15177TIP3   OH266945   3.896   6.571  13.286 -0.4629 -0.0787 -0.1446
15177TIP3    H166946   3.924   6.557  13.376 -1.0459 -0.7573 -0.0579
15177TIP3    H266947   3.950   6.643  13.254  1.5892 -1.5112 -0.0698
15178TIP3   OH266948   3.095   6.115  12.366  0.0613  0.1419 -0.0755
15178TIP3    H166949   3.033   6.130  12.295  0.2135  0.6763 -0.0961
15178TIP3    H266950   3.076   6.025  12.396 -0.5738  0.2244 -0.2184
15179TIP3   OH266951   2.336   1.486   1.232 -0.4759  0.2166 -0.1254
15179TIP3    H166952   2.295   1.418   1.286  0.4633  1.1815  1.8551
15179TIP3    H266953   2.421   1.449   1.208 -0.5937  0.0769 -0.3257
15180TIP3   OH266954   5.107   6.625   0.287 -0.0718 -0.3192  0.0521
15180TIP3    H166955   5.126   6.715   0.315 -0.4905 -0.2221  0.0360
15180TIP3    H266956   5.014   6.613   0.308  0.1241 -0.9429  0.5636
15181TIP3   OH266957   0.746   0.582  15.428 -0.1389 -0.0205 -0.2251
15181TIP3    H166958   0.735   0.677  15.434 -1.2856 -0.1099 -0.8855
15181TIP3    H266959   0.701   0.548  15.505  0.1907 -0.0357 -0.0388
15182TIP3   OH266960   0.847   5.761  13.239 -0.7384  0.2479  0.0995
15182TIP3    H166961   0.793   5.840  13.228 -1.5193 -0.1567  0.9931
15182TIP3    H266962   0.932   5.794  13.268 -1.7245  0.6406  2.6493
15183TIP3   OH266963   4.508   0.970  15.044  0.1176 -0.7954  0.0426
15183TIP3    H166964   4.440   0.983  15.110  1.5253  0.2403  1.3272
15183TIP3    H266965   4.473   0.902  14.987 -3.0646  1.4332 -0.7970
15184TIP3   OH266966   2.204   0.371   4.333 -0.1840 -0.7926 -0.3403
15184TIP3    H166967   2.128   0.366   4.274  0.9320  0.4262 -1.9365
15184TIP3    H266968   2.276   0.336   4.281  0.2344 -2.5806  1.4023
15185TIP3   OH266969   3.786   4.607   1.403  0.1178 -0.1995  0.0602
15185TIP3    H166970   3.770   4.700   1.417 -0.3550 -0.6683  3.0052
15185TIP3    H266971   3.869   4.589   1.447  1.5563 -0.6969 -2.7336
15186TIP3   OH266972   0.232   3.777  11.920 -0.3384  0.3696 -0.2730
15186TIP3    H166973   0.159   3.715  11.912  1.2090 -1.1989 -3.0119
15186TIP3    H266974   0.305   3.723  11.950  0.5054  1.2986 -0.6604
15187TIP3   OH266975   0.374   3.603  15.857  0.5515  0.1507 -0.4129
15187TIP3    H166976   0.466   3.587  15.836  0.5412 -0.7505  0.2207
15187TIP3    H266977   0.329   3.596  15.772  0.8934 -0.6905 -0.5309
15188TIP3   OH266978   2.512   3.796  11.240  0.6270 -0.6829  0.2818
15188TIP3    H166979   2.583   3.790  11.304 -0.8908  0.0043  2.0579
15188TIP3    H266980   2.465   3.876  11.262 -0.8956 -1.2669 -0.6832
15189TIP3   OH266981   2.854   1.122   5.632  0.2604 -0.3749 -0.6379
15189TIP3    H166982   2.896   1.208   5.637 -0.4196 -0.1648  2.0821
15189TIP3    H266983   2.926   1.060   5.646  0.4517 -0.1687 -0.7089
15190TIP3   OH266984   6.572   1.975  12.048  0.1028 -0.2473  0.5554
15190TIP3    H166985   6.610   2.058  12.018 -0.9568  0.5939  1.5277
15190TIP3    H266986   6.571   1.982  12.143  0.1090 -1.4353  0.6530
15191TIP3   OH266987   2.822   2.454   5.126 -0.0367  0.0604 -0.3595
15191TIP3    H166988   2.732   2.425   5.133  0.1667 -0.7667 -1.0767
15191TIP3    H266989   2.844   2.489   5.212 -0.3522 -1.7120  0.4506
15192TIP3   OH266990   2.248   2.106  14.025  0.5079  0.2311 -0.1166
15192TIP3    H166991   2.268   2.015  14.043 -0.8477  0.0332  0.4390
15192TIP3    H266992   2.256   2.114  13.930 -1.2415 -0.9231 -0.3690
15193TIP3   OH266993   1.390   2.908   3.072 -0.0948  0.0335 -0.4040
15193TIP3    H166994   1.409   2.978   3.010 -0.8242 -1.1207 -1.9789
15193TIP3    H266995   1.444   2.835   3.042  0.0335 -0.3391  0.7159
15194TIP3   OH266996   2.238   6.518  14.697 -0.2865 -0.0907  0.0026
15194TIP3    H166997   2.190   6.547  14.619 -1.8668 -0.4334  0.8127
15194TIP3    H266998   2.259   6.426  14.679  1.8715  0.6223 -1.2047
15195TIP3   OH266999   0.999   0.302   2.724 -0.2166  0.0673  0.0437
15195TIP3    H167000   0.938   0.228   2.716  0.6639 -0.5729 -0.8339
15195TIP3    H267001   0.944   0.380   2.712 -1.0610 -0.4504  0.4522
15196TIP3   OH267002   4.537   2.990  13.179  0.0599 -0.5616  0.0587
15196TIP3    H167003   4.626   3.021  13.195 -0.2427  0.0816  0.5105
15196TIP3    H267004   4.511   2.949  13.262 -0.1440 -0.5461  0.0036
15197TIP3   OH267005   6.288   0.780  11.219  0.2265  0.0119 -0.3284
15197TIP3    H167006   6.286   0.754  11.127 -0.2105  0.1746 -0.3672
15197TIP3    H267007   6.323   0.704  11.265  0.7770  0.0579 -0.6725
15198TIP3   OH267008   5.317   0.638   0.576  0.3013  0.0562  0.0570
15198TIP3    H167009   5.324   0.731   0.595 -0.6243  0.0875  0.2817
15198TIP3    H267010   5.400   0.601   0.606  1.2142  1.0003 -1.2469
15199TIP3   OH267011   4.111   3.204  11.243  0.2268 -0.2667 -0.4070
15199TIP3    H167012   4.120   3.255  11.163 -0.8285  0.9945  0.2471
15199TIP3    H267013   4.101   3.270  11.312 -0.8503 -1.3456  0.4932
15200TIP3   OH267014   2.454   1.364  11.924  0.0311 -0.0033  0.6516
15200TIP3    H167015   2.485   1.451  11.947 -1.7715  0.6255  0.8064
15200TIP3    H267016   2.407   1.376  11.841 -4.0169  0.0378  2.8389
15201TIP3   OH267017   5.732   3.671   4.076 -0.0090  0.5720 -0.4742
15201TIP3    H167018   5.646   3.712   4.071  0.1439  1.4448  3.0503
15201TIP3    H267019   5.715   3.578   4.058 -1.3168  1.0470 -1.8992
15202TIP3   OH267020   6.360   4.070   0.728 -0.3875  0.0346 -0.1090
15202TIP3    H167021   6.343   3.998   0.668  0.7466  1.1008 -1.7527
15202TIP3    H267022   6.351   4.032   0.815  1.4425 -2.3767 -0.9454
15203TIP3   OH267023   6.445   5.832  17.020 -0.2072 -0.3272 -0.3415
15203TIP3    H167024   6.458   5.919  17.058  1.6423 -0.7547  0.0532
15203TIP3    H267025   6.445   5.773  17.095 -0.2345 -0.8035 -0.7147
15204TIP3   OH267026   1.454   6.147  15.380 -0.4170  0.1763  0.4729
15204TIP3    H167027   1.469   6.203  15.304  0.4573 -1.7410 -0.7955
15204TIP3    H267028   1.533   6.158  15.434 -1.2155  1.8513  1.3458
15205TIP3   OH267029   1.946   4.089  15.664  0.3222 -0.3735 -0.1275
15205TIP3    H167030   1.980   4.176  15.642 -2.4062  0.7235 -0.1672
15205TIP3    H267031   2.001   4.029  15.613  3.1633  1.1632  0.9670
15206TIP3   OH267032   3.993   3.980   2.592  0.1816  0.1019  0.3429
15206TIP3    H167033   4.016   4.041   2.663  2.0958 -0.6086  0.3619
15206TIP3    H267034   3.963   4.037   2.521 -1.4373  0.8398  1.5804
15207TIP3   OH267035   6.342   0.168   1.212  0.0013  0.2234  0.3708
15207TIP3    H167036   6.357   0.076   1.230  0.5989 -0.2044 -2.0432
15207TIP3    H267037   6.430   0.208   1.217 -0.0621  0.4007  0.1043
15208TIP3   OH267038   0.594   0.200  15.809 -0.4237  0.2688 -0.2788
15208TIP3    H167039   0.509   0.168  15.840 -0.7869  1.4761 -0.0154
15208TIP3    H267040   0.601   0.289  15.844  1.9465 -0.5987  1.6441
15209TIP3   OH267041   2.659   2.156  14.564 -0.2479 -0.0825 -0.2154
15209TIP3    H167042   2.576   2.193  14.595  0.1015  1.3122 -0.9447
15209TIP3    H267043   2.632   2.086  14.503 -0.9110  2.0057 -2.3904
15210TIP3   OH267044   6.303   2.284  12.651 -0.4822 -0.3080  0.5198
15210TIP3    H167045   6.296   2.323  12.738  0.4160 -1.2097  1.0087
15210TIP3    H267046   6.369   2.337  12.607 -0.1392 -0.5220  0.7700
15211TIP3   OH267047   3.556   0.676  12.438  0.0844  0.0928 -0.0710
15211TIP3    H167048   3.522   0.755  12.396  1.2333  0.2281 -0.7706
15211TIP3    H267049   3.639   0.658  12.393  0.8285 -0.3549  1.4252
15212TIP3   OH267050   1.650   4.686  17.200 -0.0987  0.0923  0.5480
15212TIP3    H167051   1.691   4.762  17.160 -0.8370  1.2189  1.8816
15212TIP3    H267052   1.686   4.611  17.153 -1.4382  1.3712 -2.6366
15213TIP3   OH267053   2.317   3.443  12.738 -0.3967 -0.3345 -0.5789
15213TIP3    H167054   2.385   3.478  12.795 -1.9084  1.3713  0.2023
15213TIP3    H267055   2.318   3.500  12.661  1.2461 -2.2843 -2.0741
15214TIP3   OH267056   1.773   5.934   0.079  0.2206  0.4502  0.0906
15214TIP3    H167057   1.682   5.943   0.052  0.4329 -0.6905 -1.0611
15214TIP3    H267058   1.774   5.963   0.170 -1.6275 -1.2690  0.6837
15215TIP3   OH267059   5.301   5.740   1.591 -0.2819  0.0900  0.0372
15215TIP3    H167060   5.375   5.686   1.620 -1.1241 -1.2930 -0.3507
15215TIP3    H267061   5.270   5.783   1.671 -1.2200 -2.0209  0.8600
15216TIP3   OH267062   5.752   1.414   2.336 -0.2634  0.0606  0.4434
15216TIP3    H167063   5.740   1.508   2.327  0.5163 -0.0856 -2.9561
15216TIP3    H267064   5.821   1.404   2.402  0.7421  1.9565 -0.2836
15217TIP3   OH267065   4.110   4.766   2.068 -0.1483 -0.0156  0.1203
15217TIP3    H167066   4.166   4.840   2.089 -0.9329  0.0245  2.1730
15217TIP3    H267067   4.050   4.799   2.001  1.1363  0.4299 -0.8391
15218TIP3   OH267068   6.587   0.897   3.427 -0.1224 -0.1861  0.2952
15218TIP3    H167069   6.644   0.820   3.427  0.3458  0.1641  0.6901
15218TIP3    H267070   6.636   0.964   3.474 -2.1973 -0.8937  3.5913
15219TIP3   OH267071   1.659   6.047  13.384 -0.3653  0.1837  0.0347
15219TIP3    H167072   1.669   6.006  13.470 -0.5942 -0.8711 -0.4354
15219TIP3    H267073   1.627   5.977  13.328  0.7384  0.6147 -1.1436
15220TIP3   OH267074   6.282   4.571   4.179 -0.0372 -0.4326  0.2958
15220TIP3    H167075   6.272   4.528   4.094  0.8017 -0.8126  0.3772
15220TIP3    H267076   6.302   4.499   4.240  1.8252  0.0886  0.3532
15221TIP3   OH267077   6.048   0.629   3.965  0.2619 -0.4070  0.5148
15221TIP3    H167078   5.972   0.666   3.920 -0.2180 -0.7106  1.0575
15221TIP3    H267079   6.015   0.607   4.052  0.7003 -1.5516  0.4001
15222TIP3   OH267080   5.165   5.125   4.333 -0.2569  0.1833 -0.1657
15222TIP3    H167081   5.259   5.130   4.316 -0.4893  0.7622 -1.3264
15222TIP3    H267082   5.143   5.209   4.374 -0.4214  0.4169 -0.7214
15223TIP3   OH267083   2.862   4.489   4.091  0.0648  0.4382 -0.5662
15223TIP3    H167084   2.931   4.461   4.150 -0.5603 -0.1780 -0.1174
15223TIP3    H267085   2.893   4.465   4.004  0.7773  0.9156 -0.4410
15224TIP3   OH267086   1.528   1.215  13.176 -0.1854  0.6844 -0.5937
15224TIP3    H167087   1.542   1.150  13.107  0.4435 -0.6892  0.8067
15224TIP3    H267088   1.436   1.206  13.200  0.1416 -0.3722  0.2744
15225TIP3   OH267089   0.506   5.641  16.353 -0.3247  0.7957  0.3518
15225TIP3    H167090   0.598   5.614  16.354 -0.0870  1.5936  0.2121
15225TIP3    H267091   0.506   5.725  16.400 -1.0155  0.6857  0.5481
15226TIP3   OH267092   0.439   0.416   0.850  0.1359 -0.2422  0.2438
15226TIP3    H167093   0.464   0.428   0.758  2.6609 -2.2422  0.6106
15226TIP3    H267094   0.377   0.343   0.849  1.4646 -1.3981  0.2623
15227TIP3   OH267095   4.994   2.906   2.483  0.6868 -0.4443  0.2135
15227TIP3    H167096   4.907   2.894   2.446  0.2114  0.2418  1.1234
15227TIP3    H267097   4.989   2.868   2.570  2.1731 -3.2634 -0.8550
15228TIP3   OH267098   3.503   1.989  15.565  0.1235 -0.0072  0.1035
15228TIP3    H167099   3.504   1.900  15.599  1.2976  0.4084  1.1798
15228TIP3    H267100   3.437   2.034  15.616  1.0252  0.2921  1.0189
15229TIP3   OH267101   3.081   0.781  16.326  0.0028 -0.0519 -0.2835
15229TIP3    H167102   3.055   0.871  16.346 -0.6598  0.1413 -1.9695
15229TIP3    H267103   3.101   0.781  16.232 -0.9530 -1.8873 -0.5193
15230TIP3   OH267104   3.472   4.716  15.893  0.1042 -0.1222 -0.1612
15230TIP3    H167105   3.522   4.644  15.931  0.9625  0.2408 -0.5965
15230TIP3    H267106   3.532   4.758  15.831 -1.2930 -0.7900 -2.0441
15231TIP3   OH267107   0.903   1.434   1.763 -0.6131 -0.1311 -0.2373
15231TIP3    H167108   0.945   1.518   1.747  0.2991 -0.5186  0.1088
15231TIP3    H267109   0.948   1.398   1.840 -1.8878 -0.3335  0.4403
15232TIP3   OH267110   2.049   5.747  15.710 -0.1626  0.1169  0.4184
15232TIP3    H167111   2.020   5.818  15.767 -0.7154 -0.2433  0.5946
15232TIP3    H267112   2.112   5.699  15.762  1.0634  1.1345 -0.1056
15233TIP3   OH267113   1.112   2.118  13.751 -0.2075  0.1091  0.8987
15233TIP3    H167114   1.186   2.154  13.701  2.0216 -1.9353  2.5612
15233TIP3    H267115   1.100   2.030  13.715 -0.6731 -0.1964  1.7898
15234TIP3   OH267116   0.007   2.154  16.325 -0.1719 -0.1112  0.3254
15234TIP3    H167117   0.085   2.198  16.358 -0.7054 -1.7439  4.0401
15234TIP3    H267118  -0.064   2.217  16.339  0.2307  0.8944 -1.9157
15235TIP3   OH267119   0.171   5.525   1.619 -0.5019 -0.1852  0.3490
15235TIP3    H167120   0.177   5.573   1.702  1.9153  2.1469 -1.1381
15235TIP3    H267121   0.120   5.582   1.562 -0.7883 -1.0770 -0.3018
15236TIP3   OH267122   0.299   6.195   0.685 -0.2662  0.1055 -0.6811
15236TIP3    H167123   0.351   6.134   0.737 -0.1082  4.2051  4.3771
15236TIP3    H267124   0.353   6.214   0.608  2.1475 -1.7044  0.5156
15237TIP3   OH267125   4.845   1.669  14.674 -0.3202 -0.0259  0.4407
15237TIP3    H167126   4.914   1.728  14.704 -1.4945  0.7406  1.7105
15237TIP3    H267127   4.869   1.647  14.584  1.9945 -0.4347  1.1367
15238TIP3   OH267128   5.885   4.612  14.559 -0.5357 -0.4667 -1.1093
15238TIP3    H167129   5.871   4.629  14.466 -1.5412  1.6763 -0.6034
15238TIP3    H267130   5.818   4.664  14.604  1.1857  0.1263  0.8898
15239TIP3   OH267131   3.618   4.631   4.930  0.1486  0.2494  0.4453
15239TIP3    H167132   3.646   4.694   4.864  0.5456 -0.0136  0.3592
15239TIP3    H267133   3.692   4.626   4.991 -0.3132  0.6704  1.0409
15240TIP3   OH267134   4.093   6.733  14.897 -0.1638  0.8873  0.0902
15240TIP3    H167135   4.188   6.732  14.899 -0.1654 -0.7509 -0.1140
15240TIP3    H267136   4.066   6.745  14.988  0.2293 -1.5524  0.5519
15241TIP3   OH267137   3.248   6.064  15.227 -0.6212 -0.3433  0.1032
15241TIP3    H167138   3.156   6.052  15.253 -0.4976 -0.6910  0.3926
15241TIP3    H267139   3.278   5.976  15.204 -0.2913 -0.2672  0.2431
15242TIP3   OH267140   2.487   2.799   3.875  0.2237  0.0355  0.0875
15242TIP3    H167141   2.400   2.821   3.843 -0.6783 -1.3034  1.5323
15242TIP3    H267142   2.545   2.813   3.801 -1.4020 -0.2174 -1.2487
15243TIP3   OH267143   2.588   0.842  16.620 -0.0796  0.1024  0.3359
15243TIP3    H167144   2.571   0.936  16.608 -0.2558 -0.2703 -2.4937
15243TIP3    H267145   2.560   0.825  16.710 -0.4936  2.6523  0.7454
15244TIP3   OH267146   5.963   2.830   5.248 -0.1062  0.0865  0.7818
15244TIP3    H167147   6.000   2.742   5.239  0.0071  0.1372  0.7562
15244TIP3    H267148   5.993   2.876   5.170 -0.8105 -0.0856  0.4040
15245TIP3   OH267149   0.726   0.854  15.439  0.1934 -0.2005  0.0203
15245TIP3    H167150   0.795   0.876  15.501  1.9776 -0.5149 -1.8007
15245TIP3    H267151   0.728   0.924  15.374 -0.1198 -1.0342 -0.9080
15246TIP3   OH267152   2.789   3.447   0.235 -0.7378  0.3287 -0.0935
15246TIP3    H167153   2.713   3.476   0.285  0.0771  0.5574  1.0294
15246TIP3    H267154   2.797   3.510   0.163 -1.4989  0.4031 -0.1088
15247TIP3   OH267155   2.163   1.863   2.129  0.3855 -0.5117 -0.3215
15247TIP3    H167156   2.224   1.791   2.147  0.8270  0.3201  1.6179
15247TIP3    H267157   2.189   1.895   2.043  1.6463 -1.2113 -0.2138
15248TIP3   OH267158   4.313   6.116  13.889 -0.8062  0.2437 -0.1217
15248TIP3    H167159   4.372   6.147  13.820 -0.1577 -0.8519 -0.0620
15248TIP3    H267160   4.332   6.172  13.964  1.0697 -0.9240  0.2949
15249TIP3   OH267161   4.034   2.860   0.637 -0.4151 -0.2940  0.5166
15249TIP3    H167162   3.947   2.898   0.646 -1.1327 -2.1833  2.0332
15249TIP3    H267163   4.019   2.774   0.598  0.7577 -0.5995  0.7108
15250TIP3   OH267164   4.304   1.883  16.920  0.3980 -0.5767  0.0338
15250TIP3    H167165   4.271   1.830  16.848  1.3490 -1.5755  0.3202
15250TIP3    H267166   4.338   1.962  16.879  0.8434 -1.0996 -0.6085
15251TIP3   OH267167   2.514   1.788   0.863 -0.3735  0.6223 -0.1312
15251TIP3    H167168   2.605   1.813   0.848 -0.2834  0.7318  0.5865
15251TIP3    H267169   2.512   1.758   0.954 -0.7186 -0.9093 -0.6250
15252TIP3   OH267170   5.271   2.225  12.656  0.2754 -0.0489 -0.2635
15252TIP3    H167171   5.178   2.200  12.658 -0.0856  1.0638 -2.0177
15252TIP3    H267172   5.295   2.233  12.748 -1.4282 -0.1777  0.2177
15253TIP3   OH267173   2.200   2.966   0.172  0.4005  0.2966 -0.5996
15253TIP3    H167174   2.200   3.058   0.143  2.2174  0.2365 -0.8228
15253TIP3    H267175   2.142   2.965   0.248  0.7108  1.7113 -0.3318
15254TIP3   OH267176   5.160   1.267  17.011  0.5464 -0.6556  0.3652
15254TIP3    H167177   5.128   1.182  16.980 -1.0120 -0.3277  1.0659
15254TIP3    H267178   5.135   1.329  16.943  1.0251 -0.6231  0.2128
15255TIP3   OH267179   0.526   5.114  13.666 -0.0977 -0.1182  0.1976
15255TIP3    H167180   0.530   5.023  13.636 -0.9672 -0.5666  1.3897
15255TIP3    H267181   0.617   5.145  13.662  0.2450 -1.1247  0.0638
15256TIP3   OH267182   3.660   5.405  10.950 -0.2568 -0.0011  0.1601
15256TIP3    H167183   3.723   5.473  10.973 -0.4772  0.1061  0.4458
15256TIP3    H267184   3.714   5.330  10.926 -0.0173  0.1693  0.1649
15257TIP3   OH267185   3.407   4.907  12.879 -0.2806 -0.0715  0.6942
15257TIP3    H167186   3.342   4.840  12.855 -0.5845  0.4029  0.1736
15257TIP3    H267187   3.395   4.976  12.814  1.3460 -0.3625  0.0712
15258TIP3   OH267188   1.170   6.114   0.423  1.0927 -0.3005 -0.2044
15258TIP3    H167189   1.116   6.157   0.357  2.2279  0.7836 -0.4522
15258TIP3    H267190   1.220   6.185   0.464  0.1777 -0.9194  2.0555
15259TIP3   OH267191   3.348   5.205  11.943 -0.3417  0.8485  0.4558
15259TIP3    H167192   3.310   5.292  11.927 -0.5036  0.6532 -0.2638
15259TIP3    H267193   3.375   5.175  11.856 -0.3026  0.1718  0.6996
15260TIP3   OH267194   5.661   1.825   4.953  0.7750  0.4081  0.5738
15260TIP3    H167195   5.692   1.890   4.890 -1.6382  1.0486 -0.0348
15260TIP3    H267196   5.631   1.875   5.028 -0.0094 -0.0611  0.5882
15261TIP3   OH267197   5.111   3.959  12.321  0.2366 -0.2999 -0.2097
15261TIP3    H167198   5.115   3.959  12.225 -1.5837 -1.9407 -0.3089
15261TIP3    H267199   5.060   4.036  12.343  0.2580 -0.1817 -0.5706
15262TIP3   OH267200   2.891   4.319   5.664 -0.2189  0.2806 -0.0309
15262TIP3    H167201   2.797   4.313   5.646 -0.0030 -0.1047 -1.0513
15262TIP3    H267202   2.918   4.228   5.678 -0.2352  0.5046  1.5205
15263TIP3   OH267203   1.445   6.401   3.877 -0.2978  0.2825 -0.0568
15263TIP3    H167204   1.521   6.378   3.824 -0.0893  1.8229 -0.4547
15263TIP3    H267205   1.377   6.338   3.851  0.4771 -0.3438 -0.5608
15264TIP3   OH267206   6.003   5.597  16.679  0.1692 -0.0699 -0.3080
15264TIP3    H167207   6.079   5.641  16.640  0.2460 -1.3823 -1.6783
15264TIP3    H267208   6.034   5.568  16.765  0.6867  0.8861 -0.1598
15265TIP3   OH267209   3.867   4.041   5.880 -0.7647 -0.2118 -0.2550
15265TIP3    H167210   3.937   3.978   5.863 -0.5092  0.3138 -1.1619
15265TIP3    H267211   3.839   4.022   5.970  0.3209 -0.6354  0.0003
15266TIP3   OH267212   5.097   5.858   0.320 -0.0267 -0.5091  0.4299
15266TIP3    H167213   5.118   5.795   0.389 -0.0007 -0.7863  0.1715
15266TIP3    H267214   5.059   5.805   0.250  1.4927 -0.4737 -0.4490
15267TIP3   OH267215   1.475   4.414   0.139 -0.6168 -0.0476  0.2940
15267TIP3    H167216   1.506   4.499   0.169  0.5583 -1.2007  2.4080
15267TIP3    H267217   1.491   4.355   0.212 -0.8739 -2.2272 -1.3622
15268TIP3   OH267218   1.397   3.771  15.299 -0.2186  0.8240  0.4019
15268TIP3    H167219   1.362   3.796  15.214 -0.9173  2.2106  1.0784
15268TIP3    H267220   1.326   3.723  15.342  1.2157 -2.7548 -1.0073
15269TIP3   OH267221   3.734   3.158   3.741  0.0578 -0.9218  0.0108
15269TIP3    H167222   3.718   3.140   3.834 -0.6988 -0.5086 -0.0340
15269TIP3    H267223   3.711   3.077   3.697  0.8269 -1.2583  0.2235
15270TIP3   OH267224   2.114   0.628   4.111 -0.0478 -0.4152 -0.0706
15270TIP3    H167225   2.096   0.535   4.096  1.5732 -0.6041 -1.0244
15270TIP3    H267226   2.157   0.630   4.197  0.6456 -0.6520 -0.4083
15271TIP3   OH267227   1.831   3.900  13.672  0.1487 -0.3812  0.1055
15271TIP3    H167228   1.824   3.946  13.588 -2.0636 -0.4154  0.2279
15271TIP3    H267229   1.915   3.855  13.668  0.2365 -0.1025 -1.9635
15272TIP3   OH267230   5.516   2.081   5.856 -0.5449  0.3911 -0.3765
15272TIP3    H167231   5.564   2.145   5.908 -0.6878  1.1331 -1.1400
15272TIP3    H267232   5.580   2.013   5.835 -0.7109 -0.3636  1.5101
15273TIP3   OH267233   5.179   2.604   5.595 -0.6916 -0.2958 -0.0395
15273TIP3    H167234   5.165   2.526   5.541 -1.3444 -0.5609  0.5020
15273TIP3    H267235   5.149   2.677   5.541 -1.5800 -0.5836  0.0613
15274TIP3   OH267236   1.314   1.173   0.603  0.1678 -0.9716  0.2844
15274TIP3    H167237   1.297   1.085   0.568  0.5716 -0.8858 -0.1382
15274TIP3    H267238   1.324   1.228   0.525  0.1115 -0.5874  0.5468
15275TIP3   OH267239   0.132   0.576  12.328  0.3700 -0.0734 -0.4633
15275TIP3    H167240   0.217   0.533  12.324  0.7422  0.6149  0.1895
15275TIP3    H267241   0.075   0.512  12.372  0.9699  0.1708  0.6805
15276TIP3   OH267242   5.104   1.582   2.280 -0.3129 -0.2987 -0.3572
15276TIP3    H167243   5.058   1.525   2.219  2.1549 -2.2501 -0.4709
15276TIP3    H267244   5.111   1.666   2.234 -1.9001 -0.5907 -1.1478
15277TIP3   OH267245   5.126   4.592  16.006 -0.3534 -0.6104 -0.1938
15277TIP3    H167246   5.170   4.509  15.986 -0.4399 -0.4983 -0.8742
15277TIP3    H267247   5.196   4.649  16.037  0.1583 -0.1707 -2.0610
15278TIP3   OH267248   5.960   5.514   3.200 -0.3765 -0.7121  0.0217
15278TIP3    H167249   5.982   5.525   3.293  0.4014  1.5489 -0.3859
15278TIP3    H267250   5.870   5.544   3.193 -0.3906 -0.7546  0.0164
15279TIP3   OH267251   4.155   4.849  12.489 -0.1321 -0.4171 -0.1487
15279TIP3    H167252   4.210   4.815  12.560 -0.8403 -0.0104  0.5971
15279TIP3    H267253   4.149   4.943  12.505 -0.3951 -0.3395 -0.6790
15280TIP3   OH267254   2.444   3.031  16.391  0.3172 -0.4941  0.1663
15280TIP3    H167255   2.450   3.096  16.461 -1.0102 -0.4388  0.2405
15280TIP3    H267256   2.386   3.071  16.325 -1.0499 -1.8303  0.5055
15281TIP3   OH267257   4.870   0.168  11.596 -0.2820  0.4121 -0.3887
15281TIP3    H167258   4.889   0.076  11.576  0.2218  0.1338  1.3391
15281TIP3    H267259   4.849   0.207  11.511  1.3576 -0.8584 -1.3976
15282TIP3   OH267260   5.742   3.861  12.982  0.3199 -0.0565  0.1840
15282TIP3    H167261   5.807   3.895  12.922 -0.1413  0.1681 -0.1918
15282TIP3    H267262   5.699   3.790  12.934 -0.4216  0.4845  0.0503
15283TIP3   OH267263   4.687   6.684  11.800 -0.2681  0.6101  0.5711
15283TIP3    H167264   4.742   6.716  11.871  1.2227 -0.5269 -0.0497
15283TIP3    H267265   4.695   6.589  11.803  0.2518  0.5673 -1.4565
15284TIP3   OH267266   2.490   4.476  13.712  0.4134  0.3619  0.4745
15284TIP3    H167267   2.532   4.546  13.761  0.5156  0.9637 -0.4523
15284TIP3    H267268   2.436   4.521  13.647  0.8523 -0.4132 -0.4437
15285TIP3   OH267269   5.746   6.059  17.005 -1.0102 -0.3319  0.4384
15285TIP3    H167270   5.801   6.101  17.071 -0.8515 -0.3262  0.3018
15285TIP3    H267271   5.736   5.969  17.035  1.0522 -0.9847 -0.7505
15286TIP3   OH267272   0.251   5.260   1.198  0.5713 -0.0256  0.3044
15286TIP3    H167273   0.283   5.214   1.121 -0.5430  1.9496 -1.3989
15286TIP3    H267274   0.314   5.331   1.211  1.5006 -1.1396  2.0528
15287TIP3   OH267275   4.361   5.557  14.966 -0.0995  0.0359  0.3552
15287TIP3    H167276   4.348   5.652  14.965  0.1285  0.0694 -0.3901
15287TIP3    H267277   4.334   5.529  15.053 -2.7651  0.4305 -0.2959
15288TIP3   OH267278   0.748   3.635  11.207  0.3833 -0.1042 -0.0635
15288TIP3    H167279   0.717   3.636  11.117 -2.3427  0.6165  0.8436
15288TIP3    H267280   0.674   3.605  11.258  2.3129 -1.8145  1.8345
15289TIP3   OH267281   3.685   6.636   4.816 -0.7299  0.2012  0.0448
15289TIP3    H167282   3.620   6.587   4.764 -2.0016  1.3411  0.5460
15289TIP3    H267283   3.717   6.703   4.756 -0.5983  0.1394  0.0469
15290TIP3   OH267284   4.736   6.010  13.581  0.1465 -0.1609  0.2149
15290TIP3    H167285   4.791   6.088  13.568  0.0743 -0.0329  0.6412
15290TIP3    H267286   4.783   5.959  13.647  0.6128 -0.8870 -0.6700
15291TIP3   OH267287   1.128   5.965   5.127 -0.0371 -0.3009  0.0290
15291TIP3    H167288   1.122   6.025   5.201 -1.8129 -1.7289  1.0695
15291TIP3    H267289   1.050   5.984   5.075  0.8944  0.2794 -1.2049
15292TIP3   OH267290   5.998   3.575  11.003  0.3757  0.0343 -0.1123
15292TIP3    H167291   6.029   3.489  10.973  2.9664  0.2425  1.7884
15292TIP3    H267292   6.065   3.636  10.972 -0.7344  1.1966 -0.2587
15293TIP3   OH267293   6.758   6.724   0.044  0.0584  0.1416  0.3909
15293TIP3    H167294   6.682   6.775   0.016 -0.3405 -0.7015 -0.0621
15293TIP3    H267295   6.832   6.767   0.001 -0.4346 -0.5106 -1.1258
15294TIP3   OH267296   0.314   5.781  12.757  0.1000 -0.1280  0.1733
15294TIP3    H167297   0.302   5.830  12.839  1.8400 -1.2735  1.1479
15294TIP3    H267298   0.402   5.805  12.728 -0.3619 -0.0365 -1.1607
15295TIP3   OH267299   1.498   1.506  13.212 -0.5094 -0.3580 -0.1040
15295TIP3    H167300   1.532   1.418  13.200 -0.2159 -0.2885  0.2104
15295TIP3    H267301   1.552   1.561  13.155 -0.5832 -0.3595 -0.1752
15296TIP3   OH267302   1.224   1.159  11.115  0.3503  0.2469 -0.5028
15296TIP3    H167303   1.193   1.187  11.029 -1.0518 -0.5118 -0.2629
15296TIP3    H267304   1.270   1.077  11.098 -1.2133 -0.6824 -0.3559
15297TIP3   OH267305   1.430   5.171   3.928  0.2516  0.1472 -0.3633
15297TIP3    H167306   1.366   5.158   3.858 -0.2535  1.2578 -0.1262
15297TIP3    H267307   1.397   5.247   3.976  0.1745 -1.0944  1.5651
15298TIP3   OH267308   6.717   3.591   2.870  0.2991  0.2825 -0.1646
15298TIP3    H167309   6.741   3.570   2.780  0.0636 -0.5966 -0.0304
15298TIP3    H267310   6.657   3.665   2.862  0.1231  0.0819 -0.7489
15299TIP3   OH267311   6.547   4.053  15.735  0.0057 -0.1179 -0.1838
15299TIP3    H167312   6.459   4.088  15.724  0.4450  1.3269  0.7030
15299TIP3    H267313   6.553   3.981  15.672 -2.1053 -0.8287  0.3846
15300TIP3   OH267314   6.267   6.348  12.200  0.4966 -0.3095 -0.8201
15300TIP3    H167315   6.288   6.377  12.112 -0.5916  0.5739 -0.8029
15300TIP3    H267316   6.186   6.394  12.222  0.8315 -0.4024  0.6903
15301TIP3   OH267317   5.435   3.602   3.430  0.2819 -0.3599  0.9054
15301TIP3    H167318   5.352   3.582   3.472 -1.0103 -1.2185 -1.9055
15301TIP3    H267319   5.486   3.521   3.437 -0.7863 -1.2409 -1.0194
15302TIP3   OH267320   0.130   1.584  11.477 -0.1273  0.1124  0.1151
15302TIP3    H167321   0.171   1.608  11.560  0.0553 -0.0620  0.0766
15302TIP3    H267322   0.202   1.588  11.413 -0.5183  1.3998 -0.2474
15303TIP3   OH267323   0.076   6.206  17.238  0.3657  0.4864 -0.4390
15303TIP3    H167324   0.031   6.284  17.205  2.6743  1.7745 -0.5982
15303TIP3    H267325   0.075   6.217  17.333 -2.8640 -1.3322 -0.1722
15304TIP3   OH267326   4.058   2.128  12.652 -0.6232 -0.0729  0.1438
15304TIP3    H167327   4.057   2.190  12.580 -2.7310  0.8586  0.9225
15304TIP3    H267328   3.982   2.072  12.637 -0.0138 -1.0561  0.6463
15305TIP3   OH267329   0.242   2.416   3.024 -0.2171 -0.4011 -0.1750
15305TIP3    H167330   0.174   2.360   3.062 -0.6213 -0.3034 -0.7476
15305TIP3    H267331   0.228   2.410   2.930  0.3287 -0.0690 -0.2802
15306TIP3   OH267332   3.910   5.696  13.568  0.0732  0.2633 -0.1868
15306TIP3    H167333   3.954   5.753  13.505 -0.9534  1.2852  0.0162
15306TIP3    H267334   3.967   5.619  13.574  2.2002  1.8464  0.5752
15307TIP3   OH267335   2.392   1.870   0.103  0.4212 -0.4080  0.0506
15307TIP3    H167336   2.333   1.924   0.155  0.4792 -2.0829  1.9064
15307TIP3    H267337   2.340   1.793   0.081  1.5201 -1.3318  0.6577
15308TIP3   OH267338   5.930   2.862   2.725  0.1259  0.5773 -0.3425
15308TIP3    H167339   5.967   2.854   2.637 -1.1953 -0.5913 -0.8136
15308TIP3    H267340   5.835   2.861   2.711 -0.0979  0.3081  1.1089
15309TIP3   OH267341   0.192   5.167   2.975 -0.0352  0.6949 -0.0972
15309TIP3    H167342   0.098   5.184   2.972  0.1618  1.6324 -1.8454
15309TIP3    H267343   0.233   5.251   2.954  1.1601  0.0162 -0.5757
15310TIP3   OH267344   6.046   0.046  12.472  0.1777  0.2268  0.3894
15310TIP3    H167345   6.140   0.062  12.467 -0.0821  1.3607 -1.2443
15310TIP3    H267346   6.007   0.133  12.470 -0.9971 -0.3168 -1.4174
15311TIP3   OH267347   4.518   5.355   3.823  0.2815  0.6360 -0.4641
15311TIP3    H167348   4.539   5.387   3.735 -1.2072  2.4136 -0.1935
15311TIP3    H267349   4.446   5.411   3.853  1.2075  0.5052  2.1467
15312TIP3   OH267350   3.347   6.239   2.226  0.5740 -0.7684 -0.6100
15312TIP3    H167351   3.321   6.322   2.267 -0.1305 -0.0629 -2.4373
15312TIP3    H267352   3.292   6.173   2.268 -0.2031 -0.0433 -0.4833
15313TIP3   OH267353   1.489   3.955   2.946  0.2013 -0.2889 -0.2553
15313TIP3    H167354   1.449   3.874   2.914 -1.1111 -0.2020  1.1160
15313TIP3    H267355   1.527   3.931   3.031  1.9803 -0.0545 -0.9637
15314TIP3   OH267356   2.238   3.529   0.369 -0.0909 -0.2297  0.0517
15314TIP3    H167357   2.243   3.575   0.453 -1.4570 -0.1333  0.0900
15314TIP3    H267358   2.167   3.465   0.381  1.0432 -1.5882 -0.3652
15315TIP3   OH267359   5.499   3.961  16.291 -0.0553 -0.0948 -0.0095
15315TIP3    H167360   5.413   3.997  16.310  0.1549 -0.0252  0.8356
15315TIP3    H267361   5.484   3.901  16.218 -0.8462 -0.2000  0.2332
15316TIP3   OH267362   3.200   5.149   1.749 -0.1248 -0.5161 -0.2100
15316TIP3    H167363   3.124   5.092   1.743 -0.6741  0.0126  1.4773
15316TIP3    H267364   3.272   5.091   1.774 -0.8591 -0.4013  2.3805
15317TIP3   OH267365   2.494   5.362   5.789  0.1224 -0.2641  0.4897
15317TIP3    H167366   2.427   5.390   5.853  1.2155 -0.5655  1.7893
15317TIP3    H267367   2.567   5.333   5.843  1.2254 -0.1514 -0.9306
15318TIP3   OH267368   4.694   3.601   5.041  0.2494 -0.0711 -0.3997
15318TIP3    H167369   4.624   3.566   5.095 -0.3988  1.2532 -0.3529
15318TIP3    H267370   4.771   3.549   5.064  0.1633  0.9013  2.3086
15319TIP3   OH267371   3.539   4.502  15.675 -0.2661 -0.5231 -0.0455
15319TIP3    H167372   3.474   4.437  15.649 -0.7721  0.0792 -0.3077
15319TIP3    H267373   3.614   4.451  15.705 -0.3919 -1.2165 -0.9205
15320TIP3   OH267374   0.617   0.854  11.147 -0.0324 -0.2020 -0.1925
15320TIP3    H167375   0.603   0.851  11.053  1.8620  0.0830 -0.5123
15320TIP3    H267376   0.640   0.764  11.170 -0.4541 -0.2627 -0.0054
15321TIP3   OH267377   0.456   2.946   5.324  0.6837  0.2938 -0.5982
15321TIP3    H167378   0.549   2.962   5.333  0.8247  0.3326 -1.9647
15321TIP3    H267379   0.424   2.937   5.413  1.8499  1.0755 -0.0937
15322TIP3   OH267380   5.939   6.449   2.114  0.3526 -0.0595 -1.2515
15322TIP3    H167381   5.910   6.360   2.132 -0.4953  0.6285  0.9421
15322TIP3    H267382   5.870   6.486   2.059 -1.7742  0.7436  1.8292
15323TIP3   OH267383   3.016   4.014  16.047 -0.2458  0.2775 -0.0740
15323TIP3    H167384   2.936   4.047  16.089  1.2943  1.8336  1.7145
15323TIP3    H267385   3.059   3.962  16.115  1.1708  1.0084 -0.3846
15324TIP3   OH267386   1.593   5.333   6.499  1.1457  0.0010 -0.0642
15324TIP3    H167387   1.649   5.258   6.482  0.3894 -0.2669 -1.4932
15324TIP3    H267388   1.653   5.407   6.510  1.8712 -0.7651  1.1022
15325TIP3   OH267389   5.689   4.491  16.162  0.5509 -1.0516 -0.2084
15325TIP3    H167390   5.710   4.581  16.184  1.2600 -1.4081  0.5986
15325TIP3    H267391   5.753   4.468  16.094 -0.0783 -0.7308 -0.9162
15326TIP3   OH267392   6.524   4.864  16.497  0.4205  0.3132  0.3438
15326TIP3    H167393   6.617   4.886  16.501  0.2616  0.7969  2.3092
15326TIP3    H267394   6.485   4.932  16.443  1.2670 -0.1169 -0.8106
15327TIP3   OH267395   2.112   0.687   0.003 -0.2149 -0.2303  0.4037
15327TIP3    H167396   2.066   0.603   0.001  0.1741 -0.5666  3.0711
15327TIP3    H267397   2.197   0.667   0.042  1.0253  0.9291 -1.6272
15328TIP3   OH267398   4.770   1.124   4.802  0.0272 -0.1554 -0.1699
15328TIP3    H167399   4.793   1.076   4.882 -3.8990 -0.3327  0.9371
15328TIP3    H267400   4.737   1.056   4.742 -2.5133  0.6731  0.2365
15329TIP3   OH267401   1.614   3.239  10.523  0.6854  0.1061  0.1980
15329TIP3    H167402   1.602   3.145  10.507 -0.3127  0.3657 -0.6066
15329TIP3    H267403   1.582   3.281  10.444  0.0003  1.1827  1.0324
15330TIP3   OH267404   1.394   6.663   1.661  0.6236  0.0294 -0.5323
15330TIP3    H167405   1.337   6.589   1.642  0.8096  0.0463 -1.1472
15330TIP3    H267406   1.466   6.625   1.713  0.6554 -0.1945 -0.7411
15331TIP3   OH267407   2.971   2.802  12.073 -0.2366  0.0399 -0.1715
15331TIP3    H167408   2.998   2.765  11.990  0.0404 -1.3891  0.5322
15331TIP3    H267409   2.937   2.728  12.123  0.6317  0.6644  1.4081
15332TIP3   OH267410   5.556   6.238  16.049  0.4103  0.3251 -1.0342
15332TIP3    H167411   5.511   6.293  16.112  1.0540 -0.7646  0.4101
15332TIP3    H267412   5.490   6.218  15.983 -1.0296 -0.6278  0.6500
15333TIP3   OH267413   4.889   6.522  12.667  0.9523 -0.6366 -0.1560
15333TIP3    H167414   4.933   6.480  12.741  1.6344 -2.8981 -1.7809
15333TIP3    H267415   4.947   6.593  12.641  0.9681 -0.1754  1.1293
15334TIP3   OH267416   5.528   3.285   1.238 -0.0564  0.0470 -0.0447
15334TIP3    H167417   5.618   3.292   1.269 -0.6173  1.1072  1.4030
15334TIP3    H267418   5.526   3.203   1.190  1.7295  0.1028 -0.2620
15335TIP3   OH267419   5.568   0.288  14.445  0.5076  0.1434  0.8032
15335TIP3    H167420   5.541   0.378  14.459  1.8051  0.6036  0.4198
15335TIP3    H267421   5.660   0.286  14.469  0.4862 -1.0905  0.8410
15336TIP3   OH267422   2.203   4.347  14.665 -0.4029  0.6594 -0.0459
15336TIP3    H167423   2.175   4.261  14.635 -0.8179  0.8390 -0.1808
15336TIP3    H267424   2.157   4.408  14.608  0.5762  0.9508 -0.5187
15337TIP3   OH267425   2.214   3.812   5.911  0.3232  0.0624 -0.3529
15337TIP3    H167426   2.145   3.763   5.866  0.7412 -1.7008  0.8451
15337TIP3    H267427   2.227   3.764   5.993  4.5587 -0.9929 -1.5373
15338TIP3   OH267428   1.806   5.295  16.008  0.3156 -0.0047 -0.4688
15338TIP3    H167429   1.768   5.273  16.093 -0.0368  2.2964  0.0171
15338TIP3    H267430   1.894   5.327  16.029  1.6506 -2.9200 -1.3570
15339TIP3   OH267431   3.919   3.306  12.648  0.4770 -0.2060  0.3322
15339TIP3    H167432   3.862   3.237  12.615  0.4331 -0.8845  1.7980
15339TIP3    H267433   3.900   3.311  12.741  0.2877  1.9861  0.1955
15340TIP3   OH267434   4.300   3.624   2.266  0.5912  0.8052 -0.3347
15340TIP3    H167435   4.282   3.697   2.326  1.4061  1.0818 -0.4101
15340TIP3    H267436   4.265   3.653   2.182 -1.3991  0.0219  0.2021
15341TIP3   OH267437   0.854   4.656  13.026  0.2209  0.0676  0.1720
15341TIP3    H167438   0.760   4.639  13.019  0.4539 -1.4964  0.6251
15341TIP3    H267439   0.883   4.667  12.935  0.1554 -2.7167 -0.2406
15342TIP3   OH267440   5.231   3.698   3.649  0.2413  0.1866 -0.2000
15342TIP3    H167441   5.253   3.782   3.608  0.6200 -0.2787 -0.9469
15342TIP3    H267442   5.164   3.720   3.713  2.4365  1.5686  1.7263
15343TIP3   OH267443   3.356   1.683   4.211 -0.0607 -0.7344 -0.0089
15343TIP3    H167444   3.308   1.609   4.174 -0.4800 -1.1693  1.3708
15343TIP3    H267445   3.437   1.687   4.159 -2.2459  1.0697 -3.4622
15344TIP3   OH267446   1.623   4.433  14.941 -0.5858 -0.2920  0.9243
15344TIP3    H167447   1.576   4.351  14.930 -0.8345 -0.0857  0.4492
15344TIP3    H267448   1.578   4.495  14.884  0.6752 -0.2572 -0.0776
15345TIP3   OH267449   6.453   6.782   3.594  0.1759  0.3083 -0.0701
15345TIP3    H167450   6.494   6.698   3.574  2.8490  1.0007  2.1905
15345TIP3    H267451   6.523   6.846   3.585 -0.9940  1.8697  1.5236
15346TIP3   OH267452   2.764   4.306   3.506 -0.1315  0.0236 -0.3662
15346TIP3    H167453   2.675   4.271   3.517 -0.6054  0.6438 -2.1799
15346TIP3    H267454   2.757   4.397   3.534  0.6033 -0.6701  2.2139
15347TIP3   OH267455   2.371   0.512   5.403  0.8453 -0.5527 -0.0703
15347TIP3    H167456   2.288   0.557   5.419  1.2806  0.3180 -0.1744
15347TIP3    H267457   2.352   0.419   5.414 -0.6095 -0.5264 -2.0127
15348TIP3   OH267458   4.460   6.738   1.244 -0.2182 -0.0063 -0.1713
15348TIP3    H167459   4.503   6.762   1.162 -1.1620  0.2256 -0.6061
15348TIP3    H267460   4.453   6.820   1.293 -0.6364  0.0568 -0.3307
15349TIP3   OH267461   3.215   4.711  12.831 -0.6298  0.4040  0.0901
15349TIP3    H167462   3.250   4.652  12.764  1.2638  1.3308  0.2059
15349TIP3    H267463   3.203   4.655  12.908 -0.1538 -0.1148 -0.2043
15350TIP3   OH267464   3.915   0.933   5.233 -0.7433 -0.1506  0.1245
15350TIP3    H167465   3.998   0.978   5.215 -1.7439  1.6839  0.0025
15350TIP3    H267466   3.912   0.926   5.329 -0.6865  0.2195  0.1523
15351TIP3   OH267467   1.876   3.560  12.287 -0.4614  0.0865  0.9085
15351TIP3    H167468   1.969   3.566  12.264 -0.1332 -0.3870  2.0832
15351TIP3    H267469   1.838   3.506  12.218  0.0282  0.6885  0.1486
15352TIP3   OH267470   2.910   1.720   5.932 -0.0889 -0.1581 -0.7426
15352TIP3    H167471   2.873   1.691   6.016 -0.4092  0.2110 -0.7521
15352TIP3    H267472   2.834   1.729   5.875 -0.0097  0.7949 -0.7080
15353TIP3   OH267473   5.566   1.341   4.411  0.1238  0.0966  0.3729
15353TIP3    H167474   5.485   1.350   4.460 -0.5766  0.0881 -0.7736
15353TIP3    H267475   5.570   1.419   4.355  0.0003 -0.7483 -0.8529
15354TIP3   OH267476   5.608   0.026   6.135 -0.0098 -0.1929 -0.4420
15354TIP3    H167477   5.672   0.095   6.155  0.6654 -1.3385  1.5629
15354TIP3    H267478   5.525   0.072   6.126  0.4442  0.9120  0.8497
15355TIP3   OH267479   3.164   2.338  13.721 -0.0740 -0.1900 -0.0401
15355TIP3    H167480   3.197   2.415  13.675 -2.6033  0.7695 -0.3512
15355TIP3    H267481   3.239   2.304  13.770  1.5184  1.4081 -1.3283
15356TIP3   OH267482   4.295   0.341  16.278  0.1810  0.6325 -0.0690
15356TIP3    H167483   4.369   0.287  16.252 -0.5765 -1.1474  1.3873
15356TIP3    H267484   4.224   0.315  16.220 -0.4097 -0.5310  1.1609
15357TIP3   OH267485   6.042   3.715   5.140  0.2640 -0.6193  0.5125
15357TIP3    H167486   5.955   3.752   5.154 -0.1363 -1.3825  0.0808
15357TIP3    H267487   6.043   3.689   5.048  0.6011 -1.5107  0.7602
15358TIP3   OH267488   4.118   1.247   0.785  0.3024  0.2502 -0.1390
15358TIP3    H167489   4.113   1.341   0.804  0.4884  0.4235 -0.9496
15358TIP3    H267490   4.026   1.219   0.785  0.1622  0.6852 -1.1553
15359TIP3   OH267491   2.884   1.804  13.065 -0.3393 -0.1354 -0.1288
15359TIP3    H167492   2.795   1.779  13.039  0.0673 -1.6926 -0.0369
15359TIP3    H267493   2.870   1.865  13.138 -1.3219 -1.3476  0.7263
15360TIP3   OH267494   1.152   3.926   1.513  0.5189 -0.2979  0.2823
15360TIP3    H167495   1.079   3.866   1.501  1.2510 -0.8758 -1.2857
15360TIP3    H267496   1.149   3.984   1.437  2.0273 -0.6809 -0.0849
15361TIP3   OH267497   6.687   1.182   2.470  0.6642 -0.4003 -0.4279
15361TIP3    H167498   6.729   1.220   2.546 -1.6511  4.2237 -1.2950
15361TIP3    H267499   6.599   1.160   2.499  0.3714 -0.3857 -1.2663
15362TIP3   OH267500   2.468   4.334   0.549  0.2149  0.5095  0.4765
15362TIP3    H167501   2.494   4.268   0.484  2.3791  1.7586  0.0089
15362TIP3    H267502   2.551   4.362   0.589 -0.9757  0.6480  2.9243
15363TIP3   OH267503   3.594   4.006  17.004  0.2653  0.0572 -0.8764
15363TIP3    H167504   3.543   4.065  16.948  1.1329 -0.4967 -2.2797
15363TIP3    H267505   3.615   3.932  16.947 -0.0283 -1.1866  0.5997
15364TIP3   OH267506   6.687   0.045   0.523 -0.8279  0.4727 -0.4223
15364TIP3    H167507   6.621   0.045   0.453 -1.0693 -1.8754 -0.2198
15364TIP3    H267508   6.654  -0.018   0.587  1.8532 -1.1045 -0.5554
15365TIP3   OH267509   4.725   6.566   1.145 -0.2876 -0.3861 -0.0321
15365TIP3    H167510   4.662   6.615   1.197 -0.7740 -0.5246 -0.4848
15365TIP3    H267511   4.808   6.576   1.192 -0.3190  1.0952 -0.2689
15366TIP3   OH267512   0.748   6.545   2.504  0.1286  0.5214 -0.1094
15366TIP3    H167513   0.738   6.633   2.538 -1.1179  0.8904 -1.3804
15366TIP3    H267514   0.697   6.544   2.423 -0.0742 -1.4206  0.0017
15367TIP3   OH267515   6.521   5.021   2.946  0.6169 -0.0847  0.6031
15367TIP3    H167516   6.584   5.073   2.896  0.4384 -1.0310 -0.6280
15367TIP3    H267517   6.540   5.042   3.038  1.8783  0.6004  0.1947
15368TIP3   OH267518   2.114   5.334  15.744  0.1783  0.2042  0.0924
15368TIP3    H167519   2.145   5.363  15.658  2.1793 -2.1403 -0.0335
15368TIP3    H267520   2.029   5.294  15.725  0.8240 -0.7406 -0.9116
15369TIP3   OH267521   2.962   4.157  12.886 -0.4123 -0.7539  0.1675
15369TIP3    H167522   2.908   4.100  12.830  1.6102 -1.3277 -1.2706
15369TIP3    H267523   3.012   4.096  12.940 -1.0864 -0.2237  1.4169
15370TIP3   OH267524   5.681   1.315  12.256  0.1490  0.0207 -0.0643
15370TIP3    H167525   5.624   1.265  12.315 -1.2098 -0.5872 -1.8550
15370TIP3    H267526   5.764   1.268  12.258 -0.5312 -1.2217 -0.2340
15371TIP3   OH267527   1.803   3.706   4.193  0.4343  0.1006 -0.0879
15371TIP3    H167528   1.898   3.703   4.199  0.4279  2.0018  1.3175
15371TIP3    H267529   1.773   3.683   4.281 -0.3051  2.4084  0.2972
15372TIP3   OH267530   4.414   5.144  11.638 -0.4946  0.7770  0.4515
15372TIP3    H167531   4.355   5.165  11.565 -3.2721  0.8605  2.6468
15372TIP3    H267532   4.409   5.220  11.696 -1.3434 -0.8899  2.6119
15373TIP3   OH267533   0.948   0.750   1.256  0.6283 -0.1418 -0.2903
15373TIP3    H167534   0.883   0.691   1.216 -1.0493  1.1651  0.4314
15373TIP3    H267535   0.955   0.823   1.195  1.9626 -0.6112 -0.7036
15374TIP3   OH267536   4.054   2.517   0.002 -0.0177 -0.3807  0.0936
15374TIP3    H167537   3.992   2.526  -0.071 -0.3077 -0.8471  0.2798
15374TIP3    H267538   4.004   2.471   0.070  0.3371 -0.1949  0.4802
15375TIP3   OH267539   2.077   2.532   1.273  0.6050 -0.0409 -0.2494
15375TIP3    H167540   2.112   2.472   1.206 -0.7270  0.4963 -1.4568
15375TIP3    H267541   2.147   2.540   1.337  1.0793 -2.3505 -0.4245
15376TIP3   OH267542   3.425   3.540   5.017 -0.4639 -0.2485  0.0659
15376TIP3    H167543   3.393   3.451   5.036 -0.2914 -0.1297  0.9271
15376TIP3    H267544   3.353   3.580   4.968 -1.6162 -0.0380  1.8509
15377TIP3   OH267545   0.482   1.321   2.888 -0.2474 -0.1794  0.2927
15377TIP3    H167546   0.390   1.322   2.917 -0.4885 -0.0556 -0.4705
15377TIP3    H267547   0.507   1.413   2.888 -0.5803 -0.0799 -0.9259
15378TIP3   OH267548   3.854   2.955   5.774 -0.0190 -0.6212 -0.2101
15378TIP3    H167549   3.862   3.000   5.690  0.1956 -1.1828 -0.4900
15378TIP3    H267550   3.810   3.019   5.831  1.3800  0.4059 -0.2401
15379TIP3   OH267551   1.298   4.335  14.071  0.0710 -0.2335  0.3881
15379TIP3    H167552   1.288   4.423  14.108  0.1338  0.2622 -0.7794
15379TIP3    H267553   1.383   4.336  14.028 -0.0788 -0.7643  0.0718
15380TIP3   OH267554   4.257   3.643  12.945  0.5173  0.2928  0.2924
15380TIP3    H167555   4.251   3.700  12.868  0.7507  0.9781  0.7707
15380TIP3    H267556   4.179   3.588  12.940  2.2753 -2.1273 -2.3400
15381TIP3   OH267557   4.682   6.563   4.032 -0.3162  0.4454 -0.1474
15381TIP3    H167558   4.623   6.499   4.071  0.0457 -0.1150 -0.5078
15381TIP3    H267559   4.640   6.586   3.949 -0.1679  0.2592 -0.2735
15382TIP3   OH267560   5.710   1.350   5.124 -0.2154  0.4105 -0.3254
15382TIP3    H167561   5.693   1.362   5.030  1.8875  2.0269 -0.5327
15382TIP3    H267562   5.644   1.404   5.167 -0.5848  0.4122 -0.8817
15383TIP3   OH267563   2.465   6.184  11.796 -0.4187  0.3430  0.4731
15383TIP3    H167564   2.448   6.275  11.771 -1.9740 -0.0932 -0.1658
15383TIP3    H267565   2.382   6.139  11.779  0.5867 -1.3735 -0.0599
15384TIP3   OH267566   6.784   0.158   5.127 -0.5013  0.0913  0.2084
15384TIP3    H167567   6.737   0.107   5.061 -0.8014 -0.9675  1.2314
15384TIP3    H267568   6.751   0.248   5.115  0.7112  0.2619 -2.2047
15385TIP3   OH267569   0.423   6.301  11.686 -0.7135 -0.0857 -0.5550
15385TIP3    H167570   0.338   6.257  11.692 -0.2150 -0.8290  1.1844
15385TIP3    H267571   0.408   6.374  11.626 -2.2759 -0.9249 -1.2095
15386TIP3   OH267572   3.854   5.078   0.499  0.5376 -0.2161 -0.0610
15386TIP3    H167573   3.784   5.015   0.480  0.3974 -0.7436  2.0510
15386TIP3    H267574   3.815   5.163   0.479 -0.3646 -0.5789  0.1268
15387TIP3   OH267575   2.527   3.234   5.968 -0.4549  0.3252  0.8795
15387TIP3    H167576   2.468   3.159   5.955 -1.9405  1.5672  0.2306
15387TIP3    H267577   2.563   3.222   6.056 -1.6775 -0.4839  1.2849
15388TIP3   OH267578   1.027   5.503  11.393  0.3492  0.1974 -0.2611
15388TIP3    H167579   1.120   5.499  11.411  0.2482  1.6305  0.6553
15388TIP3    H267580   0.986   5.513  11.479 -0.5439  1.0179 -0.7715
15389TIP3   OH267581   4.082   5.272  12.247  0.4079 -0.1463  0.1371
15389TIP3    H167582   4.170   5.257  12.281  0.0504 -1.1737  0.6270
15389TIP3    H267583   4.024   5.250  12.320 -0.2271  1.7687  0.2600
15390TIP3   OH267584   1.168   5.820  11.127  0.2355  0.0699  0.7651
15390TIP3    H167585   1.077   5.801  11.100  1.3516 -2.6322 -1.4652
15390TIP3    H267586   1.191   5.898  11.078  0.0294 -0.9449 -1.0081
15391TIP3   OH267587   0.361   4.452   4.192  0.5275 -0.7500  0.1492
15391TIP3    H167588   0.331   4.427   4.280  0.1601 -1.2793 -0.1215
15391TIP3    H267589   0.280   4.470   4.144  0.8378  2.8335  0.8639
15392TIP3   OH267590   2.307   6.507   6.651  0.0862  0.4900 -0.2056
15392TIP3    H167591   2.213   6.506   6.632  0.3022  0.8609 -1.3329
15392TIP3    H267592   2.320   6.431   6.708 -0.9735  0.7170  0.3528
15393TIP3   OH267593   1.122   2.972   6.498 -0.3004 -0.0543  0.1340
15393TIP3    H167594   1.195   2.938   6.446  0.6834  1.8292  0.2308
15393TIP3    H267595   1.053   2.988   6.434  0.2101  0.3843 -0.3137
15394TIP3   OH267596   2.388   0.342  16.415 -0.1345  0.0116 -0.0361
15394TIP3    H167597   2.406   0.436  16.426  1.4388 -0.2545 -0.1230
15394TIP3    H267598   2.335   0.318  16.491  1.5276  0.4720  1.2913
15395TIP3   OH267599   4.569   2.528  13.844 -0.3479  0.4572 -0.3844
15395TIP3    H167600   4.509   2.469  13.890 -0.3295  0.4080 -0.4221
15395TIP3    H267601   4.551   2.513  13.751 -0.2778  0.4448 -0.3957
15396TIP3   OH267602   2.415   5.631   6.898  0.1749  0.4913 -0.6411
15396TIP3    H167603   2.417   5.593   6.811 -0.8288  0.9223 -0.8585
15396TIP3    H267604   2.483   5.585   6.946  1.4453  0.9739 -1.9450
15397TIP3   OH267605   1.717   2.922  12.174  0.6020 -0.2284 -0.0713
15397TIP3    H167606   1.719   3.006  12.128  2.1007 -0.6406 -0.8073
15397TIP3    H267607   1.721   2.945  12.267 -1.7084  0.5889 -0.1398
15398TIP3   OH267608   2.394   3.522   1.190 -0.5690  0.0132 -0.4885
15398TIP3    H167609   2.474   3.470   1.194 -1.5530 -1.4147  1.2078
15398TIP3    H267610   2.424   3.611   1.168  1.1574 -1.1585 -3.1379
15399TIP3   OH267611   6.038   4.354  14.509  0.1355  0.0174 -0.0812
15399TIP3    H167612   6.059   4.380  14.420  1.4931 -0.1758  0.1756
15399TIP3    H267613   5.991   4.429  14.546  0.1158  0.3395 -0.7618
15400TIP3   OH267614   3.661   3.645  12.702 -0.2315  0.4368 -0.2181
15400TIP3    H167615   3.598   3.692  12.647 -0.6047  1.2506  0.8867
15400TIP3    H267616   3.652   3.553  12.676 -2.2626  0.4662  0.2579
15401TIP3   OH267617   1.835   3.608  14.463 -0.4763  0.0323  0.1934
15401TIP3    H167618   1.926   3.581  14.476 -0.3473  0.9915  1.3660
15401TIP3    H267619   1.821   3.676  14.529 -1.6133  0.8936 -0.9145
15402TIP3   OH267620   6.461   0.027  12.651 -0.0170  0.0686  0.5148
15402TIP3    H167621   6.553   0.052  12.649 -0.1576  0.9720  3.1624
15402TIP3    H267622   6.460  -0.054  12.703 -0.6463 -0.2645 -0.0159
15403TIP3   OH267623   5.979   0.460   5.547  0.2439 -0.4711  0.1065
15403TIP3    H167624   5.917   0.387   5.540 -0.8819  0.5476 -0.7581
15403TIP3    H267625   6.026   0.443   5.629 -0.2462 -1.9747  0.0987
15404TIP3   OH267626   5.520   2.444  12.016 -0.2166 -0.1485 -0.1846
15404TIP3    H167627   5.467   2.474  11.942 -0.2816 -1.0884 -0.5324
15404TIP3    H267628   5.609   2.441  11.981  0.2653  2.4726  0.7091
15405TIP3   OH267629   0.880   3.241   0.837  0.4498 -0.1098 -0.0073
15405TIP3    H167630   0.898   3.330   0.867 -2.5056  0.8514 -0.8939
15405TIP3    H267631   0.897   3.185   0.913  2.1833  1.2026  0.5917
15406TIP3   OH267632   3.372   0.129   0.438  0.0945  0.7277 -0.8537
15406TIP3    H167633   3.373   0.181   0.519 -3.4484  1.1690 -1.0257
15406TIP3    H267634   3.434   0.058   0.455  0.1662  1.3784  1.8808
15407TIP3   OH267635   6.508   0.350   3.520  0.4927  0.1749  0.0386
15407TIP3    H167636   6.556   0.268   3.503 -1.1908 -0.4742 -1.8299
15407TIP3    H267637   6.416   0.325   3.511 -0.0596  2.1191  0.2291
15408TIP3   OH267638   3.827   3.008   1.284 -0.2612  0.3871 -0.0804
15408TIP3    H167639   3.749   3.003   1.338  0.4972  0.7841  1.0810
15408TIP3    H267640   3.899   2.989   1.344  0.6239  1.1896 -0.8637
15409TIP3   OH267641   0.108   1.041  15.732  0.1430  0.3894  0.1407
15409TIP3    H167642   0.102   1.119  15.676 -2.3442  0.5411  0.5709
15409TIP3    H267643   0.098   1.074  15.821 -0.2096 -0.3457  0.3765
15410TIP3   OH267644   4.475   4.396  13.588  0.1032 -0.8789 -0.1488
15410TIP3    H167645   4.541   4.372  13.654  1.5439  1.2118 -0.7732
15410TIP3    H267646   4.392   4.395  13.636  0.7486 -2.1800  0.9965
15411TIP3   OH267647   5.913   2.211  16.172 -0.2647 -0.1630 -0.3114
15411TIP3    H167648   5.955   2.164  16.100  2.3125  0.5881  0.6412
15411TIP3    H267649   5.921   2.303  16.148 -0.1432  0.0482  0.5485
15412TIP3   OH267650   1.380   5.302   1.606 -0.0841 -0.3316 -0.2735
15412TIP3    H167651   1.366   5.258   1.522 -0.7550 -1.3054  0.3420
15412TIP3    H267652   1.360   5.394   1.589  0.2543 -0.4356 -1.2943
15413TIP3   OH267653   1.799   4.625  12.762  0.3124 -0.1428 -0.3164
15413TIP3    H167654   1.838   4.684  12.697  0.1147  0.4102  0.0700
15413TIP3    H267655   1.710   4.610  12.731 -0.0471  0.7694  0.2532
15414TIP3   OH267656   4.563   0.671   1.978  0.5570 -0.6039  0.9991
15414TIP3    H167657   4.643   0.721   1.965  1.2693 -1.6912  1.0820
15414TIP3    H267658   4.547   0.674   2.072 -1.2280  2.1933  0.6472
15415TIP3   OH267659   0.221   3.293  12.653  0.3011  0.1767 -0.0828
15415TIP3    H167660   0.292   3.312  12.591 -0.1179 -0.6269 -0.8259
15415TIP3    H267661   0.244   3.343  12.732  0.7057  1.4067 -0.9685
15416TIP3   OH267662   2.989   2.030  11.148 -0.3276 -0.5299  0.4882
15416TIP3    H167663   3.068   1.978  11.140 -0.3602 -0.8510  2.2021
15416TIP3    H267664   2.946   2.022  11.062  2.9422  2.0668 -1.5117
15417TIP3   OH267665   2.312   5.807   1.715 -0.2139 -0.1270  0.1868
15417TIP3    H167666   2.289   5.899   1.727  1.2293  0.0190  2.0286
15417TIP3    H267667   2.408   5.807   1.714 -0.2130 -1.5584 -0.2890
15418TIP3   OH267668   2.660   1.031  10.643  0.3375 -0.0885  0.1947
15418TIP3    H167669   2.659   1.100  10.576  1.7122 -2.2743 -2.1691
15418TIP3    H267670   2.571   1.033  10.680 -0.6739  0.7291 -2.1733
15419TIP3   OH267671   3.773   0.086  14.326 -0.2813  0.1788  0.0415
15419TIP3    H167672   3.727   0.162  14.362  0.4424  0.0098  1.3663
15419TIP3    H267673   3.704   0.022  14.309 -0.7312  0.5897  0.3073
15420TIP3   OH267674   6.389   0.472  14.574 -0.1360  0.5321  0.3847
15420TIP3    H167675   6.476   0.504  14.549 -0.5109  0.4008 -1.1681
15420TIP3    H267676   6.328   0.529  14.526 -0.9178  0.9127  1.8121
15421TIP3   OH267677   3.906   4.905   5.035 -0.0332  0.1481  0.8278
15421TIP3    H167678   3.850   4.956   4.976  1.0991 -0.3089 -0.6427
15421TIP3    H267679   3.912   4.819   4.995  0.9187 -0.1058  1.4978
15422TIP3   OH267680   3.157   3.727   3.035 -0.0431  0.6755  0.3041
15422TIP3    H167681   3.252   3.723   3.030 -0.0793 -0.2765  0.3417
15422TIP3    H267682   3.129   3.636   3.041 -1.0247  0.8687 -0.9732
15423TIP3   OH267683   2.327   2.023   3.279  0.0466 -0.4038  0.7979
15423TIP3    H167684   2.294   1.938   3.252  2.3425 -1.2256  0.4909
15423TIP3    H267685   2.387   2.050   3.210 -1.1997  1.8195  0.5296
15424TIP3   OH267686   3.617   5.499  12.843 -0.1105  0.0255  0.2963
15424TIP3    H167687   3.694   5.500  12.786 -0.5460 -1.2873 -0.3341
15424TIP3    H267688   3.585   5.589  12.842  1.2695  0.5222  0.3625
15425TIP3   OH267689   4.866   3.877   0.033 -0.2611  0.1669 -0.4401
15425TIP3    H167690   4.862   3.898  -0.060  1.2535  0.2600 -0.5039
15425TIP3    H267691   4.778   3.893   0.066 -0.9866 -0.5380 -1.9974
15426TIP3   OH267692   1.928   4.582  15.597 -0.3079 -0.1015 -0.3460
15426TIP3    H167693   1.942   4.502  15.546 -2.0828  0.6815 -2.1456
15426TIP3    H267694   1.877   4.638  15.539 -2.2279  0.9115  2.2229
15427TIP3   OH267695   5.597   0.979  16.357  0.1940 -0.8928  0.3872
15427TIP3    H167696   5.530   0.957  16.421  0.7919 -2.3385  0.5367
15427TIP3    H267697   5.656   1.039  16.404  0.2510 -1.4014  0.9723
15428TIP3   OH267698   0.398   4.759   1.721 -0.0387 -0.1175  0.0227
15428TIP3    H167699   0.428   4.848   1.743  0.4701 -0.9218  2.8705
15428TIP3    H267700   0.478   4.706   1.720 -0.5869 -0.9978  0.9345
15429TIP3   OH267701   6.195   2.922   3.892  0.5864 -0.4683  0.3891
15429TIP3    H167702   6.264   2.886   3.836  1.0999  1.2141 -0.0786
15429TIP3    H267703   6.236   2.930   3.978  0.1494 -1.9673  0.7480
15430TIP3   OH267704   4.912   6.216  13.587  0.1944 -0.5731 -0.2601
15430TIP3    H167705   4.980   6.230  13.521  0.1792 -1.4170 -0.4484
15430TIP3    H267706   4.960   6.188  13.665 -0.0062 -1.8497 -0.5994
15431TIP3   OH267707   0.210   0.305  12.039 -0.0706  0.0114 -0.3402
15431TIP3    H167708   0.209   0.278  12.131 -0.2799 -0.7555 -0.5614
15431TIP3    H267709   0.122   0.338  12.023 -0.2180 -0.4143 -0.4223
15432TIP3   OH267710   3.153   4.046   2.724  0.3463 -0.6081 -0.7123
15432TIP3    H167711   3.213   3.972   2.721  0.0344 -0.9372  0.8344
15432TIP3    H267712   3.071   4.011   2.759  0.0466  0.3527 -0.4078
15433TIP3   OH267713   5.672   4.530   4.383  0.5206 -0.0862 -0.1342
15433TIP3    H167714   5.666   4.620   4.352 -1.3288 -0.0034  0.3958
15433TIP3    H267715   5.653   4.476   4.306  1.7118 -0.0265 -0.4702
15434TIP3   OH267716   2.075   1.026  13.082 -0.3018 -0.0478 -0.2818
15434TIP3    H167717   2.134   0.983  13.145 -2.2511 -1.0236  0.9114
15434TIP3    H267718   2.021   0.955  13.048 -1.1519  0.9309 -0.9976
15435TIP3   OH267719   0.563   0.140   1.173  0.1636  0.5793  0.0294
15435TIP3    H167720   0.468   0.146   1.165  0.0941 -0.1225  0.2796
15435TIP3    H267721   0.587   0.065   1.119  0.4130 -0.1276  1.0965
15436TIP3   OH267722   4.310   5.797  16.964 -0.1121  0.0858 -0.3336
15436TIP3    H167723   4.393   5.750  16.956 -0.9449 -1.6714  1.0535
15436TIP3    H267724   4.244   5.729  16.975 -1.7113  1.4784 -1.0088
15437TIP3   OH267725   2.679   3.064  11.757 -0.2757  0.1859 -0.2726
15437TIP3    H167726   2.672   3.151  11.718 -1.4601 -0.3039 -1.2024
15437TIP3    H267727   2.770   3.058  11.786 -0.1346  1.6590 -0.3668
15438TIP3   OH267728   5.121   4.944   2.795 -0.0833 -0.3720 -0.2028
15438TIP3    H167729   5.119   4.866   2.740  0.6438  0.5156 -1.5046
15438TIP3    H267730   5.211   4.950   2.826 -0.5802 -1.0931  1.4364
15439TIP3   OH267731   4.231   0.135   3.279  0.5947  0.5196  0.2167
15439TIP3    H167732   4.286   0.137   3.201 -0.4889 -3.6834 -0.7702
15439TIP3    H267733   4.264   0.061   3.330 -2.8305 -0.8697  0.5422
15440TIP3   OH267734   1.095   4.109   4.873  0.1781  0.4219  0.2972
15440TIP3    H167735   1.065   4.124   4.783  1.5001  1.5822  0.0371
15440TIP3    H267736   1.140   4.025   4.869  1.1837  0.9799 -0.3810
15441TIP3   OH267737   4.724   5.791   5.771 -0.0614 -0.1169 -0.3847
15441TIP3    H167738   4.641   5.786   5.819  0.1226 -0.1308 -0.0687
15441TIP3    H267739   4.787   5.746   5.827  0.1620 -0.0970 -0.6198
15442TIP3   OH267740   5.676   2.931  15.686  0.0301 -0.7374  0.2517
15442TIP3    H167741   5.703   2.851  15.731 -1.4800 -1.2039  0.3641
15442TIP3    H267742   5.667   2.904  15.594 -0.9923 -0.8484  0.3728
15443TIP3   OH267743   3.084   2.022  14.509  0.0448 -0.0923  0.2625
15443TIP3    H167744   3.017   1.966  14.469  0.1872  0.9888 -1.5562
15443TIP3    H267745   3.122   2.070  14.435  0.6326  1.6349  1.6514
15444TIP3   OH267746   0.957   3.950   3.030 -0.2142 -0.5670 -0.5597
15444TIP3    H167747   0.985   4.026   3.081  1.0422 -0.0381 -2.0119
15444TIP3    H267748   1.021   3.943   2.960 -0.9979 -2.2710 -1.1327
15445TIP3   OH267749   5.206   0.030   4.615  0.5592  0.2475 -0.1469
15445TIP3    H167750   5.273   0.075   4.564  0.2866  0.3357 -0.4355
15445TIP3    H267751   5.134   0.093   4.621 -0.4442 -0.6833 -1.8809
15446TIP3   OH267752   4.708   4.850   0.945  0.2107 -0.1104 -1.0944
15446TIP3    H167753   4.781   4.788   0.941 -1.6442 -2.3946 -1.2926
15446TIP3    H267754   4.662   4.827   1.027  0.0808  1.7130 -0.6466
15447TIP3   OH267755   3.232   5.865   2.153 -1.0744 -0.1668  0.1718
15447TIP3    H167756   3.221   5.911   2.236  2.4038 -1.1910  1.3047
15447TIP3    H267757   3.232   5.934   2.087 -0.6750  0.9948  1.3629
15448TIP3   OH267758   5.020   0.556  12.749 -0.2932  0.0462  0.0726
15448TIP3    H167759   5.024   0.462  12.765  0.5791  0.0481 -0.0938
15448TIP3    H267760   5.044   0.595  12.833 -1.5948  0.1289  0.4019
15449TIP3   OH267761   4.630   4.634  13.119 -0.0463 -0.1670  0.1238
15449TIP3    H167762   4.548   4.588  13.136 -0.4171  0.3278 -0.3005
15449TIP3    H267763   4.696   4.566  13.117 -0.6232 -0.7110 -0.7644
15450TIP3   OH267764   5.340   4.951  16.848 -0.3854  0.1569 -0.6258
15450TIP3    H167765   5.416   4.918  16.895  0.3645  1.1179 -1.1404
15450TIP3    H267766   5.265   4.919  16.897  0.3682 -0.3270  0.2095
15451TIP3   OH267767   4.943   4.848   5.247  0.3139 -0.2197 -0.5555
15451TIP3    H167768   5.009   4.858   5.316  0.4755  0.0562 -0.7470
15451TIP3    H267769   4.987   4.878   5.167 -0.3388  0.8151 -0.5282
15452TIP3   OH267770   5.194   0.223  15.696  0.3775 -0.5648 -0.2104
15452TIP3    H167771   5.218   0.165  15.768  0.3507 -2.7049 -1.8910
15452TIP3    H267772   5.266   0.286  15.691  1.4746 -1.7627  0.2523
15453TIP3   OH267773   2.240   2.412   2.062 -0.1788 -0.4213 -0.7653
15453TIP3    H167774   2.236   2.390   1.969  2.0822  1.3773 -1.3410
15453TIP3    H267775   2.239   2.328   2.107  3.8968 -1.6279 -2.6960
15454TIP3   OH267776   4.509   1.926  13.132 -0.1508  0.7184  0.0411
15454TIP3    H167777   4.578   1.861  13.146  0.0994  0.7659 -0.9297
15454TIP3    H267778   4.513   1.983  13.209 -0.4305 -0.4696  0.9362
15455TIP3   OH267779   2.178   4.608  13.788  0.9227 -0.0706 -0.1911
15455TIP3    H167780   2.231   4.622  13.710 -0.7321 -1.0740 -1.5234
15455TIP3    H267781   2.193   4.516  13.811  1.3973  0.2157  0.6875
15456TIP3   OH267782   4.952   1.625  16.866 -0.5429 -0.2670  0.0797
15456TIP3    H167783   4.877   1.594  16.918 -0.6320  0.4487  0.3846
15456TIP3    H267784   4.920   1.705  16.825 -0.0408 -0.1347 -0.0465
15457TIP3   OH267785   0.135   4.256   1.527  0.3718  0.5005  0.1011
15457TIP3    H167786   0.205   4.238   1.463  0.1655  0.7666 -0.2042
15457TIP3    H267787   0.058   4.272   1.473 -0.1946 -0.9373  0.4689
15458TIP3   OH267788   1.818   3.475  12.740 -0.0437  0.1488 -0.6345
15458TIP3    H167789   1.781   3.505  12.823  1.7379  0.1603  0.1793
15458TIP3    H267790   1.853   3.388  12.760 -1.2761 -0.6529 -1.8700
15459TIP3   OH267791   2.004   6.359  11.371  0.1356  0.2455  0.7210
15459TIP3    H167792   1.927   6.348  11.317  0.1430  1.0252  0.5344
15459TIP3    H267793   2.076   6.326  11.318  0.0284  0.2152  0.5965
15460TIP3   OH267794   0.602   1.215  15.444 -0.0885  0.2842  0.2637
15460TIP3    H167795   0.588   1.183  15.533 -0.0926  0.5912  0.3753
15460TIP3    H267796   0.668   1.157  15.408 -0.8683 -0.5071  0.1022
15461TIP3   OH267797   0.722   6.362  15.326 -0.4548  0.8295  0.0412
15461TIP3    H167798   0.790   6.388  15.263 -0.8046 -0.1671 -0.7594
15461TIP3    H267799   0.748   6.405  15.408  1.2384  0.3180 -0.2076
15462TIP3   OH267800   5.666   5.125  13.401 -0.3267 -0.1349  0.0485
15462TIP3    H167801   5.736   5.113  13.337  0.9527 -0.1072  1.4139
15462TIP3    H267802   5.711   5.130  13.485 -1.6891  3.0587  0.6689
15463TIP3   OH267803   2.707   2.289   2.243  0.2962  0.5070  0.3601
15463TIP3    H167804   2.701   2.384   2.249 -1.0016  0.5285 -1.0856
15463TIP3    H267805   2.650   2.265   2.170 -1.8908 -1.6375  2.6362
15464TIP3   OH267806   4.278   1.351   5.856  0.5707  0.0738  0.4249
15464TIP3    H167807   4.271   1.352   5.952  2.2516  0.3412  0.5613
15464TIP3    H267808   4.189   1.368   5.826 -0.2525 -1.4376  1.9272
15465TIP3   OH267809   4.200   1.515   1.389 -0.0019  0.2730  0.4249
15465TIP3    H167810   4.127   1.477   1.438 -1.3713  0.3459 -1.5255
15465TIP3    H267811   4.184   1.490   1.298  1.0404  2.4154 -0.3777
15466TIP3   OH267812   4.856   6.683  14.608  0.1828 -0.1515  0.4108
15466TIP3    H167813   4.812   6.739  14.672 -2.4897 -0.2966 -1.2441
15466TIP3    H267814   4.937   6.730  14.587 -0.6507  1.6958  1.1788
15467TIP3   OH267815   4.506   4.447   7.002  0.0378  0.5934 -0.5501
15467TIP3    H167816   4.447   4.522   7.014 -0.1561  0.5880 -1.4365
15467TIP3    H267817   4.452   4.380   6.962  0.4040  0.2366 -0.4502
15468TIP3   OH267818   3.471   1.208  13.572  0.0097  0.2809 -0.8112
15468TIP3    H167819   3.528   1.233  13.645  0.5378  2.2695 -1.8674
15468TIP3    H267820   3.521   1.144  13.522  0.0863 -0.2567 -0.0531
15469TIP3   OH267821   1.700   2.354   3.742 -0.0247 -0.4539 -0.1581
15469TIP3    H167822   1.782   2.377   3.786 -0.5615 -0.5121  0.9059
15469TIP3    H267823   1.725   2.337   3.651  0.9015  0.9781 -0.1783
15470TIP3   OH267824   3.568   0.003  12.103  0.3945 -0.2006  0.0376
15470TIP3    H167825   3.616   0.068  12.155 -0.2535  0.9121 -0.7379
15470TIP3    H267826   3.636  -0.053  12.066  0.9473 -0.0992  0.8925
15471TIP3   OH267827   2.168   6.346  13.554  0.1830 -0.1134  0.0322
15471TIP3    H167828   2.129   6.271  13.509 -1.2978 -0.4015  1.7430
15471TIP3    H267829   2.099   6.413  13.553  0.4692  0.2108  1.0192
15472TIP3   OH267830   3.296   6.461  16.178 -0.0082 -0.1564 -0.1541
15472TIP3    H167831   3.274   6.392  16.241 -0.1043  1.1744  1.3061
15472TIP3    H267832   3.235   6.532  16.198  2.3263  1.6893  0.7126
15473TIP3   OH267833   1.318   1.229  12.146 -0.3255 -0.1857  0.0991
15473TIP3    H167834   1.352   1.238  12.057  1.0557 -0.5703  0.5652
15473TIP3    H267835   1.397   1.225  12.201 -1.1145 -1.7988  1.1546
15474TIP3   OH267836   2.970   2.944  16.683 -0.5148  0.0148 -0.3404
15474TIP3    H167837   2.897   2.897  16.642 -1.0484 -0.1420  0.7624
15474TIP3    H267838   2.933   2.977  16.765  0.4413  0.6142 -0.1557
15475TIP3   OH267839   3.994   2.275   1.613 -0.6174  0.4164 -0.7064
15475TIP3    H167840   3.990   2.314   1.700 -0.1099  1.1920 -1.0274
15475TIP3    H267841   4.040   2.192   1.627  0.6842  1.1609 -0.4456
15476TIP3   OH267842   4.497   3.154  11.552  0.3582 -0.1108  0.4952
15476TIP3    H167843   4.544   3.227  11.593  0.5625  0.2231 -0.3308
15476TIP3    H267844   4.488   3.180  11.461 -2.3777  0.3005  0.8586
15477TIP3   OH267845   4.188   0.369   5.051  0.3290 -0.2858  0.0873
15477TIP3    H167846   4.241   0.291   5.033 -0.3567 -0.2611 -2.1587
15477TIP3    H267847   4.202   0.386   5.144  2.7003 -1.4409 -0.0090
15478TIP3   OH267848   6.086   3.757   1.013 -0.3099 -0.2242 -0.0690
15478TIP3    H167849   6.054   3.702   0.941 -0.4453 -0.4134  0.1363
15478TIP3    H267850   6.108   3.696   1.083 -0.3476 -0.0273  0.1165
15479TIP3   OH267851   2.775   0.007  12.897  0.3501 -0.1762 -0.0710
15479TIP3    H167852   2.721   0.043  12.827  2.0923  0.0325 -1.3247
15479TIP3    H267853   2.850   0.066  12.903  1.6232 -1.7643  0.0216
15480TIP3   OH267854   0.703   2.185  16.399  0.1755  0.2524  0.0547
15480TIP3    H167855   0.633   2.247  16.378 -3.0124 -3.0184  0.5416
15480TIP3    H267856   0.696   2.172  16.494  1.4566 -0.0891  0.1091
15481TIP3   OH267857   3.480   3.167   0.398  0.3808  0.4794 -0.4962
15481TIP3    H167858   3.412   3.233   0.405 -0.5505 -0.6018  0.8777
15481TIP3    H267859   3.508   3.171   0.306 -0.4792  1.9432 -0.7135
15482TIP3   OH267860   2.599   2.932  15.835 -0.3810  0.2173  0.3282
15482TIP3    H167861   2.574   3.020  15.864 -0.3640  0.9993 -1.9482
15482TIP3    H267862   2.613   2.941  15.741 -0.3094 -2.2282  0.0853
15483TIP3   OH267863   0.472   3.050   1.384  0.4871  0.1792 -0.5043
15483TIP3    H167864   0.480   2.957   1.407  1.7645  0.2261 -0.7250
15483TIP3    H267865   0.399   3.081   1.438 -0.7963 -1.2298 -1.3641
15484TIP3   OH267866   0.902   4.670   4.218 -0.0366  0.0232 -0.0203
15484TIP3    H167867   0.844   4.646   4.146  1.1475  0.4253 -1.1088
15484TIP3    H267868   0.901   4.766   4.219  1.6362  0.0680 -0.9024
15485TIP3   OH267869   1.323   1.508   4.233 -0.1562  0.1365  0.0840
15485TIP3    H167870   1.230   1.489   4.248 -0.8086  2.9519 -0.1731
15485TIP3    H267871   1.369   1.453   4.297 -1.9388 -1.6585 -0.1101
15486TIP3   OH267872   0.528   5.765   5.739 -0.9111  0.5315  0.1764
15486TIP3    H167873   0.510   5.854   5.770 -0.7450  0.8485 -0.6309
15486TIP3    H267874   0.618   5.748   5.767 -0.8785  0.6835  0.1622
15487TIP3   OH267875   2.871   4.777  17.220 -0.0105 -0.5770 -0.3921
15487TIP3    H167876   2.857   4.736  17.306 -2.7265 -2.6243 -1.7088
15487TIP3    H267877   2.966   4.781  17.209  0.3977  0.4663  3.0177
15488TIP3   OH267878   4.061   1.520   0.900 -0.1267 -0.2097 -0.3233
15488TIP3    H167879   4.017   1.506   0.816 -1.1253 -0.8363  0.2957
15488TIP3    H267880   4.055   1.615   0.914  1.5807  0.1464 -1.7756
15489TIP3   OH267881   3.695   2.246  13.784 -0.2495  0.3188 -0.1557
15489TIP3    H167882   3.696   2.185  13.710 -0.6574 -0.4724  0.4901
15489TIP3    H267883   3.755   2.316  13.758  0.1878 -0.3321 -0.9127
15490TIP3   OH267884   2.891   2.413  11.703 -0.6639  0.1839 -0.3244
15490TIP3    H167885   2.892   2.420  11.798  0.0406 -2.3092 -0.0993
15490TIP3    H267886   2.980   2.438  11.676 -0.2937 -0.9157 -0.1492
15491TIP3   OH267887   3.568   3.250  15.803 -0.5199  0.8831 -0.0658
15491TIP3    H167888   3.513   3.173  15.820 -0.4033  0.9209  0.4788
15491TIP3    H267889   3.614   3.229  15.722 -1.4103  0.8876 -0.5767
15492TIP3   OH267890   3.394   0.773   5.154 -0.1455  0.6235 -0.6861
15492TIP3    H167891   3.478   0.812   5.180  0.3353  0.9207 -2.6060
15492TIP3    H267892   3.416   0.683   5.131 -0.3692  0.6785 -1.1105
15493TIP3   OH267893   6.153   6.096  15.747  0.0530  0.0550  0.3510
15493TIP3    H167894   6.203   6.111  15.827 -0.5906 -2.0656  1.1909
15493TIP3    H267895   6.129   6.183  15.717  2.6174  1.0136  0.9719
15494TIP3   OH267896   5.281   2.002   4.179 -0.9916 -0.3340 -0.2115
15494TIP3    H167897   5.260   1.910   4.166  0.1473 -0.5567 -0.5670
15494TIP3    H267898   5.352   2.002   4.243 -2.5358  0.4391  1.5550
15495TIP3   OH267899   4.912   6.718   3.175  0.6494 -0.5541 -0.6076
15495TIP3    H167900   4.894   6.704   3.267 -0.7757 -0.6645 -0.8877
15495TIP3    H267901   4.886   6.637   3.132  0.2059 -0.0936 -1.2338
15496TIP3   OH267902   3.717   3.757  10.989 -0.8355 -0.7562  0.3292
15496TIP3    H167903   3.752   3.692  10.928 -0.1116  0.2960 -0.3961
15496TIP3    H267904   3.708   3.836  10.936 -1.6560 -0.2517  1.2161
15497TIP3   OH267905   4.347   2.278  10.978  0.2469 -0.2143  0.3939
15497TIP3    H167906   4.313   2.218  11.044  1.8257 -0.0447  1.3680
15497TIP3    H267907   4.418   2.324  11.021  1.8188 -0.6443 -1.6555
15498TIP3   OH267908   2.252   4.461   2.204  0.0640 -0.3865 -0.1224
15498TIP3    H167909   2.319   4.487   2.141 -0.1714  1.4473  0.3514
15498TIP3    H267910   2.169   4.483   2.161 -0.0679  1.8647  1.2136
15499TIP3   OH267911   5.480   2.211   1.147  0.0469  0.2039  0.2377
15499TIP3    H167912   5.505   2.125   1.180 -1.2108 -0.4653 -0.5263
15499TIP3    H267913   5.407   2.238   1.202 -1.5894 -0.5991 -1.5090
15500TIP3   OH267914   4.609   4.757   2.807 -0.4437  0.2814 -0.1597
15500TIP3    H167915   4.698   4.781   2.834 -0.4799  0.1256  0.1019
15500TIP3    H267916   4.592   4.674   2.852 -0.0805 -0.5641 -1.5654
15501TIP3   OH267917   2.599   4.300   3.883  0.0461 -0.5471 -0.1921
15501TIP3    H167918   2.693   4.290   3.870  0.3546 -0.0996  1.5130
15501TIP3    H267919   2.563   4.212   3.873  0.5645 -0.6413 -1.3328
15502TIP3   OH267920   6.692   0.428  14.388 -0.1772  0.4714  0.0871
15502TIP3    H167921   6.651   0.474  14.315 -1.1599 -1.0208 -0.3036
15502TIP3    H267922   6.655   0.340  14.387  1.6969 -0.3741  0.8192
15503TIP3   OH267923   2.803   0.724   0.812 -0.5963  0.3031 -0.2152
15503TIP3    H167924   2.825   0.757   0.725 -1.6574  0.1154 -0.5692
15503TIP3    H267925   2.887   0.718   0.858  0.0549 -0.2330 -1.4415
15504TIP3   OH267926   0.832   5.111   1.825  0.2998  0.2931 -0.0030
15504TIP3    H167927   0.753   5.091   1.876  0.4193 -0.7406 -0.2055
15504TIP3    H267928   0.801   5.133   1.738  0.2244  0.0171 -0.0454
15505TIP3   OH267929   0.447   1.773   6.248  0.2720 -0.5148 -0.2356
15505TIP3    H167930   0.490   1.780   6.333 -1.5729 -0.6695  0.7383
15505TIP3    H267931   0.470   1.685   6.217  0.6055 -0.6154  0.2921
15506TIP3   OH267932   0.507   5.891   2.657 -0.4708  0.2163 -0.1792
15506TIP3    H167933   0.471   5.969   2.699  1.1530  0.3670  0.9809
15506TIP3    H267934   0.441   5.823   2.673 -1.6273  1.1843 -0.7002
15507TIP3   OH267935   0.009   4.558  13.980  0.2334 -0.0998  0.5529
15507TIP3    H167936   0.003   4.583  13.888  1.0017  1.1054  0.8233
15507TIP3    H267937   0.063   4.478  13.978 -1.1258 -1.0243 -0.1803
15508TIP3   OH267938   3.439   0.230   5.951 -0.4369 -0.2393  0.1914
15508TIP3    H167939   3.366   0.281   5.988 -1.0423  0.7986 -2.3672
15508TIP3    H267940   3.517   0.280   5.973 -0.7215 -0.0208  0.7095
15509TIP3   OH267941   3.448   5.424  14.246  0.2574 -0.2553  0.9064
15509TIP3    H167942   3.470   5.502  14.297 -0.7285  1.4827 -1.2379
15509TIP3    H267943   3.353   5.421  14.247  0.1692  0.3818 -1.5587
15510TIP3   OH267944   1.621   0.267   2.385  0.2450  0.1502 -0.6112
15510TIP3    H167945   1.584   0.355   2.379 -0.5795 -0.1377  0.1228
15510TIP3    H267946   1.714   0.279   2.368 -0.2609  0.7954 -3.1769
15511TIP3   OH267947   4.511   4.522  16.528  0.0502 -0.6191  0.7531
15511TIP3    H167948   4.438   4.578  16.500  0.1958  0.1172  1.8010
15511TIP3    H267949   4.590   4.572  16.506  0.2686 -1.6322 -0.8415
15512TIP3   OH267950   6.303   6.125   0.206  0.3475  0.1447  0.2260
15512TIP3    H167951   6.275   6.037   0.178  1.6263 -0.1131 -0.2646
15512TIP3    H267952   6.225   6.179   0.195 -1.0499 -1.3274  2.4577
15513TIP3   OH267953   3.993   5.762  14.629  0.1194  0.0228 -0.1690
15513TIP3    H167954   4.018   5.717  14.549 -1.3709  1.0111 -1.2158
15513TIP3    H267955   3.897   5.763  14.627  0.0805  0.8682  1.1780
15514TIP3   OH267956   2.034   2.290   2.395  0.4152  0.1276  0.2235
15514TIP3    H167957   2.054   2.208   2.351  0.5490  0.7070 -0.8278
15514TIP3    H267958   2.030   2.268   2.488  1.8417 -0.7754  0.0759
15515TIP3   OH267959   4.241   3.510  16.098 -0.8218 -0.1794 -0.3048
15515TIP3    H167960   4.301   3.582  16.080 -0.5198  0.2531  2.2709
15515TIP3    H267961   4.154   3.547  16.086 -0.6598  0.5575  0.7164
15516TIP3   OH267962   0.777   0.671  13.291  0.6566 -0.0266  0.5227
15516TIP3    H167963   0.708   0.725  13.251  0.9290  0.6506  0.9516
15516TIP3    H267964   0.817   0.729  13.356  1.2824 -0.5919  0.6402
15517TIP3   OH267965   6.622   2.923   4.942 -0.4203  0.2249  0.7260
15517TIP3    H167966   6.716   2.924   4.960 -0.4139  2.8646  0.7570
15517TIP3    H267967   6.616   2.941   4.848 -0.8486 -1.2538  0.4707
15518TIP3   OH267968   1.424   4.772  15.596 -0.6224 -0.2637 -0.4270
15518TIP3    H167969   1.442   4.822  15.516  0.2484 -0.6045 -0.4526
15518TIP3    H267970   1.459   4.684  15.577 -0.2486 -0.2966  0.3933
15519TIP3   OH267971   4.498   3.695   1.015 -0.3115  0.4351  0.5821
15519TIP3    H167972   4.404   3.684   1.033 -0.4347  0.3026 -0.1244
15519TIP3    H267973   4.501   3.739   0.930  0.2966 -2.1553 -0.7858
15520TIP3   OH267974   0.355   2.306  12.505  0.6645  0.7993  0.3945
15520TIP3    H167975   0.388   2.275  12.589 -0.8811 -0.8093  0.4541
15520TIP3    H267976   0.414   2.268  12.440 -0.2350 -0.9443  0.5692
15521TIP3   OH267977   4.980   4.719   2.053 -0.5034  0.4226  0.1781
15521TIP3    H167978   4.939   4.691   1.971 -0.6093  0.8576  0.0819
15521TIP3    H267979   4.977   4.641   2.109  0.0051 -0.0144 -0.4032
15522TIP3   OH267980   5.678   1.713  10.816  0.5891  1.0175  0.0526
15522TIP3    H167981   5.668   1.651  10.888 -0.1498  0.6380 -0.3754
15522TIP3    H267982   5.759   1.685  10.772 -0.2666 -0.2759 -0.7382
15523TIP3   OH267983   4.605   6.091  14.374  0.2509 -0.3183  0.5175
15523TIP3    H167984   4.562   6.141  14.444  1.4887  1.3708  0.0989
15523TIP3    H267985   4.535   6.073  14.311 -0.3066  0.5080  0.8958
15524TIP3   OH267986   4.686   3.297  15.564  0.4240 -0.2502  0.0564
15524TIP3    H167987   4.673   3.217  15.513 -0.9958 -0.4158  0.6530
15524TIP3    H267988   4.615   3.355  15.536  2.8946  1.7875 -2.2118
15525TIP3   OH267989   3.222   5.850   0.465 -0.1100 -0.9219  0.2180
15525TIP3    H167990   3.141   5.804   0.443  0.2348 -0.5577 -1.9128
15525TIP3    H267991   3.276   5.785   0.510 -1.9165 -0.9147  2.4602
15526TIP3   OH267992   3.636   0.585   5.447 -0.2929 -0.4323  0.3680
15526TIP3    H167993   3.720   0.584   5.400  0.5197 -1.2548  1.8203
15526TIP3    H267994   3.583   0.518   5.403 -0.3692  0.4144 -0.8512
15527TIP3   OH267995   3.575   5.058  15.603 -0.0143 -0.0004 -0.1190
15527TIP3    H167996   3.492   5.099  15.628 -0.7675 -2.0318  0.8438
15527TIP3    H267997   3.555   4.964  15.600  2.1758 -0.4808 -0.2179
15528TIP3   OH267998   5.148   1.659   2.903 -0.1019 -0.5695  0.4350
15528TIP3    H167999   5.110   1.732   2.951  0.2034 -1.0284  1.3886
15528TIP3    H268000   5.164   1.592   2.970 -2.0896 -2.2122 -0.6729
15529TIP3   OH268001   1.854   2.210  12.313  0.0848  0.0915 -1.0378
15529TIP3    H168002   1.923   2.265  12.349 -0.0417 -0.0081 -0.6375
15529TIP3    H268003   1.802   2.268  12.258  0.4791  0.1703 -1.3262
15530TIP3   OH268004   0.356   5.295  10.847 -0.1610 -0.0058 -0.1401
15530TIP3    H168005   0.440   5.323  10.809  0.7756 -0.5330  1.5047
15530TIP3    H268006   0.377   5.216  10.897 -1.3612  0.6739  1.4796
15531TIP3   OH268007   3.701   5.417  11.816  0.3457  0.0367  0.5880
15531TIP3    H168008   3.689   5.323  11.829  0.4807 -0.1454 -0.5717
15531TIP3    H268009   3.763   5.423  11.743  1.5960  1.0098  1.7004
15532TIP3   OH268010   1.149   1.725  14.454  0.9201  0.3172  0.5460
15532TIP3    H168011   1.213   1.794  14.471 -0.1328  1.3127  0.5294
15532TIP3    H268012   1.067   1.760  14.487 -0.2296  0.3435 -2.1869
15533TIP3   OH268013   3.707   1.388   0.806 -0.2912  0.2947  0.0549
15533TIP3    H168014   3.695   1.365   0.714  1.9930 -2.2597  0.3319
15533TIP3    H268015   3.732   1.481   0.805 -1.1939  0.5405 -1.7959
15534TIP3   OH268016   1.734   1.291   1.808 -0.3758  0.2262  0.0191
15534TIP3    H168017   1.707   1.322   1.722 -2.1013  0.7701  0.7207
15534TIP3    H268018   1.700   1.357   1.869  2.0058  0.5677  1.0251
15535TIP3   OH268019   3.734   6.453   4.202 -0.0440  0.1587 -0.2680
15535TIP3    H168020   3.754   6.360   4.201 -0.8378 -0.0082 -1.0234
15535TIP3    H268021   3.814   6.495   4.235  1.6309 -0.4733 -3.3577
15536TIP3   OH268022   0.390   5.982   1.749 -0.0324 -0.3501  0.5088
15536TIP3    H168023   0.396   6.015   1.839  0.2014 -1.4323  0.8931
15536TIP3    H268024   0.481   5.966   1.724 -0.0963 -0.0461  0.0713
15537TIP3   OH268025   5.292   2.747  13.411 -0.2553 -0.6769 -0.6623
15537TIP3    H168026   5.236   2.695  13.468 -1.1765 -0.3309 -1.2403
15537TIP3    H268027   5.248   2.746  13.326  0.8214 -0.7370 -1.2342
15538TIP3   OH268028   6.118   5.308   3.744  0.5813  0.1239 -0.2762
15538TIP3    H168029   6.097   5.399   3.766  1.1255  0.0766  0.4347
15538TIP3    H268030   6.084   5.258   3.818  0.7738 -0.2051 -0.4136
15539TIP3   OH268031   0.070   5.084  11.098  0.0271 -0.3032 -0.6365
15539TIP3    H168032   0.132   5.095  11.025 -0.3832 -1.2239 -1.1267
15539TIP3    H268033  -0.016   5.090  11.058 -0.2026 -1.3280 -0.3085
15540TIP3   OH268034   6.006   4.467  12.895 -0.0215 -0.0162  0.2347
15540TIP3    H168035   6.026   4.377  12.921  2.3418  0.3049 -0.3136
15540TIP3    H268036   6.036   4.473  12.804 -1.4258  0.9426 -0.1818
15541TIP3   OH268037   6.713   5.267   1.879 -0.1789 -0.4798 -0.0894
15541TIP3    H168038   6.740   5.289   1.789  0.2779  1.4135  0.4839
15541TIP3    H268039   6.749   5.338   1.932 -1.7124 -0.8062  1.4080
15542TIP3   OH268040   0.478   4.640  13.438 -0.4846  0.6601 -0.6259
15542TIP3    H168041   0.516   4.565  13.484 -2.5413  0.8230  1.4411
15542TIP3    H268042   0.529   4.647  13.357 -1.0017 -3.7289 -1.4937
15543TIP3   OH268043   0.149   3.867  15.715 -0.2093 -0.3220 -0.5304
15543TIP3    H168044   0.109   3.834  15.796 -0.4846 -0.6078 -0.7831
15543TIP3    H268045   0.173   3.788  15.666 -3.0749 -0.2046 -2.2379
15544TIP3   OH268046   2.190   5.998  16.949  0.3049  0.2135 -0.5516
15544TIP3    H168047   2.270   6.013  16.899  0.9314 -1.4528 -0.0771
15544TIP3    H268048   2.177   6.078  16.999 -0.4699  2.0367 -3.5315
15545TIP3   OH268049   6.512   1.548  12.746  0.3456 -0.2659 -0.4319
15545TIP3    H168050   6.465   1.488  12.804  0.7441 -0.8201 -0.6828
15545TIP3    H268051   6.455   1.558  12.670  1.3212 -2.1631 -1.4371
15546TIP3   OH268052   2.927   4.187   4.825  0.4746 -0.3928  0.8042
15546TIP3    H168053   3.009   4.154   4.864  1.0442  0.0379 -0.0317
15546TIP3    H268054   2.923   4.279   4.852  0.4075 -0.3354  0.5961
15547TIP3   OH268055   4.544   3.559  13.047 -0.1266 -0.3879 -0.2975
15547TIP3    H168056   4.568   3.608  12.969  1.0945 -1.6197 -0.7122
15547TIP3    H268057   4.452   3.581  13.062 -0.3950 -0.2006 -2.1217
15548TIP3   OH268058   2.023   1.226  14.581  0.1456  0.4777 -0.5128
15548TIP3    H168059   1.936   1.224  14.541  0.2304  0.4640 -0.6998
15548TIP3    H268060   2.061   1.140  14.559 -0.0461  0.2252  0.1394
15549TIP3   OH268061   1.502   3.649   6.290 -0.1190  0.0402 -0.5291
15549TIP3    H168062   1.583   3.636   6.339 -0.8595 -0.9677  0.4425
15549TIP3    H268063   1.513   3.596   6.211 -0.4349 -1.3323  0.3220
15550TIP3   OH268064   1.773   3.464  14.728  0.3261  0.1068  0.1780
15550TIP3    H168065   1.785   3.395  14.663 -2.1647 -0.7865  0.6011
15550TIP3    H268066   1.696   3.513  14.698  0.4558  1.0358  1.3024
15551TIP3   OH268067   4.088   2.803   4.123  0.2899 -0.6151  0.0360
15551TIP3    H168068   4.117   2.782   4.034  0.1660  0.6932 -0.3142
15551TIP3    H268069   4.029   2.877   4.113 -0.3891 -0.9866  1.1322
15552TIP3   OH268070   6.373   2.482  13.650 -0.0153 -0.1533  0.1970
15552TIP3    H168071   6.458   2.498  13.610 -0.3180 -0.9196 -0.7719
15552TIP3    H268072   6.383   2.511  13.741  2.0408 -2.5949  0.7847
15553TIP3   OH268073   5.302   5.363  14.355 -0.1189 -0.4995  0.3723
15553TIP3    H168074   5.239   5.290  14.358 -3.2442  1.9657 -1.7207
15553TIP3    H268075   5.266   5.428  14.415  1.4893  0.1915  0.6055
15554TIP3   OH268076   2.460   1.021   1.725 -0.0198 -0.0720 -0.2741
15554TIP3    H168077   2.481   0.928   1.735 -0.4069 -0.1056  0.2861
15554TIP3    H268078   2.459   1.055   1.815 -1.5324  0.1037 -0.3441
15555TIP3   OH268079   0.391   4.429  14.006  0.6974  0.6032  0.0494
15555TIP3    H168080   0.469   4.392  14.046  0.2574  0.4550  0.7748
15555TIP3    H268081   0.424   4.496  13.946  1.3077  1.7136  1.5982
15556TIP3   OH268082   6.405   1.001  13.312  0.2578 -0.5914  0.3984
15556TIP3    H168083   6.452   1.015  13.230  1.4582 -2.0975  0.7998
15556TIP3    H268084   6.471   1.015  13.380 -0.9461  1.5790  1.1888
15557TIP3   OH268085   2.097   2.727  13.552 -0.1474 -0.3547  0.1675
15557TIP3    H168086   2.002   2.732  13.545 -0.2717 -0.3230  1.7200
15557TIP3    H268087   2.117   2.763  13.638  1.1867 -1.3490  0.2903
15558TIP3   OH268088   3.501   3.024  13.193  0.3017  0.3330 -0.0260
15558TIP3    H168089   3.582   2.983  13.162 -1.0199 -0.0985 -3.0823
15558TIP3    H268090   3.445   2.951  13.218  0.4017  0.5858  0.9581
15559TIP3   OH268091   1.292   4.032   5.147  0.0928  0.7956  0.3709
15559TIP3    H168092   1.377   4.026   5.105 -0.0938  2.0502 -0.2103
15559TIP3    H268093   1.263   4.122   5.131 -1.7815  0.1138 -0.3158
15560TIP3   OH268094   3.853   2.327  12.222 -0.8528 -0.0231  0.2308
15560TIP3    H168095   3.834   2.363  12.136  0.1121  0.4719  0.2220
15560TIP3    H268096   3.919   2.386  12.259 -2.2183  0.5261  1.8410
15561TIP3   OH268097   5.688   3.550   4.964  0.3504  0.0924 -0.2253
15561TIP3    H168098   5.718   3.589   4.882  0.8974 -0.0981 -0.1165
15561TIP3    H268099   5.700   3.619   5.030  3.0108 -0.8196  0.3080
15562TIP3   OH268100   6.468   1.562  15.331 -0.0181 -0.4318 -0.9201
15562TIP3    H168101   6.550   1.549  15.379 -0.5309  1.5568  0.5679
15562TIP3    H268102   6.412   1.490  15.359 -0.0673  0.3202  0.9865
15563TIP3   OH268103   1.630   3.661  15.328  0.0461  0.0025  0.0121
15563TIP3    H168104   1.546   3.703  15.313  0.4396  0.6493 -0.3878
15563TIP3    H268105   1.684   3.728  15.370  1.1139  0.3430 -1.8413
15564TIP3   OH268106   3.155   2.537   5.995 -0.1404  0.2064 -0.1404
15564TIP3    H168107   3.229   2.597   5.991 -1.1582  1.5164  0.1557
15564TIP3    H268108   3.144   2.519   6.088 -1.6673  1.9277  0.0399
15565TIP3   OH268109   1.526   3.032   2.369  0.2195  0.8292  0.4473
15565TIP3    H168110   1.609   3.046   2.415  0.3624 -0.9617  0.7779
15565TIP3    H268111   1.549   2.976   2.295 -1.0191 -1.5319  1.7882
15566TIP3   OH268112   3.911   4.538   4.298 -0.1275 -0.3976  0.1795
15566TIP3    H168113   3.924   4.516   4.206 -1.3893  2.2584 -0.6805
15566TIP3    H268114   3.994   4.578   4.325 -0.6834  1.3191 -0.5986
15567TIP3   OH268115   1.104   1.959  16.936  0.1509  0.6402 -0.3637
15567TIP3    H168116   1.024   2.003  16.961 -0.7347 -0.8606 -0.4806
15567TIP3    H268117   1.132   1.912  17.015 -2.3515 -3.6598 -1.8692
15568TIP3   OH268118   4.826   2.065  12.938  0.4753 -0.0676  0.2899
15568TIP3    H168119   4.810   1.982  12.894 -0.2197  0.2707 -0.1021
15568TIP3    H268120   4.853   2.125  12.869  2.3989 -0.3319  0.7767
15569TIP3   OH268121   5.180   4.221   6.798 -0.1997 -0.5588  0.0679
15569TIP3    H168122   5.160   4.135   6.761  0.3410 -0.1875 -1.1236
15569TIP3    H268123   5.252   4.255   6.743  0.7658 -0.0770  1.5805
15570TIP3   OH268124   4.223   3.408  14.011  0.3165 -0.0541  1.0179
15570TIP3    H168125   4.317   3.388  14.016  0.5154  0.2091 -1.0898
15570TIP3    H268126   4.216   3.467  13.936 -1.6061 -0.5381  0.7982
15571TIP3   OH268127   1.609   5.272  11.776 -0.1424 -0.1391 -0.2246
15571TIP3    H168128   1.647   5.188  11.802 -1.5047 -0.3780  1.0032
15571TIP3    H268129   1.682   5.334  11.782  0.7520 -1.1320 -0.6797
15572TIP3   OH268130   0.920   4.219   3.171 -0.3020  0.3361 -0.8354
15572TIP3    H168131   0.959   4.186   3.253  1.2777 -0.0010 -1.6836
15572TIP3    H268132   0.980   4.288   3.143 -0.4785  0.0184 -2.0200
15573TIP3   OH268133   6.724   6.425  17.158  0.2790 -0.1166  0.0592
15573TIP3    H168134   6.777   6.464  17.089  0.3043 -0.5590 -0.1675
15573TIP3    H268135   6.634   6.434  17.127  0.1850  0.9307  0.5884
15574TIP3   OH268136   6.025   5.401   0.464 -0.3048 -0.0562 -0.3247
15574TIP3    H168137   6.041   5.495   0.475  0.4887 -0.3608  1.2324
15574TIP3    H268138   6.100   5.359   0.507 -1.1422 -1.4228 -0.1930
15575TIP3   OH268139   3.494   6.130   1.060  0.4128  0.1469 -0.0980
15575TIP3    H168140   3.465   6.089   1.141 -1.4655  0.8244 -0.4086
15575TIP3    H268141   3.490   6.060   0.994  0.6365 -0.0527  0.0992
15576TIP3   OH268142   1.468   1.863   3.031  0.2895  0.1034 -0.1140
15576TIP3    H168143   1.491   1.906   3.113  1.5476  0.0610 -0.4365
15576TIP3    H268144   1.396   1.915   2.995 -0.0108  0.3417  0.8192
15577TIP3   OH268145   0.128   6.431   0.695  0.1778 -0.5395  0.1879
15577TIP3    H168146   0.207   6.390   0.660 -0.2306 -0.6263 -0.6546
15577TIP3    H268147   0.106   6.499   0.631  1.2940  1.5700  1.9533
15578TIP3   OH268148   5.417   1.482  12.208 -0.4681 -0.4974  0.5769
15578TIP3    H168149   5.322   1.467  12.211 -0.4917 -0.6323 -0.5200
15578TIP3    H268150   5.452   1.402  12.169  0.0833 -0.3986  0.8725
15579TIP3   OH268151   4.073   0.761   4.872 -0.3968  0.9043  0.3687
15579TIP3    H168152   4.139   0.728   4.933 -0.2223  2.0423  0.8017
15579TIP3    H268153   3.992   0.760   4.922 -0.9295 -1.4442 -0.4728
15580TIP3   OH268154   4.424   3.961   0.434  0.1563 -0.2374  0.0976
15580TIP3    H168155   4.438   4.027   0.501  0.9935  0.7971 -1.0840
15580TIP3    H268156   4.494   3.897   0.449  0.0025 -0.3068  0.5476
15581TIP3   OH268157   5.997   5.077   1.971 -0.2861  0.3726  0.3454
15581TIP3    H168158   6.050   5.095   2.048  0.0613  0.6405  0.0429
15581TIP3    H268159   6.001   4.982   1.961 -2.7334 -0.0128  2.3746
15582TIP3   OH268160   1.958   0.445   6.123 -0.2142  0.2752  0.4018
15582TIP3    H168161   1.982   0.358   6.156 -0.9852 -0.4964 -1.0169
15582TIP3    H268162   1.863   0.449   6.131 -0.2194  0.8285  0.0888
15583TIP3   OH268163   5.086   3.757  12.521 -0.0285 -0.1294 -0.3219
15583TIP3    H168164   5.146   3.803  12.579  0.0470 -0.5096 -0.0986
15583TIP3    H268165   5.087   3.808  12.440  0.5864 -0.1304 -0.3134
15584TIP3   OH268166   1.975   0.371  12.633  0.3314  0.0667 -0.3738
15584TIP3    H168167   1.987   0.412  12.547 -1.4367 -0.2997 -0.8128
15584TIP3    H268168   1.891   0.405  12.664  0.4516 -0.6444  0.7384
15585TIP3   OH268169   3.050   6.665  14.884 -0.4904  0.0519 -0.1644
15585TIP3    H168170   3.047   6.629  14.973  0.4299 -1.0534 -0.5552
15585TIP3    H268171   2.984   6.734  14.883  1.3146  1.8855  2.1596
15586TIP3   OH268172   0.201   5.040  14.508  0.2622 -0.0350 -0.0447
15586TIP3    H168173   0.227   4.993  14.588 -0.5893 -0.1064  0.1913
15586TIP3    H268174   0.171   5.126  14.540  1.3618  0.5054 -0.4306
15587TIP3   OH268175   6.646   4.042   3.050 -0.7364  0.1543  0.0916
15587TIP3    H168176   6.674   4.124   3.091 -0.6464 -0.2987  0.9439
15587TIP3    H268177   6.585   4.003   3.113 -0.9848 -0.3085 -0.4280
15588TIP3   OH268178   5.950   0.296  16.825 -0.8878 -0.1632  0.1116
15588TIP3    H168179   5.982   0.331  16.741 -0.7600 -1.6354 -0.4719
15588TIP3    H268180   5.915   0.210  16.803  0.4694 -1.1741  1.8151
15589TIP3   OH268181   2.021   0.623   1.720  0.0355  0.0806  0.2040
15589TIP3    H168182   1.963   0.557   1.683  0.2640  0.4039 -0.7787
15589TIP3    H268183   2.023   0.605   1.814 -1.3010 -0.2001  0.1842
15590TIP3   OH268184   4.692   2.581   5.857  0.3436 -0.1272  0.4871
15590TIP3    H168185   4.633   2.637   5.805  1.6648  2.2246  1.4392
15590TIP3    H268186   4.728   2.520   5.793 -1.5017 -0.2286 -0.5119
15591TIP3   OH268187   2.871   0.809  16.085 -0.2065  0.1483 -0.4066
15591TIP3    H168188   2.924   0.752  16.028 -0.1734 -0.6759  0.4446
15591TIP3    H268189   2.881   0.771  16.172 -2.6597 -0.3411 -0.3098
15592TIP3   OH268190   0.852   1.472   1.007  0.1766 -0.5035 -0.2670
15592TIP3    H168191   0.770   1.513   1.035 -0.0963 -0.6217 -0.9004
15592TIP3    H268192   0.916   1.503   1.071 -0.2161  0.1566 -0.1840
15593TIP3   OH268193   6.586   1.623   0.926 -0.3143 -0.3324 -0.1804
15593TIP3    H168194   6.604   1.706   0.971 -0.2533 -0.0250 -0.7733
15593TIP3    H268195   6.667   1.602   0.880  0.4596 -1.8946  1.7994
15594TIP3   OH268196   4.416   5.961   1.482 -0.0510 -0.4186 -0.7052
15594TIP3    H168197   4.508   5.961   1.507 -0.4433 -0.8226  0.8070
15594TIP3    H268198   4.374   6.022   1.544 -0.8823 -0.6842 -0.9930
15595TIP3   OH268199   4.938   0.368  15.469  0.4173 -0.3848  0.2186
15595TIP3    H168200   5.027   0.394  15.448  0.3044 -0.1659  0.0082
15595TIP3    H268201   4.886   0.396  15.393  0.3149 -1.3189 -0.0566
15596TIP3   OH268202   4.344   2.783   2.530  0.3742 -0.1073  0.0519
15596TIP3    H168203   4.258   2.741   2.527  0.4167 -0.2333  0.5715
15596TIP3    H268204   4.392   2.736   2.599  0.8006  0.0694 -0.1233
15597TIP3   OH268205   6.669   6.221  14.764  0.0550  0.0435 -0.6203
15597TIP3    H168206   6.639   6.277  14.693 -0.2135 -0.4589 -0.9106
15597TIP3    H268207   6.756   6.193  14.738 -0.0841 -0.2221 -0.7998
15598TIP3   OH268208   3.331   6.529  12.081  0.5761  0.0438 -0.0657
15598TIP3    H168209   3.285   6.599  12.128  1.0093 -0.1787  0.6934
15598TIP3    H268210   3.278   6.451  12.097  0.4380  0.0690 -0.3896
15599TIP3   OH268211   6.324   3.601   3.585  0.3969 -0.0597 -0.0156
15599TIP3    H168212   6.347   3.516   3.547  1.5133  0.3677 -0.3341
15599TIP3    H268213   6.319   3.584   3.679 -0.2718 -0.6734 -0.1616
15600TIP3   OH268214   1.159   6.151   4.801  0.4742  0.0443  0.0341
15600TIP3    H168215   1.209   6.111   4.873  0.4885 -1.1825 -0.6425
15600TIP3    H268216   1.218   6.146   4.726  0.2143  0.7409 -0.2114
15601TIP3   OH268217   1.676   3.554  13.320  0.4412 -0.3428  0.5275
15601TIP3    H168218   1.710   3.550  13.409  0.0284  3.0133  0.8995
15601TIP3    H268219   1.734   3.616  13.275 -0.9490  0.0470 -0.7842
15602TIP3   OH268220   4.933   2.326  11.635 -0.3193 -0.1346 -0.7656
15602TIP3    H168221   4.929   2.419  11.659  1.2903 -0.4583  0.8937
15602TIP3    H268222   5.012   2.319  11.582  0.5272 -0.8309  0.5559
15603TIP3   OH268223   6.736   0.799  12.299  0.4092  0.1859 -0.8027
15603TIP3    H168224   6.765   0.853  12.372 -1.1027  0.5734 -0.4625
15603TIP3    H268225   6.792   0.721  12.303  1.9284  1.2845 -0.7002
15604TIP3   OH268226   3.928   1.150   3.513 -0.2594  0.0077  0.1119
15604TIP3    H168227   3.870   1.198   3.454  1.5791 -0.1563 -1.9034
15604TIP3    H268228   3.959   1.076   3.460  2.8913  0.8946  0.6238
15605TIP3   OH268229   1.954   3.531  13.843 -0.0437 -0.8933  0.2336
15605TIP3    H168230   1.963   3.459  13.905  1.6984  0.2267  1.3339
15605TIP3    H268231   1.895   3.593  13.887 -1.1106 -1.4030 -0.4765
15606TIP3   OH268232   3.960   0.816  16.411 -0.0723  0.4906  0.0115
15606TIP3    H168233   3.942   0.815  16.317  0.2282 -0.3513 -0.0483
15606TIP3    H268234   4.041   0.765  16.420 -0.0240  0.6886  0.7063
15607TIP3   OH268235   3.597   1.505  11.503  0.2510 -0.6141 -0.1801
15607TIP3    H168236   3.529   1.512  11.571 -0.4289 -1.7842 -0.7275
15607TIP3    H268237   3.623   1.413  11.505  1.7955 -0.1749 -0.0143
15608TIP3   OH268238   1.088   6.284  17.236 -0.5338  0.3683  0.4988
15608TIP3    H168239   1.173   6.256  17.202 -2.4606 -2.3863 -2.3193
15608TIP3    H268240   1.087   6.251  17.326  1.5951  0.9486  0.7597
15609TIP3   OH268241   2.272   0.884  13.213 -0.7441  0.7398 -0.3068
15609TIP3    H168242   2.338   0.953  13.204 -1.4486  1.3725 -0.7151
15609TIP3    H268243   2.302   0.831  13.287  0.3205  0.9006 -0.6091
15610TIP3   OH268244   2.974   3.107   0.024  0.0077 -0.4442  0.6774
15610TIP3    H168245   2.930   3.053   0.089  0.2602 -1.3041  0.1465
15610TIP3    H268246   3.022   3.045  -0.030 -2.3288 -0.0532 -2.0013
15611TIP3   OH268247   0.303   3.016   4.781  0.3827  0.3237 -0.1487
15611TIP3    H168248   0.298   2.975   4.867  0.1156 -0.0769 -0.3543
15611TIP3    H268249   0.388   2.989   4.747  0.0439 -0.3760 -0.4428
15612TIP3   OH268250   1.261   1.646   0.358  0.0488  0.0202  0.2085
15612TIP3    H168251   1.294   1.570   0.406 -1.5329  0.3002  1.7630
15612TIP3    H268252   1.182   1.615   0.315  0.0019  0.4900 -0.0405
15613TIP3   OH268253   1.497   0.192   1.615  0.3744 -0.3758  0.1665
15613TIP3    H168254   1.557   0.209   1.542  1.8270 -1.1858  1.1628
15613TIP3    H268255   1.464   0.103   1.599  1.2614 -0.8362  0.8933
15614TIP3   OH268256   0.537   5.655  11.221 -0.6915  0.4995  0.3108
15614TIP3    H168257   0.557   5.748  11.216 -0.0078  0.4946  2.3929
15614TIP3    H268258   0.557   5.621  11.134  0.5164  2.0376 -0.0259
15615TIP3   OH268259   6.783   3.674   2.021 -0.2411 -0.0109  0.4396
15615TIP3    H168260   6.852   3.621   1.983  0.2583  1.6052 -0.9665
15615TIP3    H268261   6.721   3.611   2.057  0.7916 -1.5070 -0.3640
15616TIP3   OH268262   2.799   3.399   1.981 -0.2293  0.2766 -0.2498
15616TIP3    H168263   2.774   3.478   2.030  0.0847  1.2199 -1.5869
15616TIP3    H268264   2.739   3.331   2.013 -0.8763  1.1911  0.5132
15617TIP3   OH268265   3.040   4.379  13.792 -0.2886  0.1236 -0.4040
15617TIP3    H168266   3.057   4.465  13.830 -1.3071 -0.5593  1.6859
15617TIP3    H268267   3.036   4.394  13.698  0.0444  2.2673 -0.0965
15618TIP3   OH268268   4.671   4.629  16.264  0.2083  0.0084  0.0622
15618TIP3    H168269   4.749   4.644  16.210 -0.4474  2.0818 -0.3326
15618TIP3    H268270   4.630   4.551  16.225  1.6457 -0.6322 -0.2040
15619TIP3   OH268271   1.664   6.280   3.487 -0.4745 -0.0127 -0.3299
15619TIP3    H168272   1.671   6.338   3.411 -0.7513 -0.8013 -0.9701
15619TIP3    H268273   1.738   6.219   3.477 -0.1304  0.2839  0.3868
15620TIP3   OH268274   1.005   6.562  12.152 -0.7200 -0.0665 -0.5158
15620TIP3    H168275   0.922   6.592  12.188 -0.6446  1.5809 -1.6341
15620TIP3    H268276   1.008   6.468  12.171 -1.8150  0.2852  1.4735
15621TIP3   OH268277   1.960   2.396   0.814  0.2090  0.3041  0.3168
15621TIP3    H168278   1.922   2.357   0.893 -0.3372  1.1270  0.4698
15621TIP3    H268279   2.020   2.463   0.847  0.6194  0.0764  0.0425
15622TIP3   OH268280   2.705   5.384  15.668  0.0555 -0.4953 -0.1414
15622TIP3    H168281   2.693   5.315  15.603  2.3590  0.4442 -1.6554
15622TIP3    H268282   2.783   5.356  15.718  0.4922  0.5781 -0.2164
15623TIP3   OH268283   5.964   2.674  11.084  0.0719 -0.6719 -0.3742
15623TIP3    H168284   6.043   2.654  11.032  0.2337 -1.8954  0.3121
15623TIP3    H268285   5.970   2.768  11.101  0.9313 -0.5875 -1.0643
15624TIP3   OH268286   5.801   5.452  11.729 -0.4804  0.3724 -0.0341
15624TIP3    H168287   5.823   5.397  11.653 -0.3865  0.5221 -0.1156
15624TIP3    H268288   5.885   5.483  11.761 -0.4792 -0.1395  0.4748
15625TIP3   OH268289   3.495   1.218   0.423 -0.2170 -0.3522 -0.1142
15625TIP3    H168290   3.574   1.197   0.372  2.7757  2.1611  3.2206
15625TIP3    H268291   3.451   1.134   0.434  4.5697 -2.7877  1.9624
15626TIP3   OH268292   5.632   1.740   4.575  0.1117 -0.2708 -0.3302
15626TIP3    H168293   5.644   1.719   4.482  0.6442 -0.3936 -0.2335
15626TIP3    H268294   5.582   1.822   4.575  0.6467  0.0571 -0.7256
15627TIP3   OH268295   5.452   5.800   2.467  0.0804  0.2454 -0.2334
15627TIP3    H168296   5.541   5.817   2.436 -0.0189  1.0852 -0.0828
15627TIP3    H268297   5.398   5.864   2.420 -0.2585  0.6083  0.6372
15628TIP3   OH268298   5.059   0.731   4.287  0.0354  0.4455  0.1350
15628TIP3    H168299   5.043   0.639   4.306  1.5832  0.7152  3.0792
15628TIP3    H268300   4.977   0.775   4.309 -0.1563 -0.0172  0.3449
15629TIP3   OH268301   1.904   3.482  16.065 -0.6476 -0.3964 -0.1340
15629TIP3    H168302   1.903   3.578  16.073 -1.5083 -0.5296  1.4702
15629TIP3    H268303   1.853   3.464  15.986  1.6625  0.5816 -1.9212
15630TIP3   OH268304   0.578   2.991  13.040 -0.9237  0.1622  0.1175
15630TIP3    H168305   0.537   2.968  12.956 -0.3358 -1.1391  0.1877
15630TIP3    H268306   0.653   3.045  13.015 -0.0009 -1.2860 -0.2736
15631TIP3   OH268307   3.011   3.476   1.003 -0.7662 -0.3899  0.7059
15631TIP3    H168308   3.054   3.404   1.049  1.9165  0.2779 -0.6823
15631TIP3    H268309   3.044   3.470   0.913 -2.1055  1.3276  0.0783
15632TIP3   OH268310   2.292   4.910  16.315 -0.2714  0.5747  0.7125
15632TIP3    H168311   2.352   4.972  16.273 -0.8616  0.4364 -0.3635
15632TIP3    H268312   2.263   4.954  16.394 -2.9376  2.9341 -1.4708
15633TIP3   OH268313   5.616   5.257   2.224  0.4245  0.4437  0.3971
15633TIP3    H168314   5.657   5.306   2.297  0.2702 -0.7195  1.2767
15633TIP3    H268315   5.688   5.206   2.187 -0.3064 -2.0580  2.3206
15634TIP3   OH268316   6.015   3.313   1.085  0.4261  0.1269 -0.0630
15634TIP3    H168317   5.930   3.333   1.046  0.5099 -0.0053 -0.3129
15634TIP3    H268318   5.997   3.240   1.145  0.3397  0.1826 -0.0207
15635TIP3   OH268319   5.480   2.896   2.483  0.0984 -0.0703 -0.0780
15635TIP3    H168320   5.453   2.976   2.437 -1.2383 -0.6401 -0.3133
15635TIP3    H268321   5.565   2.874   2.444  0.4442  1.1986 -0.0542
15636TIP3   OH268322   6.710   6.487  12.461 -0.2959 -0.2388 -0.3439
15636TIP3    H168323   6.792   6.516  12.500 -0.6265  0.4442 -0.1378
15636TIP3    H268324   6.658   6.456  12.536 -1.0314  1.3198 -0.1953
15637TIP3   OH268325   3.591   0.599   2.396  0.0353 -0.1199 -0.4789
15637TIP3    H168326   3.501   0.592   2.364  0.0040 -1.6079 -0.1135
15637TIP3    H268327   3.630   0.514   2.376  1.3503  0.4824 -0.5638
15638TIP3   OH268328   6.117   2.873   4.237 -0.5550 -0.0381  0.1095
15638TIP3    H168329   6.053   2.854   4.306  0.7719 -0.0634  1.3565
15638TIP3    H268330   6.081   2.831   4.159 -1.0806 -1.7644  1.2450
15639TIP3   OH268331   6.552   4.961  11.405  0.0338 -0.5985 -0.4792
15639TIP3    H168332   6.579   4.884  11.354  0.7709 -0.9051  0.3444
15639TIP3    H268333   6.490   5.007  11.349 -0.3624 -1.7604 -1.0202
15640TIP3   OH268334   0.937   3.156  11.601 -0.6968 -0.0945  0.6599
15640TIP3    H168335   0.997   3.094  11.643  0.3258  0.4937  0.1095
15640TIP3    H268336   0.986   3.238  11.599 -0.1044 -0.4271 -2.9007
15641TIP3   OH268337   6.516   2.865  12.078 -0.6322  0.2045 -0.2141
15641TIP3    H168338   6.566   2.946  12.086  2.1232 -1.6377  1.9831
15641TIP3    H268339   6.553   2.821  12.001 -1.9810  0.8863 -1.2770
15642TIP3   OH268340   0.611   3.437   5.586  0.1025 -0.6808 -0.1767
15642TIP3    H168341   0.696   3.449   5.545  0.2836  0.0776  0.4101
15642TIP3    H268342   0.616   3.350   5.625  1.3228  0.1181  1.5145
15643TIP3   OH268343   4.351   0.606   3.821  0.3083 -0.2441  0.1283
15643TIP3    H168344   4.388   0.518   3.826  1.2984  0.1521 -0.1276
15643TIP3    H268345   4.423   0.664   3.846 -0.2389  0.5191 -0.0488
15644TIP3   OH268346   0.620   5.683   0.920 -0.1974  0.3928 -0.4049
15644TIP3    H168347   0.689   5.627   0.886  0.5906  1.7186 -1.0515
15644TIP3    H268348   0.594   5.737   0.845  0.1764  1.9705  0.5692
15645TIP3   OH268349   1.801   5.162   0.320 -0.3121 -0.3965  0.1863
15645TIP3    H168350   1.730   5.145   0.383  1.1765  1.0173  2.2907
15645TIP3    H268351   1.761   5.146   0.234 -2.7936 -0.9427  1.3996
15646TIP3   OH268352   6.159   0.710   0.567 -0.6644  0.1756  0.1137
15646TIP3    H168353   6.104   0.670   0.500  0.7399  0.0143 -0.9707
15646TIP3    H268354   6.097   0.749   0.629 -1.9932 -0.2536 -0.9192
15647TIP3   OH268355   4.781   0.979   2.965 -0.4065  0.1901 -0.0750
15647TIP3    H168356   4.772   1.066   2.925 -1.3395  0.1349 -0.0034
15647TIP3    H268357   4.874   0.972   2.986  0.0164  0.3960 -1.8118
15648TIP3   OH268358   4.887   4.791   3.276  0.4621 -0.1156  0.0526
15648TIP3    H168359   4.809   4.757   3.319  0.1934 -2.3823 -2.1079
15648TIP3    H268360   4.854   4.855   3.213  0.5814  0.6843  0.7842
15649TIP3   OH268361   6.190   3.690  15.019  0.9248  0.5771  0.0053
15649TIP3    H168362   6.169   3.657  15.106  2.3274 -0.0459  0.1118
15649TIP3    H268363   6.106   3.691  14.974  0.5768 -1.5619  0.5278
15650TIP3   OH268364   0.734   4.764   5.614  0.5623  0.4438  0.8323
15650TIP3    H168365   0.714   4.702   5.684  2.9132 -0.6807  0.5344
15650TIP3    H268366   0.783   4.714   5.550 -0.6112  1.7400 -1.1425
15651TIP3   OH268367   4.216   2.497  10.557  0.7177  0.1714 -0.3900
15651TIP3    H168368   4.133   2.488  10.604  1.2697 -0.2408  0.5120
15651TIP3    H268369   4.210   2.433  10.486 -0.0513  0.6807 -0.7840
15652TIP3   OH268370   3.107   2.262  13.006  0.1011  0.2115 -0.1352
15652TIP3    H168371   3.044   2.300  13.067  2.0354  2.9342  0.2810
15652TIP3    H268372   3.076   2.290  12.920  0.7891  1.6717  0.0786
15653TIP3   OH268373   2.012   1.538  12.778 -0.2593  0.4085 -0.2316
15653TIP3    H168374   1.943   1.601  12.802 -1.9327 -1.4115 -0.1493
15653TIP3    H268375   1.965   1.458  12.757  1.8081 -0.6436 -0.9977
15654TIP3   OH268376   0.215   6.333   1.239  0.2371  0.2524 -0.3197
15654TIP3    H168377   0.200   6.331   1.145  2.0878 -0.3947 -0.6332
15654TIP3    H268378   0.234   6.425   1.259 -0.1112  0.3809 -0.5806
15655TIP3   OH268379   1.022   5.598  12.853  0.3416  0.1505 -0.1721
15655TIP3    H168380   0.968   5.621  12.778  0.1933 -0.5790 -0.2908
15655TIP3    H268381   1.111   5.624  12.827  0.4052 -0.7293 -0.8881
15656TIP3   OH268382   3.164   6.619   0.860  0.3147  0.6135  0.4020
15656TIP3    H168383   3.101   6.590   0.926  1.1835 -1.2961  0.4062
15656TIP3    H268384   3.128   6.703   0.829 -1.1078  0.5918  1.9024
15657TIP3   OH268385   1.303   2.164   1.312  0.0528 -0.6208 -0.1098
15657TIP3    H168386   1.353   2.163   1.230 -0.0439 -0.2385 -0.1719
15657TIP3    H268387   1.234   2.229   1.297  1.2005  0.8687  0.9941
15658TIP3   OH268388   5.995   3.794  14.544  0.8083  0.7759  0.1418
15658TIP3    H168389   5.900   3.782  14.556  0.7060 -0.0800 -1.3131
15658TIP3    H268390   6.002   3.836  14.458  1.6973  2.1514  0.8686
15659TIP3   OH268391   5.509   5.544   1.499 -0.3588 -0.1464 -0.1947
15659TIP3    H168392   5.469   5.457   1.494 -0.0957 -0.4292  2.1099
15659TIP3    H268393   5.588   5.531   1.551  1.7684  0.7859 -3.0617
15660TIP3   OH268394   5.216   2.374   3.901  0.6660 -0.1766 -0.3808
15660TIP3    H168395   5.132   2.419   3.907  0.7071 -0.3509  1.5788
15660TIP3    H268396   5.197   2.297   3.846 -0.5948 -0.5193  0.5053
15661TIP3   OH268397   1.171   4.415  15.449 -0.2140  0.5698  0.0468
15661TIP3    H168398   1.171   4.356  15.524  1.4976  0.7368  0.1928
15661TIP3    H268399   1.106   4.378  15.389 -1.2898  0.2091  1.4147
15662TIP3   OH268400   6.559   4.330   3.991  0.2473 -0.3001 -0.0458
15662TIP3    H168401   6.556   4.409   4.045  0.6812  0.0333 -0.5117
15662TIP3    H268402   6.565   4.362   3.901  1.0482 -0.8722 -0.1964
15663TIP3   OH268403   3.507   6.562   5.850  0.0333  0.0928  0.2318
15663TIP3    H168404   3.515   6.479   5.897  0.3787 -0.8621 -1.4532
15663TIP3    H268405   3.591   6.572   5.806 -0.8188  0.1803 -1.4102
15664TIP3   OH268406   4.430   0.016  10.875  0.2820 -0.0340 -0.3830
15664TIP3    H168407   4.516  -0.017  10.851 -0.2537 -1.9858  0.2495
15664TIP3    H268408   4.421   0.099  10.827  3.0519  0.9101  0.6284
15665TIP3   OH268409   4.516   4.467  11.772 -0.4735 -0.1118 -0.0710
15665TIP3    H168410   4.423   4.487  11.756 -0.8052 -0.7108  1.0643
15665TIP3    H268411   4.552   4.546  11.811  0.2722  1.2618 -3.3998
15666TIP3   OH268412   0.046   2.631  13.775 -0.3084 -0.1069  0.4408
15666TIP3    H168413  -0.041   2.664  13.751  0.3676  0.7676 -0.8073
15666TIP3    H268414   0.085   2.603  13.693  0.6634 -0.3562  0.9828
15667TIP3   OH268415   3.683   2.361   4.120  0.4266 -0.0602 -0.8349
15667TIP3    H168416   3.672   2.364   4.215  1.1238 -1.4466 -0.6956
15667TIP3    H268417   3.753   2.423   4.102  2.0109 -1.5951 -0.1428
15668TIP3   OH268418   5.251   1.320   2.996 -0.9909  0.0074 -0.2191
15668TIP3    H168419   5.233   1.373   3.073  0.2773 -1.9014  1.4291
15668TIP3    H268420   5.336   1.352   2.965  0.0406 -1.4269  1.1065
15669TIP3   OH268421   5.125   3.106  12.361  0.4917  0.6673 -0.2416
15669TIP3    H168422   5.103   3.179  12.303 -0.4988 -0.6839 -1.6098
15669TIP3    H268423   5.078   3.031  12.324  1.4321 -0.6539  1.1813
15670TIP3   OH268424   5.940   4.613   1.254 -0.2159  0.2122 -0.3145
15670TIP3    H168425   5.888   4.685   1.219  0.2100  0.5002 -0.3595
15670TIP3    H268426   6.006   4.596   1.186 -1.2694 -1.2424 -0.9923
15671TIP3   OH268427   3.226   2.623   2.650  0.5050  0.1422 -0.5660
15671TIP3    H168428   3.264   2.563   2.713 -0.4153  1.2161  1.0476
15671TIP3    H268429   3.205   2.702   2.700 -0.3845  0.9687 -2.1677
15672TIP3   OH268430   0.555   0.444  16.555  0.8141 -0.2713  0.0596
15672TIP3    H168431   0.644   0.418  16.530  1.3553 -2.3463  3.8894
15672TIP3    H268432   0.503   0.364  16.543 -0.4230  0.7070 -1.3292
15673TIP3   OH268433   2.436   2.553   6.737  0.1899 -0.6799 -0.1086
15673TIP3    H168434   2.350   2.580   6.704  0.1675 -1.6436 -0.8863
15673TIP3    H268435   2.424   2.461   6.761  0.6362 -0.4223  1.1248
15674TIP3   OH268436   5.213   0.204   2.461 -0.1646 -0.3010  0.0497
15674TIP3    H168437   5.268   0.139   2.419 -0.6854  1.4571 -3.6111
15674TIP3    H268438   5.269   0.282   2.468 -0.7636  0.0865  0.5775
15675TIP3   OH268439   0.729   4.826   6.539 -0.6054  0.3779 -0.1548
15675TIP3    H168440   0.638   4.854   6.551 -1.1600 -0.9253 -1.1744
15675TIP3    H268441   0.724   4.754   6.476  1.0235 -0.4863  0.6722
15676TIP3   OH268442   1.302   4.041  12.078 -0.2966 -0.3588  0.3596
15676TIP3    H168443   1.300   4.041  12.174  1.7376 -0.4065  0.4143
15676TIP3    H268444   1.342   3.958  12.054 -0.6364 -0.2697 -0.5396
15677TIP3   OH268445   0.710   4.948  13.950 -0.1438 -0.3979 -0.3119
15677TIP3    H168446   0.732   4.855  13.958 -1.8598 -0.8136 -0.2429
15677TIP3    H268447   0.770   4.992  14.009  0.8730 -1.4353 -0.5475
15678TIP3   OH268448   2.765   6.753  13.756 -0.1217  0.0757 -0.3096
15678TIP3    H168449   2.709   6.757  13.834 -0.1938 -1.9565 -0.2477
15678TIP3    H268450   2.706   6.727  13.686  0.5239 -0.9414 -0.4699
15679TIP3   OH268451   2.729   1.060  16.394 -0.4373 -0.4925  0.0693
15679TIP3    H168452   2.713   0.966  16.394 -0.4588 -0.4995  1.2895
15679TIP3    H268453   2.692   1.091  16.477  0.8063  0.3597  0.3334
15680TIP3   OH268454   2.714   3.401   6.262 -0.7272 -0.2018 -0.0779
15680TIP3    H168455   2.640   3.449   6.299 -1.0282  0.4056 -1.4216
15680TIP3    H268456   2.679   3.314   6.243 -0.3423 -0.7949  1.8019
15681TIP3   OH268457   4.889   6.272  11.759 -0.6822  0.1634 -0.2809
15681TIP3    H168458   4.800   6.240  11.747 -0.7160 -0.0371  0.4877
15681TIP3    H268459   4.928   6.268  11.672 -1.0979 -0.7205 -0.4296
15682TIP3   OH268460   2.411   0.440  12.199 -0.2714  0.6704 -0.3634
15682TIP3    H168461   2.381   0.352  12.175 -3.2055  0.8795  2.2666
15682TIP3    H268462   2.349   0.499  12.156 -0.5284  1.2973  0.8334
15683TIP3   OH268463   6.585   2.257  16.005 -0.4037  0.0573  0.0997
15683TIP3    H168464   6.617   2.297  16.086 -0.8718 -0.4830  0.5592
15683TIP3    H268465   6.625   2.170  16.003 -2.0468 -0.7446  0.8393
15684TIP3   OH268466   1.683   0.811  11.053 -0.2446  0.1390 -0.0544
15684TIP3    H168467   1.654   0.791  10.964 -1.2908 -0.1805  0.3514
15684TIP3    H268468   1.779   0.806  11.049 -0.2758  0.3504 -1.2117
15685TIP3   OH268469   2.809   0.179   3.478  0.4851 -0.5197 -0.2979
15685TIP3    H168470   2.853   0.123   3.414  0.5284 -0.0440 -0.6855
15685TIP3    H268471   2.736   0.126   3.510  0.6454 -0.8730 -0.5139
15686TIP3   OH268472   5.925   5.433   1.343  0.4076 -0.9339 -0.0609
15686TIP3    H168473   5.883   5.515   1.316  0.1010 -0.8584  0.6422
15686TIP3    H268474   5.877   5.405   1.421  0.7983 -1.5515 -0.0339
15687TIP3   OH268475   1.406   2.242  11.087 -0.1962  0.2491 -0.0285
15687TIP3    H168476   1.465   2.238  11.012 -1.0235 -1.5486 -0.6140
15687TIP3    H268477   1.454   2.292  11.153  0.7881  1.3085 -1.5235
15688TIP3   OH268478   1.834   4.291  10.627 -0.4406 -0.1436 -0.0045
15688TIP3    H168479   1.769   4.296  10.697 -1.7557 -2.1814 -1.0318
15688TIP3    H268480   1.917   4.278  10.673 -1.3426 -1.8060  1.1886
15689TIP3   OH268481   0.126   2.894  11.139  0.0757 -0.1077  0.1916
15689TIP3    H168482   0.114   2.978  11.094  1.0993 -0.0688 -0.0157
15689TIP3    H268483   0.044   2.847  11.125 -0.0012  0.3197 -0.8364
15690TIP3   OH268484   4.372   3.130   4.780 -0.1149 -0.2159  0.7902
15690TIP3    H168485   4.292   3.137   4.833 -0.1030  0.1165  0.7621
15690TIP3    H268486   4.409   3.218   4.780  0.7991 -0.5993  1.6408
15691TIP3   OH268487   3.544   4.465   3.655 -0.5686 -0.2568 -0.4203
15691TIP3    H168488   3.487   4.394   3.685 -1.6786  0.2478 -1.3079
15691TIP3    H268489   3.575   4.507   3.736 -0.4089 -1.3414  0.0923
15692TIP3   OH268490   3.813   3.244  15.188 -0.1240 -0.0657  0.3298
15692TIP3    H168491   3.806   3.150  15.204  0.9296 -0.3978 -1.1288
15692TIP3    H268492   3.729   3.269  15.151 -0.5264 -0.3597  1.0335
15693TIP3   OH268493   5.302   1.901   2.619 -0.0627  0.0685 -0.7237
15693TIP3    H168494   5.256   1.940   2.694 -0.0192 -0.3164 -0.4955
15693TIP3    H268495   5.303   1.970   2.553 -0.7848  0.1495 -0.6548
15694TIP3   OH268496   1.617   0.099  15.788 -0.4236  0.1536  0.7554
15694TIP3    H168497   1.654   0.076  15.873  0.5245 -0.3010  0.2191
15694TIP3    H268498   1.690   0.094  15.727 -1.1994  0.0154 -0.1782
15695TIP3   OH268499   2.840   5.386   4.544 -0.2913  0.4547  0.5002
15695TIP3    H168500   2.819   5.310   4.489 -2.8522  2.5716 -1.6061
15695TIP3    H268501   2.833   5.353   4.633 -3.0866 -1.4019 -0.3167
15696TIP3   OH268502   1.658   6.636   4.020  0.4324 -0.2041 -0.6356
15696TIP3    H168503   1.668   6.541   4.009  2.5684 -0.0974  0.2681
15696TIP3    H268504   1.659   6.649   4.115  0.5781  0.7664 -0.7701
15697TIP3   OH268505   4.579   1.132  11.818  0.3438 -0.0660 -0.4692
15697TIP3    H168506   4.550   1.124  11.727  2.3351 -0.2676 -1.1060
15697TIP3    H268507   4.556   1.221  11.844  2.3522  0.9638 -2.1232
15698TIP3   OH268508   2.323   1.221   0.102 -0.5414 -0.4962  0.3292
15698TIP3    H168509   2.374   1.140   0.096  1.2867  0.6187  0.3638
15698TIP3    H268510   2.286   1.220   0.190  2.5546  0.4355  1.7303
15699TIP3   OH268511   0.726   2.053  11.881  0.6456 -0.3175  0.1835
15699TIP3    H168512   0.674   2.055  11.800  0.8751  0.0761  0.0446
15699TIP3    H268513   0.801   1.997  11.860 -0.0348 -1.3974  0.5769
15700TIP3   OH268514   2.026   3.693  15.525 -0.2654  0.3694  0.2572
15700TIP3    H168515   1.955   3.738  15.571 -1.2067  0.4315 -1.2380
15700TIP3    H268516   2.106   3.736  15.556 -0.7779 -0.3402  2.6912
15701TIP3   OH268517   5.208   4.900  11.798 -0.3387  0.2633 -0.2043
15701TIP3    H168518   5.161   4.982  11.785 -0.2109  0.3772  0.0327
15701TIP3    H268519   5.227   4.868  11.710  1.2466  1.4385 -0.2974
15702TIP3   OH268520   4.019   0.295   3.641  0.3669 -0.4847  0.1547
15702TIP3    H168521   4.010   0.298   3.736 -0.5185  0.1003  0.0565
15702TIP3    H268522   4.107   0.330   3.624  0.5542 -0.6528  0.7538
15703TIP3   OH268523   3.459   3.780  13.970  0.3586  0.8344  0.0122
15703TIP3    H168524   3.448   3.859  13.917  0.5809  0.2227 -0.9503
15703TIP3    H268525   3.442   3.708  13.910  0.2700  0.1384  0.8594
15704TIP3   OH268526   2.037   1.904   6.334  0.2430 -0.2307  0.3684
15704TIP3    H168527   1.982   1.974   6.369 -1.3075 -0.8880 -0.7054
15704TIP3    H268528   2.085   1.945   6.262 -0.3872 -0.1699 -0.0221
15705TIP3   OH268529   2.265   3.452   5.849 -0.1730  0.4426  0.0534
15705TIP3    H168530   2.312   3.470   5.931 -0.3733  1.1698  0.0097
15705TIP3    H268531   2.318   3.495   5.782 -0.8042  1.1189 -0.0188
15706TIP3   OH268532   2.627   3.216  15.934  0.3288  0.5624 -0.1365
15706TIP3    H168533   2.682   3.294  15.924  1.3818 -0.1841 -0.2265
15706TIP3    H268534   2.674   3.161  15.996 -0.4733  0.0457  0.0206
15707TIP3   OH268535   4.776   5.414   2.167 -0.1120 -0.0980 -0.6446
15707TIP3    H168536   4.787   5.380   2.255 -0.5290  0.1913 -0.4799
15707TIP3    H268537   4.733   5.343   2.119  0.6660 -0.4785 -0.7727
15708TIP3   OH268538   3.455   4.667   0.445  0.2529 -0.5556  0.4299
15708TIP3    H168539   3.436   4.576   0.423  1.2715 -1.0907  1.6535
15708TIP3    H268540   3.476   4.665   0.539  0.8512  0.8404  0.3423
15709TIP3   OH268541   3.907   5.177  15.045 -0.1822  0.4088 -0.3024
15709TIP3    H168542   3.816   5.207  15.052 -0.3222 -0.3278  1.3708
15709TIP3    H268543   3.949   5.240  14.986 -1.1263  2.3268  1.0175
15710TIP3   OH268544   2.984   0.685  12.796  0.1908 -0.5912  0.4384
15710TIP3    H168545   2.974   0.699  12.890 -1.1930  0.5371  0.1415
15710TIP3    H268546   2.985   0.590  12.786 -0.9346 -0.7271  1.4695
15711TIP3   OH268547   5.172   6.606  13.149  0.0704  0.3123 -0.3657
15711TIP3    H168548   5.205   6.516  13.146  0.1168  0.3393 -0.6824
15711TIP3    H268549   5.115   6.614  13.073  1.4964  1.1000 -1.3752
15712TIP3   OH268550   2.215   3.463  12.442 -0.4975  0.0980 -0.0538
15712TIP3    H168551   2.168   3.417  12.372 -1.2558  0.9755 -0.1217
15712TIP3    H268552   2.297   3.491  12.401 -1.0827  0.8930 -0.6760
15713TIP3   OH268553   5.141   0.450  14.499 -0.1554  0.0622 -0.0746
15713TIP3    H168554   5.214   0.484  14.448 -1.6237  2.6245 -0.5767
15713TIP3    H268555   5.178   0.430  14.585  1.0455  1.8815 -0.1443
15714TIP3   OH268556   4.633   6.538   4.710 -0.4380  0.0178 -0.4160
15714TIP3    H168557   4.701   6.577   4.765  0.5866 -1.5218 -0.5471
15714TIP3    H268558   4.679   6.510   4.631 -1.3631 -0.4152 -0.8116
15715TIP3   OH268559   2.356   2.618   5.998 -0.6930  0.1361 -0.3544
15715TIP3    H168560   2.279   2.674   5.999 -0.8897 -0.1464  0.2178
15715TIP3    H268561   2.330   2.543   5.944  0.1429  1.3973 -2.5844
15716TIP3   OH268562   0.081   2.524   0.922  0.3013 -0.3201 -0.2129
15716TIP3    H168563   0.151   2.557   0.978  2.7894 -3.7115 -1.1537
15716TIP3    H268564   0.089   2.574   0.841 -0.3418  1.3958  0.7723
15717TIP3   OH268565   2.907   2.375   4.667 -0.4148 -0.3520 -0.3221
15717TIP3    H168566   2.932   2.314   4.597 -0.2941 -1.6141  0.7942
15717TIP3    H268567   2.828   2.417   4.635  0.7927  0.6071 -2.1062
15718TIP3   OH268568   1.002   6.506  16.163  0.4034 -0.2147  0.1154
15718TIP3    H168569   0.914   6.474  16.142  0.2903  1.6116 -2.4137
15718TIP3    H268570   1.025   6.563  16.090  3.4616 -0.1635  1.0421
15719TIP3   OH268571   6.554   6.123  15.640  0.6395 -0.1773  0.1770
15719TIP3    H168572   6.611   6.145  15.566 -0.5460  0.5997 -0.5302
15719TIP3    H268573   6.496   6.055  15.606  0.2570 -0.0031  0.4789
15720TIP3   OH268574   3.524   2.866   1.969 -0.8532 -0.9845 -0.1771
15720TIP3    H168575   3.575   2.829   2.041 -2.3750 -0.1746  1.3644
15720TIP3    H268576   3.517   2.795   1.905  2.1398 -1.1131 -0.4209
15721TIP3   OH268577   4.969   0.209   5.801 -0.4577 -0.0430 -0.3137
15721TIP3    H168578   5.064   0.218   5.807 -0.5296 -0.4271  1.7637
15721TIP3    H268579   4.934   0.293   5.828 -0.7148  0.1016 -1.0855
15722TIP3   OH268580   6.505   3.800   2.584 -0.4918 -0.0370 -0.5879
15722TIP3    H168581   6.539   3.729   2.529  0.9005  0.0909  0.0936
15722TIP3    H268582   6.570   3.869   2.577 -1.1722  0.6495 -0.1546
15723TIP3   OH268583   1.756   2.224   4.366 -0.1005 -0.1735  0.4107
15723TIP3    H168584   1.827   2.189   4.313 -0.3588  0.0755 -0.0992
15723TIP3    H268585   1.779   2.315   4.380 -0.7380  0.1263 -0.4654
15724TIP3   OH268586   3.479   5.384   6.466  0.0672  0.3828 -0.8159
15724TIP3    H168587   3.508   5.294   6.484  0.9223  0.5081 -1.5192
15724TIP3    H268588   3.558   5.437   6.477 -0.6728  1.1840  0.6062
15725TIP3   OH268589   0.506   2.871   2.532 -0.4036 -0.1536 -0.3593
15725TIP3    H168590   0.558   2.904   2.605 -0.0263  1.7274 -1.4285
15725TIP3    H268591   0.424   2.921   2.537  0.1040  0.8804 -1.9100
15726TIP3   OH268592   5.867   4.403   4.014  0.4489  0.0506  0.9335
15726TIP3    H168593   5.836   4.325   3.967  0.8257 -0.7421  1.9716
15726TIP3    H268594   5.797   4.467   4.004  0.4363 -0.1821 -0.5208
15727TIP3   OH268595   4.963   0.264   6.098  1.2052  0.0391 -0.3141
15727TIP3    H168596   5.015   0.213   6.034  0.7322  0.0105 -0.6793
15727TIP3    H268597   4.934   0.199   6.162  0.2918 -0.2253 -0.9835
15728TIP3   OH268598   3.345   4.296  15.726  0.0100 -0.2352  0.5903
15728TIP3    H168599   3.332   4.250  15.809  2.0214 -0.7065  0.6838
15728TIP3    H268600   3.276   4.362  15.724 -0.5538 -0.7383  2.2650
15729TIP3   OH268601   2.013   2.821  14.065  1.0533  0.2076  0.2766
15729TIP3    H168602   2.085   2.882  14.081  0.6218  0.8458 -0.1445
15729TIP3    H268603   2.028   2.749  14.126  2.6797 -0.2374 -0.6349
15730TIP3   OH268604   4.057   6.694  16.507 -0.0621  0.0325  0.4127
15730TIP3    H168605   4.060   6.668  16.599  1.3049  0.4514  0.5007
15730TIP3    H268606   4.070   6.612  16.458 -0.8406 -0.1979  0.5882
15731TIP3   OH268607   4.662   2.136   5.117  0.4245  0.8793  0.2655
15731TIP3    H168608   4.719   2.212   5.099 -0.3833  1.8138  1.5805
15731TIP3    H268609   4.585   2.151   5.063  1.2783 -0.2457 -1.3018
15732TIP3   OH268610   3.216   5.824   0.054  0.5270  0.0239 -0.6477
15732TIP3    H168611   3.152   5.753   0.041  0.3519  0.1830 -0.6641
15732TIP3    H268612   3.301   5.782   0.041  0.5788 -0.8841  2.2790
15733TIP3   OH268613   1.973   3.355   2.060 -0.1106  0.5157  0.4211
15733TIP3    H168614   1.880   3.334   2.060 -0.4407  1.8862 -0.3680
15733TIP3    H268615   2.002   3.336   2.149 -1.9689  3.5364  1.7721
15734TIP3   OH268616   0.903   3.453   4.284  0.5730 -0.0463 -0.1103
15734TIP3    H168617   0.865   3.470   4.370  0.5244  1.3488 -0.3992
15734TIP3    H268618   0.835   3.405   4.237  0.5011 -0.5875  0.5359
15735TIP3   OH268619   3.618   1.708  15.651  0.6479  0.3802 -0.6682
15735TIP3    H168620   3.591   1.667  15.569 -0.5764  1.0348 -0.6108
15735TIP3    H268621   3.701   1.666  15.673 -1.6083 -3.7375  0.5618
15736TIP3   OH268622   4.096   3.640  11.326  0.3829  0.5583  0.1632
15736TIP3    H168623   4.045   3.688  11.260  0.0984 -0.0029 -0.0284
15736TIP3    H268624   4.048   3.653  11.407 -0.0731  0.0186 -0.0206
15737TIP3   OH268625   4.871   2.528   1.015 -0.7385 -0.4133 -0.0205
15737TIP3    H168626   4.915   2.538   1.100  0.9859 -1.7342 -0.7214
15737TIP3    H268627   4.804   2.596   1.015 -0.0323  0.3377  1.9433
15738TIP3   OH268628   3.035   1.595   3.080 -0.4462 -0.3777  0.2944
15738TIP3    H168629   2.980   1.670   3.056 -0.0460 -0.0102  0.5332
15738TIP3    H268630   3.016   1.581   3.173 -0.4600 -0.5218  0.2694
15739TIP3   OH268631   3.848   0.339  13.646 -0.0338 -0.2963  0.1140
15739TIP3    H168632   3.832   0.264  13.588  1.0906  0.1427 -0.7838
15739TIP3    H268633   3.803   0.412  13.603  0.3849 -0.0779  0.0447
15740TIP3   OH268634   1.155   1.996   4.727  0.0514 -0.0219 -0.0675
15740TIP3    H168635   1.061   1.985   4.716  0.0522 -0.2990  0.1858
15740TIP3    H268636   1.190   1.991   4.638 -0.1989  0.3357 -0.1834
15741TIP3   OH268637   2.580   1.139  13.527  0.1956  0.0448  0.4014
15741TIP3    H168638   2.652   1.078  13.544 -0.5836 -0.7563  0.8754
15741TIP3    H268639   2.617   1.205  13.468  0.8120 -1.3547 -0.7860
15742TIP3   OH268640   1.997   1.103   1.160  0.6640  0.1918 -0.3301
15742TIP3    H168641   1.954   1.175   1.114  0.8818 -0.1598 -1.0993
15742TIP3    H268642   2.087   1.105   1.127  0.7245 -0.2964 -0.1861
15743TIP3   OH268643   6.175   1.732   1.069  0.8479 -0.6810  0.1726
15743TIP3    H168644   6.095   1.772   1.102  1.2099 -1.0417  1.5206
15743TIP3    H268645   6.229   1.806   1.041  1.0989 -0.2709  1.7014
15744TIP3   OH268646   6.567   4.761  15.212 -0.1031 -0.3441 -0.5245
15744TIP3    H168647   6.635   4.713  15.163  1.1243  1.2046 -0.3914
15744TIP3    H268648   6.567   4.721  15.299  1.2286  0.1747 -0.2741
15745TIP3   OH268649   3.556   4.475   6.101  0.3414  0.0721  0.2253
15745TIP3    H168650   3.533   4.388   6.135  0.1069 -0.3271 -0.9241
15745TIP3    H268651   3.604   4.516   6.172 -1.1162 -0.3135  1.4536
15746TIP3   OH268652   6.347   4.379   0.405 -0.4410 -0.6484  0.1989
15746TIP3    H168653   6.351   4.471   0.379 -2.2724 -0.7663 -0.6186
15746TIP3    H268654   6.437   4.348   0.399  0.3776  1.3428  1.4745
15747TIP3   OH268655   5.958   1.932  16.638 -0.0245 -0.0338 -0.8780
15747TIP3    H168656   6.031   1.971  16.589  0.1523  0.6169 -0.1068
15747TIP3    H268657   5.885   1.992  16.624  0.1358  0.3695 -0.0277
15748TIP3   OH268658   2.943   1.685  12.001 -1.4460 -0.2089 -0.6711
15748TIP3    H168659   2.997   1.607  12.008 -2.0477 -0.6248 -0.6473
15748TIP3    H268660   2.941   1.706  11.908 -0.1173  0.6059 -0.5243
15749TIP3   OH268661   4.695   0.110  16.263  0.2791 -0.1650  0.0650
15749TIP3    H168662   4.650   0.055  16.199  1.3844 -0.6415 -0.3173
15749TIP3    H268663   4.626   0.139  16.323 -0.3239 -2.0085  0.2989
15750TIP3   OH268664   1.346   0.501   4.916 -0.4597  0.2022  0.2064
15750TIP3    H168665   1.339   0.595   4.898 -2.9703  0.1244  0.5914
15750TIP3    H268666   1.330   0.459   4.831 -0.7831  0.0918  0.3215
15751TIP3   OH268667   0.924   6.297   4.742 -0.5763  0.6203 -0.3761
15751TIP3    H168668   0.903   6.272   4.652  0.0713 -1.4054 -0.0108
15751TIP3    H268669   0.998   6.240   4.765 -0.6696  1.1874  1.3966
15752TIP3   OH268670   0.307   2.535   4.358 -0.1873 -0.2319  0.4002
15752TIP3    H168671   0.297   2.606   4.422  0.8798  1.3079 -1.1010
15752TIP3    H268672   0.317   2.580   4.274 -0.9813 -2.2153 -0.7697
15753TIP3   OH268673   4.139   0.056   0.303  0.3784  0.7735  0.7645
15753TIP3    H168674   4.044   0.059   0.312  0.4915 -0.4435  2.4693
15753TIP3    H268675   4.162  -0.037   0.311  1.6294  0.9442 -0.5463
15754TIP3   OH268676   1.910   6.768   1.117 -0.5346 -0.0956 -0.4392
15754TIP3    H168677   1.927   6.861   1.128 -0.8869 -0.2317  1.3550
15754TIP3    H268678   1.995   6.730   1.093 -0.1374  0.4946  0.0384
15755TIP3   OH268679   2.403   5.240  15.601 -0.0496  0.3035  0.1021
15755TIP3    H168680   2.489   5.247  15.561 -0.5387 -1.2585 -1.2713
15755TIP3    H268681   2.409   5.161  15.656 -0.8031 -0.1943 -0.5281
15756TIP3   OH268682   5.492   2.404  15.128  0.6072  0.0923  0.5116
15756TIP3    H168683   5.397   2.402  15.119  0.7207 -2.9527 -0.2380
15756TIP3    H268684   5.509   2.365  15.214  1.2305  0.3153  0.4961
15757TIP3   OH268685   2.925   6.192   2.425 -0.0962 -0.2247 -0.3674
15757TIP3    H168686   2.979   6.268   2.403 -1.1345  0.0006 -2.2274
15757TIP3    H268687   2.837   6.228   2.435 -0.3268 -0.9607  0.2877
15758TIP3   OH268688   1.033   4.506  13.931 -0.2258  0.4670  0.6442
15758TIP3    H168689   1.092   4.543  13.997 -1.1801  2.0724  0.6308
15758TIP3    H268690   1.092   4.474  13.863  0.6836  0.9648  1.1714
15759TIP3   OH268691   6.007   3.354   5.781  0.1938 -0.1389 -0.1850
15759TIP3    H168692   5.931   3.393   5.736  1.3452  0.3843 -1.7232
15759TIP3    H268693   6.028   3.276   5.730  1.6853  0.6070 -0.7275
15760TIP3   OH268694   5.155   4.466   3.350  0.6535 -0.1239  0.0432
15760TIP3    H168695   5.150   4.558   3.323  0.9137  0.6637  2.5808
15760TIP3    H268696   5.189   4.469   3.439  1.4767 -2.7504 -0.1501
15761TIP3   OH268697   2.206   5.095  13.791  0.1532  0.0874 -0.0368
15761TIP3    H168698   2.144   5.093  13.864  0.0169  2.0006 -0.0830
15761TIP3    H268699   2.159   5.053  13.719 -0.3236 -0.3318  0.5171
15762TIP3   OH268700   0.355   2.104   2.984  0.5996  0.2273 -0.2155
15762TIP3    H168701   0.273   2.150   2.999  0.3783  0.0005 -0.7176
15762TIP3    H268702   0.385   2.133   2.898 -0.0289 -1.2562 -0.9640
15763TIP3   OH268703   2.670   4.983  16.661 -0.2335  0.2425 -0.6553
15763TIP3    H168704   2.621   4.961  16.581  0.1148 -1.5801 -0.3825
15763TIP3    H268705   2.755   5.014  16.629 -0.9696  1.8916 -1.0692
15764TIP3   OH268706   2.142   6.785  12.153  0.2268  0.3572  0.0514
15764TIP3    H168707   2.170   6.801  12.244 -1.7070 -2.1458  1.1480
15764TIP3    H268708   2.160   6.692  12.139  2.1822  1.1051 -2.7920
15765TIP3   OH268709   6.354   2.869  16.757 -0.3990 -0.1341  0.0326
15765TIP3    H168710   6.302   2.807  16.708 -0.9731  1.4035 -1.3412
15765TIP3    H268711   6.442   2.831  16.759 -1.0402 -1.6302  0.4094
15766TIP3   OH268712   0.284   4.063  14.720  0.1015  0.1354 -0.2692
15766TIP3    H168713   0.340   4.100  14.788  0.9200 -1.2642 -0.1557
15766TIP3    H268714   0.195   4.085  14.747  0.3561 -1.3388  1.8293
15767TIP3   OH268715   1.649   3.172   0.643  0.2279 -0.1856  0.1212
15767TIP3    H168716   1.699   3.203   0.719  1.5986 -1.5948 -0.2150
15767TIP3    H268717   1.695   3.094   0.613 -0.8922 -0.2176 -1.5608
15768TIP3   OH268718   5.646   3.337   2.510  0.4724 -0.3248 -0.3460
15768TIP3    H168719   5.680   3.261   2.558  0.6656  0.2793  0.4878
15768TIP3    H268720   5.655   3.410   2.572 -1.0125  0.1145 -0.6458
15769TIP3   OH268721   4.412   3.296   1.061  0.8619  0.8507 -0.6653
15769TIP3    H168722   4.341   3.251   1.106  0.7495 -0.7864 -2.4402
15769TIP3    H268723   4.460   3.340   1.131 -1.9461  2.1103  0.5419
15770TIP3   OH268724   2.274   1.274   0.714 -0.1464 -0.2082  0.7876
15770TIP3    H168725   2.236   1.276   0.626 -0.4627 -3.1672  0.8020
15770TIP3    H268726   2.358   1.230   0.703  0.3378  0.4319  1.8132
15771TIP3   OH268727   0.574   2.914  13.854  0.2534  0.6396 -0.3618
15771TIP3    H168728   0.642   2.924  13.788  0.1971  1.2859 -0.3203
15771TIP3    H268729   0.501   2.967  13.822 -0.1142  0.2097 -0.2433
15772TIP3   OH268730   4.484   0.034   2.662 -0.2535 -0.3728 -0.2242
15772TIP3    H168731   4.521   0.115   2.628  0.1796 -0.7550 -0.6551
15772TIP3    H268732   4.503   0.037   2.756  1.4800 -0.9004 -0.5539
15773TIP3   OH268733   4.043   0.013   3.861  0.2190 -0.1698 -0.2297
15773TIP3    H168734   3.964  -0.029   3.826  0.0532  0.8380 -1.0809
15773TIP3    H268735   4.012   0.096   3.897  0.4618 -0.9977  1.9582
15774TIP3   OH268736   0.676   2.516   2.176  0.1131 -0.3361 -0.4114
15774TIP3    H168737   0.665   2.572   2.099  2.9122  0.2074 -0.4831
15774TIP3    H268738   0.635   2.566   2.247 -0.2044  0.3486 -1.0626
15775TIP3   OH268739   3.470   1.613   4.455  0.3330  0.0623 -0.1259
15775TIP3    H168740   3.388   1.566   4.468 -0.1128  1.0361  0.6872
15775TIP3    H268741   3.462   1.651   4.368 -0.9480  1.7981  0.7082
15776TIP3   OH268742   2.888   0.865  11.263  0.5368 -0.0171 -0.0524
15776TIP3    H168743   2.829   0.927  11.220  1.5583  0.0908 -1.3482
15776TIP3    H268744   2.896   0.896  11.353  0.1868  1.1024 -0.4060
15777TIP3   OH268745   6.172   3.577   5.543 -0.0320 -0.0756  0.0330
15777TIP3    H168746   6.147   3.548   5.455 -1.2037 -1.0681  0.6889
15777TIP3    H268747   6.233   3.510   5.574  1.3570  0.9111 -0.4772
15778TIP3   OH268748   3.643   4.400  14.612 -0.2831 -0.0694  0.3825
15778TIP3    H168749   3.716   4.416  14.671  0.2342 -0.3097 -0.1848
15778TIP3    H268750   3.662   4.454  14.535 -2.3125  2.3691  1.5133
15779TIP3   OH268751   4.750   6.524  16.498 -0.0461 -0.6164 -0.0379
15779TIP3    H168752   4.765   6.431  16.515 -0.7014 -0.4991  1.2535
15779TIP3    H268753   4.838   6.560  16.486  0.2128 -1.4061 -0.5731
15780TIP3   OH268754   1.781   5.502   5.040 -0.2030 -0.0523  0.5722
15780TIP3    H168755   1.741   5.511   4.954 -2.1611  2.5525  1.6624
15780TIP3    H268756   1.777   5.409   5.060 -1.4502 -0.4266 -1.3528
15781TIP3   OH268757   4.849   3.098   1.989  0.5245  0.3977 -0.6559
15781TIP3    H168758   4.801   3.024   1.951  0.8661  0.7629 -1.7918
15781TIP3    H268759   4.782   3.149   2.035  0.3783 -0.9498  0.6781
15782TIP3   OH268760   1.384   2.887  13.924  0.0030 -0.0639 -0.2855
15782TIP3    H168761   1.320   2.815  13.925  0.1340 -0.1727  0.9763
15782TIP3    H268762   1.356   2.945  13.995  0.0422  1.0174 -1.1444
15783TIP3   OH268763   2.393   5.369   4.955  0.0399 -0.0030  0.3794
15783TIP3    H168764   2.438   5.366   5.039  0.1031  1.6324  0.4236
15783TIP3    H268765   2.303   5.345   4.974 -0.1339  1.1785  1.0570
15784TIP3   OH268766   0.294   2.722   4.554  0.1746 -0.2148 -0.0637
15784TIP3    H168767   0.229   2.791   4.545 -0.2933 -0.4878  1.1149
15784TIP3    H268768   0.251   2.654   4.606  1.4589 -0.3037  0.9181
15785TIP3   OH268769   3.497   5.696  16.631 -0.0903  0.3169  0.0012
15785TIP3    H168770   3.480   5.765  16.696 -0.2933  0.1793  0.0949
15785TIP3    H268771   3.424   5.705  16.569 -0.4635 -0.2243  0.3609
15786TIP3   OH268772   0.544   5.846   4.154 -0.0861 -0.2108  0.1763
15786TIP3    H168773   0.494   5.906   4.209 -1.4163 -0.7674 -0.4133
15786TIP3    H268774   0.597   5.796   4.216  0.6047  1.1514  0.7180
15787TIP3   OH268775   3.739   6.119  13.525  0.6353  0.5926 -0.2861
15787TIP3    H168776   3.821   6.117  13.477  0.5012  1.1794 -0.5465
15787TIP3    H268777   3.707   6.209  13.515  0.8392  0.8610  1.3025
15788TIP3   OH268778   1.672   6.773   4.904  0.0990 -0.9535  0.0902
15788TIP3    H168779   1.702   6.703   4.845  0.0886 -1.6280  0.8724
15788TIP3    H268780   1.608   6.730   4.961 -1.4968  0.1895 -0.7963
15789TIP3   OH268781   4.775   0.387   3.604 -0.3022  0.2401 -0.3250
15789TIP3    H168782   4.721   0.446   3.655  0.0182  0.8218 -0.6560
15789TIP3    H268783   4.865   0.411   3.628 -0.1864 -0.8248  0.3455
15790TIP3   OH268784   1.453   4.706  12.455  0.5435 -0.4840  0.1286
15790TIP3    H168785   1.478   4.674  12.542 -3.7152  0.5918  1.8584
15790TIP3    H268786   1.421   4.628  12.409  1.1076 -0.7316  0.1499
15791TIP3   OH268787   2.082   1.478  12.074 -0.1624 -0.0443 -0.8829
15791TIP3    H168788   2.122   1.398  12.109  0.6406  0.3553 -0.8667
15791TIP3    H268789   1.995   1.480  12.112 -0.3823 -1.1943 -1.3057
15792TIP3   OH268790   2.521   3.685   5.012  0.1789 -0.7686 -0.4074
15792TIP3    H168791   2.469   3.659   4.936 -1.4096  0.8613  0.0969
15792TIP3    H268792   2.522   3.781   5.008  0.9423 -0.7131  1.0542
15793TIP3   OH268793   3.713   0.077   0.573 -0.2564 -0.2349  0.1003
15793TIP3    H168794   3.711   0.052   0.665 -0.6201  0.0750  0.1786
15793TIP3    H268795   3.654   0.014   0.530 -2.3360  1.3877  0.5275
15794TIP3   OH268796   3.425   1.285  17.018 -0.4680 -0.9963  0.2067
15794TIP3    H168797   3.518   1.283  17.041 -0.3607 -1.6375 -0.2687
15794TIP3    H268798   3.389   1.358  17.069  0.2260 -0.9562  0.6443
15795TIP3   OH268799   5.337   4.875   3.445 -0.0837  0.3517  0.1056
15795TIP3    H168800   5.259   4.820   3.437 -0.2220  0.7710 -1.4954
15795TIP3    H268801   5.404   4.829   3.395  0.1584  0.9970 -0.1570
15796TIP3   OH268802   3.891   6.028  12.370 -0.2444  0.4014 -0.4073
15796TIP3    H168803   3.882   6.035  12.275  0.1615  1.4039 -0.3775
15796TIP3    H268804   3.901   6.119  12.400 -1.2585  0.1643  0.6828
15797TIP3   OH268805   3.331   2.982   1.807 -0.0577 -0.4563 -0.0242
15797TIP3    H168806   3.409   2.993   1.862  1.1904 -2.3799 -1.3185
15797TIP3    H268807   3.265   2.945   1.866  0.9668 -1.6174  0.4350
15798TIP3   OH268808   6.468   3.340  13.031  0.0096  0.2180  0.2845
15798TIP3    H168809   6.558   3.369  13.046  0.4401 -1.7444  1.6446
15798TIP3    H268810   6.470   3.298  12.945 -0.0196  1.7520 -0.4798
15799TIP3   OH268811   4.047   4.053   2.274  0.2409 -0.1812 -0.2343
15799TIP3    H168812   4.109   4.116   2.238  0.6232  0.4936  1.5514
15799TIP3    H268813   4.090   3.968   2.265  0.0106 -0.1221 -2.0132
15800TIP3   OH268814   1.963   4.927  14.266 -0.2647 -0.4511  0.0366
15800TIP3    H168815   2.013   4.989  14.319  0.8274 -0.7306 -0.6604
15800TIP3    H268816   1.972   4.843  14.311  1.5750 -0.9218 -1.1368
15801TIP3   OH268817   5.740   1.069  13.484 -0.3488 -0.0726  0.5680
15801TIP3    H168818   5.721   0.994  13.540  0.1111 -0.4717  0.1859
15801TIP3    H268819   5.795   1.126  13.538 -0.3276 -0.2178  0.7005
15802TIP3   OH268820   1.674   3.115  11.982 -0.5501 -0.0008  0.7967
15802TIP3    H168821   1.636   3.201  11.966 -0.9594 -0.2371  0.4999
15802TIP3    H268822   1.639   3.060  11.912  0.5997 -0.1395  0.3190
15803TIP3   OH268823   4.519   0.244  16.444  0.0344  0.5902  0.2572
15803TIP3    H168824   4.535   0.247  16.538 -1.7112 -2.1978  0.6892
15803TIP3    H268825   4.424   0.250  16.436  0.1201  0.0884 -1.2910
15804TIP3   OH268826   4.648   0.407  14.455  0.1432 -0.1310 -0.4348
15804TIP3    H168827   4.592   0.329  14.455  0.3100 -0.2569 -1.2963
15804TIP3    H268828   4.710   0.392  14.527  1.2575 -1.5990 -1.6595
15805TIP3   OH268829   6.493   6.164   2.171 -0.5185 -0.1182 -0.0747
15805TIP3    H168830   6.557   6.094   2.183  1.9524  2.2873  1.3205
15805TIP3    H268831   6.444   6.138   2.093  0.1658 -3.4819  0.5327
15806TIP3   OH268832   5.427   0.158   2.722  0.1271  0.1579  0.0863
15806TIP3    H168833   5.390   0.220   2.784 -0.4962 -1.7912  1.7271
15806TIP3    H268834   5.429   0.205   2.639  1.2695  2.9357  1.6143
15807TIP3   OH268835   5.598   6.737   3.352  0.1586  0.2718 -0.3468
15807TIP3    H168836   5.565   6.799   3.286 -2.0811 -0.7958 -0.2958
15807TIP3    H268837   5.552   6.762   3.433 -1.2548 -1.8077 -0.4694
15808TIP3   OH268838   5.716   0.134   2.391 -0.0669 -0.3751 -0.1481
15808TIP3    H168839   5.740   0.205   2.449 -0.4120 -1.3622  1.2276
15808TIP3    H268840   5.786   0.069   2.401 -0.1500 -0.5698 -0.7940
15809TIP3   OH268841   4.312   6.050   5.095  0.3754 -0.1854 -0.2099
15809TIP3    H168842   4.245   6.104   5.052  1.3649  0.7111 -0.6572
15809TIP3    H268843   4.312   6.081   5.186 -1.7703 -2.1328  0.5151
15810TIP3   OH268844   3.888   4.067   1.705  0.0287 -0.1101  0.0568
15810TIP3    H168845   3.877   3.978   1.737 -1.3611  0.5167  1.4442
15810TIP3    H268846   3.935   4.112   1.776  1.5367  0.0369 -1.0238
15811TIP3   OH268847   5.757   1.942  16.380 -0.3505 -0.1334  1.1742
15811TIP3    H168848   5.705   1.989  16.446 -1.1388  1.1100 -0.3096
15811TIP3    H268849   5.777   2.008  16.314 -0.4858 -1.6076 -0.3768
15812TIP3   OH268850   4.606   3.034   1.616 -0.0639  0.0071 -0.0004
15812TIP3    H168851   4.546   3.095   1.659 -0.6786  0.8584 -2.0071
15812TIP3    H268852   4.549   2.976   1.565  0.5803 -1.6762  1.1297
15813TIP3   OH268853   5.381   1.398   0.267 -0.8767  0.0931 -0.1975
15813TIP3    H168854   5.404   1.323   0.212 -0.9373 -0.5120  0.6001
15813TIP3    H268855   5.462   1.447   0.276 -0.7658 -0.0383 -0.4680
15814TIP3   OH268856   6.393   1.286  16.673 -0.4340 -0.2703 -0.0713
15814TIP3    H168857   6.368   1.372  16.641 -2.0667 -1.1039 -1.0887
15814TIP3    H268858   6.400   1.231  16.595  0.0572 -1.2001  0.6033
15815TIP3   OH268859   3.743   2.220   2.306  0.4120 -0.8695  0.3629
15815TIP3    H168860   3.680   2.269   2.252 -0.1306 -1.3411  0.5621
15815TIP3    H268861   3.829   2.244   2.271  0.1082 -0.3893 -0.0552
15816TIP3   OH268862   0.328   1.809   3.235  0.5003  0.0137  0.0592
15816TIP3    H168863   0.301   1.901   3.232  0.0748 -0.1166 -0.1050
15816TIP3    H268864   0.257   1.762   3.192  1.8012 -0.1449 -1.9534
15817TIP3   OH268865   1.052   0.856   5.322 -0.5644 -0.4516  0.1701
15817TIP3    H168866   1.110   0.875   5.395 -0.5784  1.1734 -0.2356
15817TIP3    H268867   0.964   0.863   5.359 -0.5638  0.0719  0.0792
15818TIP3   OH268868   6.183   0.262   4.143  0.0410 -0.2173 -0.4067
15818TIP3    H168869   6.190   0.308   4.059 -1.8373  0.0698 -0.4438
15818TIP3    H268870   6.265   0.281   4.188  0.0585  1.6628 -1.1744
15819TIP3   OH268871   3.578   3.360   3.636  0.0971  0.3846 -0.0880
15819TIP3    H168872   3.638   3.288   3.653 -1.0961 -0.3398  1.1869
15819TIP3    H268873   3.501   3.319   3.596 -0.5399  0.9519  0.5323
15820TIP3   OH268874   2.822   0.893   3.270 -0.0390  0.2693 -0.7374
15820TIP3    H168875   2.877   0.971   3.269  0.4130 -0.0462 -1.2282
15820TIP3    H268876   2.874   0.828   3.317  0.1178 -0.1055 -1.4223
15821TIP3   OH268877   6.011   2.960   0.980  0.2944 -0.4844 -0.2806
15821TIP3    H168878   5.951   2.908   1.033  0.5336 -0.9302 -0.4535
15821TIP3    H268879   6.094   2.957   1.028 -0.2200  1.4697  0.8214
15822TIP3   OH268880   0.879   1.633  13.862 -0.2628  0.1025 -0.3919
15822TIP3    H168881   0.930   1.661  13.938  1.2446  2.1410 -2.0901
15822TIP3    H268882   0.798   1.683  13.868 -1.2009 -1.5719  1.1749
15823TIP3   OH268883   5.273   1.567   0.768  0.6227  0.2501  0.1252
15823TIP3    H168884   5.221   1.486   0.771  2.7180 -1.1042  1.2053
15823TIP3    H268885   5.223   1.629   0.821 -0.9271 -0.3644 -0.5737
15824TIP3   OH268886   0.824   0.417  14.705  0.0648 -0.0581  0.0563
15824TIP3    H168887   0.822   0.387  14.614  1.7569  1.2663 -0.4367
15824TIP3    H268888   0.757   0.485  14.709  1.4375  1.3846 -0.7788
15825TIP3   OH268889   3.728   0.605  14.424  0.0711 -0.2518 -0.2389
15825TIP3    H168890   3.659   0.640  14.366 -0.0035  0.8212  0.4742
15825TIP3    H268891   3.769   0.683  14.461 -0.9646 -0.9270  2.4093
15826TIP3   OH268892   1.274   0.016  11.553  0.0442  0.1939 -0.7145
15826TIP3    H168893   1.322   0.038  11.473  0.7134  2.6652  0.3150
15826TIP3    H268894   1.187  -0.010  11.522  0.9204 -0.8315 -2.3606
15827TIP3   OH268895   6.739   2.040  14.851 -0.5477  0.3380 -0.5464
15827TIP3    H168896   6.765   2.130  14.835  0.8093  0.2377  0.9100
15827TIP3    H268897   6.716   2.038  14.944 -1.4661 -0.6103 -0.7823
15828TIP3   OH268898   0.423   6.223   3.894  0.3877  0.7965  0.0956
15828TIP3    H168899   0.439   6.302   3.842  1.7586  2.1027  2.3999
15828TIP3    H268900   0.442   6.250   3.984  0.8929 -2.1840  0.9203
15829TIP3   OH268901   1.438   6.344  13.831 -0.0291  0.2091  0.7049
15829TIP3    H168902   1.430   6.334  13.736  3.3792 -0.6287  0.4617
15829TIP3    H268903   1.352   6.318  13.865 -1.5984  1.3634 -2.1636
15830TIP3   OH268904   0.239   4.938  12.706 -0.1643 -0.4750 -0.1419
15830TIP3    H168905   0.325   4.918  12.669  1.0350  2.3569  1.0101
15830TIP3    H268906   0.204   5.007  12.649 -0.8768 -0.3016  0.5011
15831TIP3   OH268907   3.999   0.499   1.149 -0.4165 -0.1368 -0.2889
15831TIP3    H168908   4.064   0.436   1.119 -0.6111  0.2856 -1.6285
15831TIP3    H268909   3.917   0.450   1.152 -0.0062 -0.7403  1.6613
15832TIP3   OH268910   0.159   6.200  13.605 -0.5850 -0.0013 -0.0850
15832TIP3    H168911   0.145   6.139  13.534  0.1756 -0.1151 -0.1476
15832TIP3    H268912   0.084   6.188  13.663 -0.3383 -1.1360  0.0071
15833TIP3   OH268913   2.572   0.742   0.478 -0.2946  0.4626 -0.2309
15833TIP3    H168914   2.541   0.655   0.504  1.0418 -0.5072 -1.7822
15833TIP3    H268915   2.542   0.753   0.388  0.0347  1.3681 -0.2385
15834TIP3   OH268916   2.576   1.587  16.712 -0.1259  0.2333  0.2679
15834TIP3    H168917   2.643   1.629  16.766 -0.4378  1.8468 -0.5468
15834TIP3    H268918   2.525   1.535  16.773  0.4530  0.8205  1.2710
15835TIP3   OH268919   2.521   2.119   0.487  0.8015 -0.2366 -0.0896
15835TIP3    H168920   2.487   2.162   0.566  0.9432 -0.4445  0.0860
15835TIP3    H268921   2.529   2.027   0.512  1.0375 -0.2679 -0.2847
15836TIP3   OH268922   5.759   4.046  12.510  0.1181  0.7144 -0.0020
15836TIP3    H168923   5.847   4.057  12.474  0.7497  0.5165  1.4441
15836TIP3    H268924   5.722   4.134  12.509  0.5107  0.8796 -0.1648
15837TIP3   OH268925   2.984   5.972   4.004 -0.9024 -0.2262  0.2645
15837TIP3    H168926   3.046   5.930   3.945 -1.2545  0.8864 -0.9266
15837TIP3    H268927   2.973   5.910   4.076  2.0896 -0.1703  0.8458
15838TIP3   OH268928   5.497   6.757  11.583  0.3341  0.4706 -0.2497
15838TIP3    H168929   5.493   6.794  11.494  0.8703  2.0320  0.3574
15838TIP3    H268930   5.418   6.790  11.626  0.5145  0.4327  0.1087
15839TIP3   OH268931   5.996   4.260   1.827 -0.1445  0.2783 -0.6808
15839TIP3    H168932   5.954   4.304   1.754  0.2617 -1.1104 -1.7813
15839TIP3    H268933   5.964   4.170   1.823  0.8874 -0.1397  0.0587
15840TIP3   OH268934   4.650   1.153  16.555  0.6053 -0.0457 -0.2044
15840TIP3    H168935   4.656   1.242  16.591 -0.9217  0.2953 -0.7584
15840TIP3    H268936   4.712   1.102  16.607  0.7858  1.1418  0.7625
15841TIP3   OH268937   6.434   2.025  17.110  0.7730 -0.4850 -0.4834
15841TIP3    H168938   6.378   1.947  17.100 -0.5779  0.3610  0.2309
15841TIP3    H268939   6.432   2.043  17.204  0.0492  1.1354 -0.7889
15842TIP3   OH268940   2.378   5.788  16.507  0.9188 -0.3056 -0.4260
15842TIP3    H168941   2.434   5.720  16.544  0.1328  0.0140  1.3731
15842TIP3    H268942   2.426   5.870  16.524 -0.1193 -0.0238  1.1975
15843TIP3   OH268943   5.872   4.149  14.418 -0.3988  0.1293 -0.0630
15843TIP3    H168944   5.930   4.089  14.371  1.6296  0.2666  2.1606
15843TIP3    H268945   5.930   4.219  14.449 -1.8167  0.4784  1.9043
15844TIP3   OH268946   6.194   0.933  13.083 -0.1969  0.3184  0.1963
15844TIP3    H168947   6.266   0.964  13.138  0.3913 -1.3184  0.3885
15844TIP3    H268948   6.185   1.000  13.015 -0.4127  1.9736  1.8128
15845TIP3   OH268949   1.665   4.065   6.009 -0.2539 -0.7739 -0.0916
15845TIP3    H168950   1.608   4.142   6.019  0.3380  0.1368 -3.0414
15845TIP3    H268951   1.609   4.000   5.965  0.3003 -0.6811 -0.9480
15846TIP3   OH268952   5.729   1.303  12.757 -0.2243 -0.2311  0.1613
15846TIP3    H168953   5.700   1.346  12.837 -0.6944  0.0280 -0.1513
15846TIP3    H268954   5.652   1.301  12.701 -0.2007 -1.4464  0.1545
15847TIP3   OH268955   5.827   5.794   2.128 -0.6568  0.1688 -0.1437
15847TIP3    H168956   5.788   5.832   2.206  0.5395  0.0721  0.5108
15847TIP3    H268957   5.870   5.867   2.083  0.1205 -0.0681  0.1933
15848TIP3   OH268958   5.071   0.441   5.646 -0.3916 -0.6843  0.3508
15848TIP3    H168959   4.998   0.463   5.703  0.0673 -0.8480  1.0036
15848TIP3    H268960   5.029   0.415   5.563 -1.0721 -0.8414  0.7366
15849TIP3   OH268961   4.280   3.685  14.138  0.1008 -0.9182 -0.2423
15849TIP3    H168962   4.235   3.602  14.152 -0.7922 -0.8079 -2.3450
15849TIP3    H268963   4.373   3.662  14.136 -0.1979 -2.0156 -1.8610
15850TIP3   OH268964   6.615   4.295  13.981  0.4723 -0.0731  0.2297
15850TIP3    H168965   6.693   4.252  14.015  2.0248  3.0511  0.7696
15850TIP3    H268966   6.560   4.310  14.058  1.3595  1.6802  0.5596
15851TIP3   OH268967   6.608   4.740  16.199  0.3235 -0.2001 -0.2603
15851TIP3    H168968   6.607   4.736  16.103 -1.0236 -2.4788 -0.1901
15851TIP3    H268969   6.517   4.727  16.224  0.3107  2.4920  1.3281
15852TIP3   OH268970   6.268   5.934  16.693  0.6432  0.1824 -0.2797
15852TIP3    H168971   6.255   5.948  16.599  0.7902 -0.2677 -0.3635
15852TIP3    H268972   6.361   5.918  16.702  0.4572 -0.8437 -0.1860
15853TIP3   OH268973   3.879   4.841  15.550  0.3481 -0.3814 -0.1522
15853TIP3    H168974   3.822   4.778  15.505 -2.0119  1.7225 -0.2266
15853TIP3    H268975   3.864   4.924  15.504  0.1652  1.1648  2.6049
15854TIP3   OH268976   3.967   1.721  10.223  0.1102  0.2503 -0.1985
15854TIP3    H168977   4.045   1.708  10.277 -0.2602  1.0807  0.5513
15854TIP3    H268978   3.897   1.676  10.270  0.3722 -1.6088 -1.5266
15855TIP3   OH268979   6.131   0.046   5.433  0.6410 -0.1971 -0.6948
15855TIP3    H168980   6.108  -0.027   5.490  0.5720 -0.7931 -1.4607
15855TIP3    H268981   6.190   0.100   5.485  0.0137 -0.3418  0.1820
15856TIP3   OH268982   5.433   5.655   2.117  0.1925 -0.3000  0.1061
15856TIP3    H168983   5.396   5.617   2.197  0.9363 -0.6516  0.2889
15856TIP3    H268984   5.525   5.630   2.120  0.8990  2.2149  0.6560
15857TIP3   OH268985   2.355   0.357   5.749  0.2747 -0.1208 -0.1392
15857TIP3    H168986   2.303   0.310   5.684  0.6879  1.6095 -1.7693
15857TIP3    H268987   2.316   0.334   5.833 -2.4182  0.2851 -1.2511
15858TIP3   OH268988   5.666   6.339   0.460  0.1015 -0.2862 -0.3744
15858TIP3    H168989   5.590   6.289   0.489 -2.0394  1.1303 -3.2484
15858TIP3    H268990   5.675   6.409   0.524 -0.7412 -0.7334  0.2352
15859TIP3   OH268991   1.466   1.523  12.388 -0.6802 -0.3606  0.3310
15859TIP3    H168992   1.481   1.555  12.477 -1.1765 -1.2732  0.7466
15859TIP3    H268993   1.532   1.454  12.376  0.1226  0.5076 -0.4175
15860TIP3   OH268994   5.194   0.228   2.898  0.4641  0.0444  0.2464
15860TIP3    H168995   5.105   0.197   2.917  0.6195 -1.8352 -1.8497
15860TIP3    H268996   5.250   0.176   2.956  0.4853 -1.5512 -1.1785
15861TIP3   OH268997   4.578   2.560  16.452  0.0757  0.2201 -0.4793
15861TIP3    H168998   4.646   2.556  16.384  0.3842  1.6097 -0.2833
15861TIP3    H268999   4.539   2.647  16.441 -0.8414 -0.0982  0.2105
15862TIP3   OH269000   5.050   3.182   4.977 -0.4590  0.2021 -0.1053
15862TIP3    H169001   5.050   3.182   5.073 -0.3877  3.0504 -0.0596
15862TIP3    H269002   5.140   3.203   4.954 -0.3071 -1.1891 -0.8396
15863TIP3   OH269003   1.707   5.400   1.470  0.2064 -0.0800 -0.2416
15863TIP3    H169004   1.788   5.348   1.471  0.3004  0.0642 -0.3451
15863TIP3    H269005   1.651   5.354   1.407  0.7662  0.6589 -1.3025
15864TIP3   OH269006   6.424   3.356   3.441  0.2854 -0.6453 -0.0274
15864TIP3    H169007   6.493   3.340   3.506  1.0950 -2.8916 -1.3497
15864TIP3    H269008   6.353   3.298   3.468 -0.2805  0.1420  0.1668
15865TIP3   OH269009   5.889   6.471   3.039  0.4217 -0.2521  0.0045
15865TIP3    H169010   5.902   6.379   3.019  0.9393 -0.4788  1.3108
15865TIP3    H269011   5.800   6.490   3.010 -1.0670 -2.1412  3.0538
15866TIP3   OH269012   5.970   5.223   3.029 -0.4478 -0.1769 -0.1511
15866TIP3    H169013   5.919   5.153   2.989  0.9110  0.2155 -2.6741
15866TIP3    H269014   5.918   5.302   3.013 -1.7486 -0.5197  2.2701
15867TIP3   OH269015   5.777   1.324  14.348  0.2576 -0.5150 -0.0759
15867TIP3    H169016   5.693   1.319  14.302 -0.7541 -2.1830  1.8909
15867TIP3    H269017   5.770   1.403  14.401 -0.3784 -1.0387  0.6351
15868TIP3   OH269018   6.292   0.583  12.228 -0.1350 -0.5560 -0.8754
15868TIP3    H169019   6.236   0.545  12.296 -0.2713  1.9873  0.4611
15868TIP3    H269020   6.264   0.539  12.147 -1.9413 -1.5338  0.2532
15869TIP3   OH269021   6.265   4.603  15.141 -0.3134 -0.5335 -0.3556
15869TIP3    H169022   6.322   4.677  15.124 -0.1004 -0.0788  2.0834
15869TIP3    H269023   6.302   4.562  15.220 -1.9476 -1.6517 -0.1375
15870TIP3   OH269024   5.265   1.558   5.450 -0.2413  0.0398  0.1993
15870TIP3    H169025   5.233   1.569   5.360 -2.0443 -0.8326  0.7205
15870TIP3    H269026   5.253   1.644   5.490 -2.1712 -0.3229  0.4480
15871TIP3   OH269027   1.568   0.888   5.719 -0.3411 -0.0899 -0.1892
15871TIP3    H169028   1.487   0.914   5.762  0.0674 -0.5311  0.8494
15871TIP3    H269029   1.595   0.965   5.670 -0.4989  0.6001  0.8045
15872TIP3   OH269030   4.061   2.066   2.804 -0.5410 -0.4580 -0.2019
15872TIP3    H169031   4.067   2.159   2.786 -1.2505 -0.1732  0.9942
15872TIP3    H269032   4.115   2.025   2.736 -1.7718  0.6868 -1.9254
15873TIP3   OH269033   5.567   1.182   4.086  0.2930  0.2672 -1.0759
15873TIP3    H169034   5.586   1.267   4.125 -1.3276  0.7131 -1.2282
15873TIP3    H269035   5.536   1.202   3.998 -1.3769 -0.3910 -0.6511
15874TIP3   OH269036   2.511   4.951  11.145 -0.6175  0.1195  0.1913
15874TIP3    H169037   2.556   5.017  11.093  0.0172  0.4176  1.0973
15874TIP3    H269038   2.551   4.868  11.119  0.5559  0.3968  1.0848
15875TIP3   OH269039   5.938   0.654   0.400  0.1978  0.8594 -0.2133
15875TIP3    H169040   5.948   0.575   0.347  1.2218 -0.3008  1.6965
15875TIP3    H269041   5.953   0.726   0.338 -0.6400 -0.4139 -1.9312
15876TIP3   OH269042   1.549   0.363   5.045  0.1304 -0.2959  0.0864
15876TIP3    H169043   1.581   0.441   5.089 -0.1906  1.0989 -2.1111
15876TIP3    H269044   1.466   0.390   5.005  1.0258 -1.1645 -2.4323
15877TIP3   OH269045   2.504   3.931  10.948  0.0679 -0.2870  0.0618
15877TIP3    H169046   2.420   3.896  10.917 -0.8137  2.9310 -1.3914
15877TIP3    H269047   2.570   3.890  10.892 -0.8838 -0.0928 -1.2169
15878TIP3   OH269048   0.544   0.252   5.062 -0.1505  0.0504  0.8359
15878TIP3    H169049   0.489   0.176   5.077 -1.7234  0.9154 -0.4148
15878TIP3    H269050   0.550   0.259   4.967  2.3652 -0.1799  0.9218
15879TIP3   OH269051   4.996   3.078   4.488 -0.2408  0.1935  0.2958
15879TIP3    H169052   5.027   3.010   4.549 -1.1153 -1.2986 -0.8787
15879TIP3    H269053   4.901   3.064   4.484 -0.2296  0.4734 -1.1680
15880TIP3   OH269054   0.429   4.468  11.232 -0.4762 -0.0815  0.5468
15880TIP3    H169055   0.351   4.447  11.284 -0.6566 -2.5435 -0.6263
15880TIP3    H269056   0.402   4.449  11.142  1.9993 -2.7251  0.2957
15881TIP3   OH269057   5.921   2.222  11.810 -0.4502 -0.0591 -0.0354
15881TIP3    H169058   5.885   2.283  11.745  0.6967  0.8927  0.2025
15881TIP3    H269059   5.991   2.176  11.764 -0.5923 -0.4110  0.1045
15882TIP3   OH269060   2.917   2.177   1.331 -0.3297 -0.1878 -0.1373
15882TIP3    H169061   2.823   2.184   1.350 -0.3081 -0.0568 -0.0825
15882TIP3    H269062   2.960   2.200   1.413 -0.2364  0.3788 -0.3397
15883TIP3   OH269063   0.462   5.563  14.153  0.4839  0.6191  0.1986
15883TIP3    H169064   0.513   5.518  14.221  1.4054  0.7404 -0.4043
15883TIP3    H269065   0.510   5.645  14.138 -0.1038  0.9071 -0.0980
15884TIP3   OH269066   1.824   0.943   3.156  0.5010  0.1723  0.2731
15884TIP3    H169067   1.772   0.863   3.152  1.5917 -0.4790 -1.3652
15884TIP3    H269068   1.766   1.007   3.198 -0.6744 -1.2333  0.8476
15885TIP3   OH269069   1.380   5.978  14.805  0.2870  0.4030  0.9330
15885TIP3    H169070   1.329   5.955  14.882  2.5270  0.0977  2.3646
15885TIP3    H269071   1.342   6.060  14.775 -2.0750 -0.6266  0.9808
15886TIP3   OH269072   6.491   2.400  12.429 -0.1761 -0.9584 -0.0064
15886TIP3    H169073   6.565   2.426  12.374 -1.2775  1.2548 -0.4839
15886TIP3    H269074   6.531   2.362  12.507  1.5067  1.3853  0.3253
15887TIP3   OH269075   6.396   3.483  14.297 -0.1969 -0.5270  0.1920
15887TIP3    H169076   6.331   3.462  14.365 -0.5945 -2.5966 -0.7613
15887TIP3    H269077   6.381   3.416  14.230  0.3748  1.3274 -1.8087
15888TIP3   OH269078   2.132   4.293   2.577 -0.5397 -0.2176 -0.2159
15888TIP3    H169079   2.158   4.307   2.668  0.3650 -1.1752 -0.3066
15888TIP3    H269080   2.148   4.377   2.534  2.4896 -0.7631 -0.2656
15889TIP3   OH269081   1.302   0.343   1.210 -0.3429 -0.0611 -0.2716
15889TIP3    H169082   1.359   0.417   1.191  0.3070 -0.7997 -1.2427
15889TIP3    H269083   1.362   0.268   1.218 -0.8866 -0.3155  1.6869
15890TIP3   OH269084   2.172   6.146  14.127  0.1252 -0.1345 -0.2107
15890TIP3    H169085   2.250   6.142  14.073  0.3835 -0.3864  0.1801
15890TIP3    H269086   2.188   6.084  14.198 -0.5203 -0.3515 -0.2527
15891TIP3   OH269087   4.118   3.065   3.620 -0.4495 -0.1443 -0.2635
15891TIP3    H169088   4.064   2.987   3.628 -0.1222 -0.4517 -1.0179
15891TIP3    H269089   4.152   3.062   3.530 -0.4897  0.8959 -0.3208
15892TIP3   OH269090   2.093   3.157   4.135 -0.3304 -0.2340  0.1742
15892TIP3    H169091   2.179   3.192   4.157 -1.3370  2.6122 -0.0971
15892TIP3    H269092   2.094   3.067   4.166  2.1485  0.2793  1.6876
15893TIP3   OH269093   4.670   2.797  15.461 -0.3157  0.3920  0.4816
15893TIP3    H169094   4.666   2.725  15.399 -0.6195 -0.6304  1.6638
15893TIP3    H269095   4.696   2.756  15.544  0.7323  1.8290  0.8774
15894TIP3   OH269096   0.941   6.129   4.219 -0.1649 -0.0381  0.1185
15894TIP3    H169097   0.884   6.151   4.292  0.1013 -1.0962  0.6648
15894TIP3    H269098   1.001   6.203   4.212 -1.4727  0.9954 -0.3513
15895TIP3   OH269099   1.814   0.227   2.970 -0.2121 -0.3814 -0.2005
15895TIP3    H169100   1.859   0.249   3.051 -1.0328 -0.2874  0.2345
15895TIP3    H269101   1.760   0.151   2.992 -1.3079  0.3452 -0.3623
15896TIP3   OH269102   0.313   5.130   2.079  0.1254  0.0793 -0.4927
15896TIP3    H169103   0.243   5.082   2.123  0.7449 -1.5731 -1.2685
15896TIP3    H269104   0.278   5.148   1.991  0.4621 -0.2762 -0.7008
15897TIP3   OH269105   4.529   0.456   0.949 -0.2188 -0.5911 -0.2670
15897TIP3    H169106   4.598   0.395   0.923  0.7441 -0.5391  2.0882
15897TIP3    H269107   4.517   0.512   0.872  2.4212 -0.5659 -0.7153
15898TIP3   OH269108   4.738   3.886  13.411 -0.2248 -0.2799  0.2958
15898TIP3    H169109   4.654   3.923  13.382 -0.4756 -0.5482  0.6863
15898TIP3    H269110   4.785   3.961  13.448 -0.5338 -0.2515  0.6322
15899TIP3   OH269111   2.809   3.876   1.928  0.3755  0.5847 -0.2525
15899TIP3    H169112   2.861   3.905   2.003 -0.1560 -1.4154  0.9455
15899TIP3    H269113   2.718   3.888   1.954  0.1876  0.1333 -0.6685
15900TIP3   OH269114   6.107   2.665  11.719  0.1935  0.0794 -0.1128
15900TIP3    H169115   6.115   2.634  11.629  0.2810 -0.2416  0.0039
15900TIP3    H269116   6.013   2.667  11.735  0.2191 -2.8248  0.7933
15901TIP3   OH269117   1.770   0.080  16.310  0.2431  0.1559  0.3260
15901TIP3    H169118   1.804  -0.009  16.306  0.5263  0.3218 -2.3496
15901TIP3    H269119   1.847   0.135  16.324  0.1989  0.0497  0.9832
15902TIP3   OH269120   0.287   4.168   2.505 -0.2545 -0.9396  0.6398
15902TIP3    H169121   0.239   4.085   2.503 -0.1933 -0.9660  0.1698
15902TIP3    H269122   0.244   4.220   2.573 -0.7933 -1.0539  0.3870
15903TIP3   OH269123   5.748   3.992  14.833  0.4628 -0.0403 -0.5068
15903TIP3    H169124   5.830   4.041  14.833  0.0651  0.6739  0.9410
15903TIP3    H269125   5.690   4.043  14.891 -0.7794 -0.8842 -0.9845
15904TIP3   OH269126   6.451   0.527   2.155 -1.0411  0.0197  0.0253
15904TIP3    H169127   6.397   0.560   2.083 -1.3361 -0.1874  0.1491
15904TIP3    H269128   6.398   0.544   2.233 -0.6194  0.4613  0.2178
15905TIP3   OH269129   4.074   3.944  11.462 -0.0566  0.2247  0.4014
15905TIP3    H169130   4.076   3.972  11.371 -2.4108  1.5643  0.7396
15905TIP3    H269131   3.994   3.891  11.470  1.0388 -1.3675  1.2881
15906TIP3   OH269132   0.172   5.967   3.321  0.3394 -0.1514 -0.1802
15906TIP3    H169133   0.230   6.043   3.328 -0.1331  0.4874 -2.7481
15906TIP3    H269134   0.218   5.899   3.370  1.6197  1.2841  0.6936
15907TIP3   OH269135   4.901   0.702  13.445  0.6380  0.3144 -0.4726
15907TIP3    H169136   4.821   0.748  13.419  0.2266 -0.6071 -0.8809
15907TIP3    H269137   4.965   0.723  13.377 -0.2427 -1.5687 -1.9341
15908TIP3   OH269138   4.748   1.668   2.063 -0.2361  0.0383 -0.0663
15908TIP3    H169139   4.793   1.593   2.099  2.8685  0.9223 -1.9475
15908TIP3    H269140   4.664   1.633   2.032  0.7455 -2.4518 -0.0183
15909TIP3   OH269141   0.995   0.640  12.058 -1.0435 -0.6966  0.4135
15909TIP3    H169142   1.064   0.684  12.107 -0.8034 -1.9923  1.2692
15909TIP3    H269143   1.027   0.637  11.968 -1.6407  2.0077  0.0553
15910TIP3   OH269144   3.298   4.862  16.407  0.1134 -0.1303 -0.1858
15910TIP3    H169145   3.385   4.853  16.367 -0.4494  0.1405 -1.5104
15910TIP3    H269146   3.280   4.956  16.402 -0.2862 -0.1988  0.0044
15911TIP3   OH269147   4.460   6.453  12.574  0.1060 -0.2185 -0.1971
15911TIP3    H169148   4.390   6.515  12.591 -0.4853 -0.5948 -1.2784
15911TIP3    H269149   4.466   6.447  12.479  0.0513 -1.9345 -0.1085
15912TIP3   OH269150   3.177   2.777  13.477 -0.2371 -0.0068 -0.1966
15912TIP3    H169151   3.223   2.832  13.539  1.1213 -0.7434 -0.5295
15912TIP3    H269152   3.157   2.835  13.403  1.9689 -0.1512 -0.9349
15913TIP3   OH269153   2.572   4.356  16.990  0.0303  0.2105 -0.0564
15913TIP3    H169154   2.566   4.361  17.085 -0.7261 -0.8255 -0.0366
15913TIP3    H269155   2.571   4.447  16.961 -2.8789  0.4851  0.7430
15914TIP3   OH269156   1.556   3.946   3.537 -0.0222 -0.2198  0.3946
15914TIP3    H169157   1.591   3.928   3.625 -0.3282 -0.2710  0.5047
15914TIP3    H269158   1.483   4.005   3.552 -0.0260 -0.1661  0.1646
15915TIP3   OH269159   1.640   2.082  12.019 -0.2313  0.0028 -0.2583
15915TIP3    H169160   1.674   2.093  11.931 -1.2179  0.1205 -0.6356
15915TIP3    H269161   1.649   2.169  12.059  0.2390 -0.0572 -0.2372
15916TIP3   OH269162   6.225   6.115  12.332  0.6308  0.2166 -0.1022
15916TIP3    H169163   6.237   6.198  12.286 -0.6091  0.6191  0.2567
15916TIP3    H269164   6.256   6.132  12.421 -2.3260  1.2275  0.8020
15917TIP3   OH269165   0.833   5.783   1.563 -0.0528  0.0100  1.1313
15917TIP3    H169166   0.823   5.803   1.656  1.1183  1.3836  0.9910
15917TIP3    H269167   0.844   5.869   1.521  0.9382 -0.6781 -0.0598
15918TIP3   OH269168   2.982   4.683  13.581  0.1176 -0.2648 -0.4452
15918TIP3    H169169   3.075   4.705  13.574 -0.0493  0.4852 -0.3533
15918TIP3    H269170   2.952   4.730  13.659 -0.6431  0.5600 -1.2182
15919TIP3   OH269171   0.653   0.587  13.709 -0.0788  0.1045  0.0409
15919TIP3    H169172   0.680   0.677  13.724 -0.0722 -0.0658  1.0970
15919TIP3    H269173   0.735   0.537  13.711 -0.3190 -0.2530  2.0320
15920TIP3   OH269174   4.180   6.569   2.121 -0.3880  0.3556  0.3682
15920TIP3    H169175   4.215   6.657   2.110 -2.0082  0.6364 -2.9462
15920TIP3    H269176   4.245   6.525   2.175  2.1566  2.5746 -0.7559
15921TIP3   OH269177   4.074   5.648   0.575 -0.2140  0.3428 -0.2162
15921TIP3    H169178   4.122   5.685   0.500  0.4305  1.3854  0.6994
15921TIP3    H269179   4.032   5.569   0.540  0.5258  0.5219 -1.5390
15922TIP3   OH269180   1.566   6.741  15.479 -0.1708 -0.3889 -0.5589
15922TIP3    H169181   1.520   6.825  15.489  1.6868  0.5919 -0.0042
15922TIP3    H269182   1.548   6.695  15.561 -0.5548 -0.2073 -0.5377
15923TIP3   OH269183   4.872   2.250   1.505 -0.2358 -0.2464  0.3460
15923TIP3    H169184   4.880   2.346   1.508 -2.0832 -0.0333 -0.8907
15923TIP3    H269185   4.932   2.224   1.435 -3.0082  0.4557 -2.3876
15924TIP3   OH269186   3.908   5.581  14.434  0.5779  0.2022  0.0990
15924TIP3    H169187   3.992   5.535  14.439  0.2524 -0.6888 -2.0368
15924TIP3    H269188   3.844   5.518  14.466  0.5422  0.3705  0.3600
15925TIP3   OH269189   0.761   4.239   0.649 -0.4258  0.4053 -0.1294
15925TIP3    H169190   0.700   4.169   0.672  1.5210 -1.5405 -0.7518
15925TIP3    H269191   0.705   4.316   0.636 -2.8304 -1.4923 -1.3865
15926TIP3   OH269192   6.603   1.132  14.722 -0.1527 -0.5687 -0.3891
15926TIP3    H169193   6.582   1.225  14.732 -0.2647 -0.5755 -0.5665
15926TIP3    H269194   6.685   1.121  14.771 -1.6067 -0.9777  2.0125
15927TIP3   OH269195   4.249   2.454   1.399  0.6092 -0.0569  0.3827
15927TIP3    H169196   4.307   2.394   1.446  3.0618  1.6002 -0.4457
15927TIP3    H269197   4.287   2.461   1.312 -0.6023  1.4326 -0.0512
15928TIP3   OH269198   3.528   3.007  16.871 -0.2049  0.2340  0.6206
15928TIP3    H169199   3.434   2.988  16.870 -0.3964  1.1319  0.2235
15928TIP3    H269200   3.555   2.997  16.780  0.2643 -0.8528  0.8780
15929TIP3   OH269201   5.591   3.622  13.269  0.5418  0.1839  0.1400
15929TIP3    H169202   5.565   3.713  13.252 -2.0161 -0.3396  0.9934
15929TIP3    H269203   5.529   3.592  13.336  2.6426 -1.5606  1.3679
15930TIP3   OH269204   2.771   6.543  11.578  0.3625 -0.0871 -0.4169
15930TIP3    H169205   2.813   6.554  11.493 -0.8109  0.2025 -0.9705
15930TIP3    H269206   2.785   6.451  11.600  1.0908 -0.0462 -0.6973
15931TIP3   OH269207   2.752   2.968  13.784 -0.2652  0.0131  0.3714
15931TIP3    H169208   2.785   2.899  13.726  0.2682 -0.3681  1.1185
15931TIP3    H269209   2.734   3.041  13.725  0.8591 -0.1528 -0.2010
15932TIP3   OH269210   0.991   2.255  10.713  0.2000 -0.6270  0.6566
15932TIP3    H169211   0.902   2.231  10.740 -0.7389  0.3452 -1.4804
15932TIP3    H269212   1.004   2.343  10.748 -0.3822 -0.0349 -0.6081
15933TIP3   OH269213   3.592   2.441  17.228 -0.5304  0.2831 -0.2090
15933TIP3    H169214   3.523   2.495  17.268  0.5160  0.3251  1.6179
15933TIP3    H269215   3.609   2.373  17.293  0.5899 -0.2070 -1.0081
15934TIP3   OH269216   6.463   2.042   2.483 -0.0073 -0.1062  0.2938
15934TIP3    H169217   6.492   2.031   2.393  1.1005  0.1670  0.6081
15934TIP3    H269218   6.489   2.131   2.506  0.5671 -0.4878  1.1801
15935TIP3   OH269219   1.329   5.383   4.086 -0.4004  0.3857  0.0567
15935TIP3    H169220   1.315   5.408   4.177 -0.7421 -3.3161  1.0951
15935TIP3    H269221   1.241   5.374   4.049 -0.2906  0.1383 -0.1474
15936TIP3   OH269222   5.700   0.221  12.277  0.0919 -0.5387  0.3742
15936TIP3    H169223   5.633   0.152  12.283  0.0470 -0.3196  2.6701
15936TIP3    H269224   5.656   0.293  12.232 -0.0623 -1.7486 -1.4588
15937TIP3   OH269225   0.592   5.521   1.605  0.2304 -0.1959 -0.5651
15937TIP3    H169226   0.656   5.587   1.578 -1.7970  0.8816 -2.9507
15937TIP3    H269227   0.517   5.572   1.637  0.1889 -1.4303  1.4029
15938TIP3   OH269228   2.601   0.039   3.568  0.2738  0.1082  0.5472
15938TIP3    H169229   2.618  -0.050   3.598  0.2455  0.1273  0.6199
15938TIP3    H269230   2.518   0.062   3.609 -1.0544 -0.8000 -1.5687
15939TIP3   OH269231   6.028   0.564  15.492  0.4276 -0.6402  0.5029
15939TIP3    H169232   6.081   0.486  15.475  0.7267 -0.2985 -0.1773
15939TIP3    H269233   6.023   0.607  15.407 -0.8565 -0.6138  0.5798
15940TIP3   OH269234   4.605   2.635   5.592 -0.2482 -0.2029 -0.3757
15940TIP3    H169235   4.654   2.682   5.524  0.5724 -1.0543 -0.3829
15940TIP3    H269236   4.596   2.546   5.558  0.5081 -0.7404  0.7937
15941TIP3   OH269237   3.970   5.080   3.455 -0.3077 -0.0980  0.1933
15941TIP3    H169238   4.035   5.084   3.386 -0.2275 -1.2307  0.1943
15941TIP3    H269239   3.909   5.152   3.435 -1.6958 -1.9324 -2.4819
15942TIP3   OH269240   2.770   0.407   1.176  0.6935 -0.2421  0.2222
15942TIP3    H169241   2.852   0.438   1.138  0.4913 -1.1465 -0.9930
15942TIP3    H269242   2.788   0.316   1.200  0.8756  0.3813  2.4922
15943TIP3   OH269243   4.542   0.638   4.219 -0.4272  0.0051 -0.3450
15943TIP3    H169244   4.518   0.685   4.139  2.1950  1.4583 -0.3305
15943TIP3    H269245   4.526   0.546   4.198 -1.1399  0.4983 -2.0327
15944TIP3   OH269246   2.672   0.174   2.902  0.3560 -0.3079 -0.2585
15944TIP3    H169247   2.661   0.088   2.862 -0.3300  0.1752 -1.1284
15944TIP3    H269248   2.615   0.172   2.978 -0.3577 -0.3126 -0.7841
15945TIP3   OH269249   5.543   6.684  10.535 -0.0461 -0.4995  0.3743
15945TIP3    H169250   5.528   6.602  10.582  2.5262 -1.1936  0.0609
15945TIP3    H269251   5.499   6.670  10.450 -0.0508 -1.3599  0.5072
15946TIP3   OH269252   4.602   4.049  14.979 -1.0260  0.0821  0.0208
15946TIP3    H169253   4.566   4.026  14.894 -1.1544  1.6729 -0.3742
15946TIP3    H269254   4.567   4.137  14.997  0.8461  0.7181  0.6441
15947TIP3   OH269255   5.607   2.329  12.591  0.4896 -0.3832 -0.4803
15947TIP3    H169256   5.671   2.375  12.646  0.4604 -0.2409 -0.5665
15947TIP3    H269257   5.542   2.296  12.654 -1.3432  2.6407 -0.6971
15948TIP3   OH269258   3.965   6.092  13.335 -0.5659 -0.3808 -0.1691
15948TIP3    H169259   3.989   6.049  13.253 -0.4203  0.8445 -0.7784
15948TIP3    H269260   3.994   6.182  13.324  1.2324 -0.6701  2.0230
15949TIP3   OH269261   6.181   3.241   3.496  0.5281  0.2072 -0.1840
15949TIP3    H169262   6.138   3.298   3.559  1.3931  0.7340 -0.0600
15949TIP3    H269263   6.172   3.153   3.532 -0.0276  0.3668  0.0698
15950TIP3   OH269264   3.012   6.264   2.105  0.1266  0.0110  0.1411
15950TIP3    H169265   3.042   6.191   2.158  0.6956 -0.8900 -1.3905
15950TIP3    H269266   3.091   6.295   2.059 -0.0304  1.8363  1.0688
15951TIP3   OH269267   2.477   0.370  15.657  0.1709 -0.2806  1.7555
15951TIP3    H169268   2.530   0.388  15.734 -1.1867  2.5604  2.0640
15951TIP3    H269269   2.421   0.297  15.683 -0.3288  0.6961  3.4855
15952TIP3   OH269270   3.990   2.091   4.324  0.0413  0.2264 -0.6569
15952TIP3    H169271   4.067   2.144   4.347  0.4449 -0.4727 -0.3819
15952TIP3    H269272   3.982   2.101   4.229  1.5918 -1.1642 -0.9740
15953TIP3   OH269273   4.491   5.017   3.765  0.4942 -0.4929 -0.3295
15953TIP3    H169274   4.550   4.986   3.696  1.0853  0.2016 -0.1369
15953TIP3    H269275   4.548   5.035   3.840 -0.0102 -0.1806 -0.0172
15954TIP3   OH269276   6.520   1.560  12.426  0.2327 -0.1947  0.1013
15954TIP3    H169277   6.574   1.517  12.492 -0.4454 -0.4094  0.5301
15954TIP3    H269278   6.485   1.488  12.374 -0.5743 -0.1434  0.5618
15955TIP3   OH269279   4.763   2.317   4.276  0.1865  0.0675  0.2516
15955TIP3    H169280   4.680   2.323   4.324  0.9579  1.5829  1.4430
15955TIP3    H269281   4.827   2.297   4.344  1.1324  1.1532 -0.3142
15956TIP3   OH269282   2.251   6.308  15.528  0.0541  0.9741  0.1704
15956TIP3    H169283   2.347   6.306  15.517  0.0990  1.1642  0.5275
15956TIP3    H269284   2.237   6.277  15.617 -0.2718  0.1446 -0.1626
15957TIP3   OH269285   5.888   1.285  11.539  0.0905  0.4190 -0.6165
15957TIP3    H169286   5.847   1.307  11.623  1.4543 -1.0040  0.4558
15957TIP3    H269287   5.826   1.317  11.473 -1.0362  1.5064  0.9227
15958TIP3   OH269288   4.701   5.841   5.067 -0.1820  0.1229  0.5271
15958TIP3    H169289   4.612   5.836   5.033  0.3013 -3.1223 -0.4287
15958TIP3    H269290   4.756   5.808   4.996  1.3208 -2.1108  2.6441
15959TIP3   OH269291   1.529   4.160  15.266 -0.2786  0.3506  0.1028
15959TIP3    H169292   1.563   4.110  15.192 -0.9849 -2.5616  1.6388
15959TIP3    H269293   1.440   4.184  15.241 -0.6277 -0.9035  0.0883
15960TIP3   OH269294   1.985   6.070   0.543 -1.1558  0.1575  0.1427
15960TIP3    H169295   2.036   6.150   0.559 -2.9461  1.2156  0.6461
15960TIP3    H269296   2.025   6.032   0.465 -1.1724  2.2919 -0.9561
15961TIP3   OH269297   4.656   0.554  11.129  0.6201 -0.4762  0.2956
15961TIP3    H169298   4.569   0.515  11.136  0.4841 -0.0274  1.1093
15961TIP3    H269299   4.660   0.588  11.039 -0.4285  0.4054  0.5702
15962TIP3   OH269300   4.523   3.015   1.950 -0.0696  0.4726  0.5521
15962TIP3    H169301   4.487   3.077   1.887 -0.0566  0.3249  0.3984
15962TIP3    H269302   4.472   3.028   2.029 -1.0901 -0.4048  0.0444
15963TIP3   OH269303   1.938   6.687   0.333 -0.8528  0.2086  0.1457
15963TIP3    H169304   1.848   6.657   0.341 -0.7432 -0.8980 -2.3584
15963TIP3    H269305   1.991   6.609   0.349 -0.4162  0.2818 -0.9324
15964TIP3   OH269306   1.382   0.496   3.167  0.6202  0.1100  0.7468
15964TIP3    H169307   1.315   0.516   3.101  1.6650  0.4133 -0.2506
15964TIP3    H269308   1.344   0.425   3.219  0.0482 -0.5993 -0.6136
15965TIP3   OH269309   6.339   0.461  15.941 -0.5285  0.3285 -0.1924
15965TIP3    H169310   6.359   0.468  15.848 -0.7115  0.3375 -0.2312
15965TIP3    H269311   6.414   0.501  15.985 -0.8259  1.0883 -0.3657
15966TIP3   OH269312   3.716   1.156   2.568 -0.2880 -0.3945  0.1662
15966TIP3    H169313   3.695   1.244   2.599  1.6323 -0.6582  2.3825
15966TIP3    H269314   3.638   1.104   2.589 -0.8045  0.4410  0.3159
15967TIP3   OH269315   2.834   6.671  16.571 -0.0327  0.9108 -0.1981
15967TIP3    H169316   2.882   6.719  16.638 -0.6715  2.5903 -0.9220
15967TIP3    H269317   2.864   6.709  16.488 -0.4085 -0.0751 -0.8029
15968TIP3   OH269318   0.661   2.860   2.184  0.0632 -0.3496 -0.1312
15968TIP3    H169319   0.714   2.793   2.227 -0.5441  0.3516  1.7708
15968TIP3    H269320   0.683   2.941   2.230 -2.4752 -0.0145  0.6000
15969TIP3   OH269321   4.763   0.962   0.383 -0.3956 -0.6957  0.5078
15969TIP3    H169322   4.789   0.991   0.296  3.2809  0.6105  1.8960
15969TIP3    H269323   4.670   0.983   0.390 -0.8194 -1.1188 -3.1618
15970TIP3   OH269324   6.310   0.973  12.242 -0.1824  0.1044  0.5414
15970TIP3    H169325   6.268   1.052  12.275  0.1333  0.2768  0.5338
15970TIP3    H269326   6.280   0.966  12.151  1.1164  1.1651  0.0012
15971TIP3   OH269327   6.657   6.249   5.639 -0.2030 -0.1018 -0.7894
15971TIP3    H169328   6.704   6.224   5.718 -0.6573 -0.4846 -0.6399
15971TIP3    H269329   6.694   6.193   5.570  0.2385  0.2782 -0.8634
15972TIP3   OH269330   3.261   4.708  14.479  0.3090  0.0116  0.1563
15972TIP3    H169331   3.204   4.768  14.431  0.2557 -1.1267 -1.2413
15972TIP3    H269332   3.283   4.754  14.560 -0.8270  1.3435 -0.2886
15973TIP3   OH269333   3.326   6.663  15.882  0.1992  0.2551  0.3661
15973TIP3    H169334   3.272   6.740  15.864  0.1112  0.0170 -0.3967
15973TIP3    H269335   3.284   6.592  15.832  1.6916  0.2534 -0.9060
15974TIP3   OH269336   1.257   3.441   5.594  0.0693  0.2169 -0.1968
15974TIP3    H169337   1.177   3.485   5.622 -0.2512 -0.7753  0.4694
15974TIP3    H269338   1.328   3.497   5.625 -0.3514  1.1537 -0.8759
15975TIP3   OH269339   4.763   1.860  11.219  0.0982  0.3632 -0.2885
15975TIP3    H169340   4.774   1.776  11.176  1.7658  0.1153  0.5894
15975TIP3    H269341   4.672   1.861  11.247  0.3333 -1.5831  0.5799
15976TIP3   OH269342   1.113   4.796  12.256 -0.5021 -0.0989 -0.0993
15976TIP3    H169343   1.147   4.876  12.215 -0.4819 -0.5905 -1.0312
15976TIP3    H269344   1.181   4.731  12.242  0.1918  0.1108  2.0424
15977TIP3   OH269345   3.567   2.348  11.194  0.1960  0.4167 -0.7149
15977TIP3    H169346   3.625   2.319  11.124  1.4436 -0.3187  0.6208
15977TIP3    H269347   3.623   2.356  11.271 -0.9249  2.3940 -0.0650
15978TIP3   OH269348   6.266   6.644  13.416 -0.0275  0.1822 -0.1181
15978TIP3    H169349   6.269   6.604  13.504 -0.2031 -0.6267 -0.4728
15978TIP3    H269350   6.256   6.737  13.433  0.0704  0.0486  0.7332
15979TIP3   OH269351   2.307   2.266  11.557  0.5080  0.6146 -0.3086
15979TIP3    H169352   2.224   2.269  11.606  0.1245  1.1989 -0.9836
15979TIP3    H269353   2.283   2.296  11.469  1.5379  1.2735 -0.3676
15980TIP3   OH269354   3.846   4.421  16.789 -0.1390  0.2474 -0.0654
15980TIP3    H169355   3.766   4.396  16.743 -0.0184  1.1217 -0.7673
15980TIP3    H269356   3.823   4.418  16.881 -1.0593  0.7614 -0.2744
15981TIP3   OH269357   1.600   4.876   5.289 -0.4548 -0.1213 -0.1597
15981TIP3    H169358   1.657   4.934   5.239  1.3553  0.1268  2.1051
15981TIP3    H269359   1.521   4.927   5.304 -0.7800  0.0153 -2.2360
15982TIP3   OH269360   1.244   0.512  16.976 -0.2898 -0.2971  0.3581
15982TIP3    H169361   1.247   0.578  16.907  0.5675 -1.4471 -0.7226
15982TIP3    H269362   1.245   0.429  16.930 -1.5866 -1.0831  1.7010
15983TIP3   OH269363   6.224   4.344   1.042  0.0157  0.4815 -0.5962
15983TIP3    H169364   6.178   4.273   1.086  0.7953  1.6516  2.1756
15983TIP3    H269365   6.305   4.305   1.011 -0.2277 -0.1783 -0.3945
15984TIP3   OH269366   5.245   0.283   3.611 -0.4886  0.2641  0.4744
15984TIP3    H169367   5.292   0.331   3.679  1.5500 -2.5447  1.1751
15984TIP3    H269368   5.310   0.267   3.543 -2.3937  2.6561 -2.0266
15985TIP3   OH269369   3.693   6.712  11.434 -0.1496  0.1380 -0.1827
15985TIP3    H169370   3.640   6.643  11.475  1.6071 -1.4851 -0.6227
15985TIP3    H269371   3.713   6.678  11.347  0.7725  1.1949 -0.3811
15986TIP3   OH269372   6.781   4.713  11.737  0.0659  0.7425  0.1885
15986TIP3    H169373   6.760   4.738  11.647 -1.3671  0.6524  0.4764
15986TIP3    H269374   6.761   4.791  11.789  1.8422  1.1217  0.3118
15987TIP3   OH269375   0.958   1.161  14.352 -0.1130  0.5115 -0.1994
15987TIP3    H169376   0.929   1.244  14.314  1.0765 -0.0801 -2.4591
15987TIP3    H269377   0.933   1.168  14.444  1.9159  4.3514  0.1964
15988TIP3   OH269378   3.639   1.613   2.078  0.2960  0.1506 -0.0981
15988TIP3    H169379   3.622   1.543   2.014  2.8594 -1.2909  0.7180
15988TIP3    H269380   3.707   1.666   2.038  1.6015 -0.5019  1.2175
15989TIP3   OH269381   6.342   6.247  12.652  0.2102  0.1394 -0.0273
15989TIP3    H169382   6.312   6.326  12.608 -1.5723 -1.7172 -2.2356
15989TIP3    H269383   6.386   6.196  12.584 -0.0625 -1.4901  0.9925
15990TIP3   OH269384   1.761   1.860  15.065 -0.4985  0.0818  0.7854
15990TIP3    H169385   1.676   1.821  15.043 -0.3466  1.1939 -1.9153
15990TIP3    H269386   1.825   1.804  15.021 -0.0412  1.0916  0.1472
15991TIP3   OH269387   1.371   5.290  15.567 -0.0808 -0.6995 -0.2729
15991TIP3    H169388   1.351   5.320  15.656 -2.1227  0.0262 -0.9810
15991TIP3    H269389   1.375   5.369  15.514 -3.7546 -1.4567 -1.7910
15992TIP3   OH269390   3.569   3.553  13.425  0.5545  0.0757  0.1131
15992TIP3    H169391   3.633   3.603  13.375  0.7616 -0.3204 -0.0173
15992TIP3    H269392   3.553   3.474  13.373  2.4492 -1.4271  1.7147
15993TIP3   OH269393   4.229   2.843  15.418  0.2491  0.2398  0.2744
15993TIP3    H169394   4.237   2.850  15.323  0.0987 -0.6414  0.1924
15993TIP3    H269395   4.136   2.854  15.435 -0.2124 -2.7690  0.0128
15994TIP3   OH269396   0.503   5.718   3.646  0.3067 -0.0384 -0.0257
15994TIP3    H169397   0.469   5.632   3.671  0.1230  0.0225 -0.0716
15994TIP3    H269398   0.456   5.780   3.701 -0.4290  0.1352 -0.8324
15995TIP3   OH269399   1.342   3.953  16.423 -0.1142 -0.4103 -0.3708
15995TIP3    H169400   1.435   3.929  16.422  0.0980  0.4129 -0.4048
15995TIP3    H269401   1.319   3.961  16.330  0.5383  2.2989 -0.3189
15996TIP3   OH269402   0.355   5.273  14.851  0.2152  0.3264  0.6597
15996TIP3    H169403   0.371   5.297  14.759 -1.1099  2.7726  1.0217
15996TIP3    H269404   0.268   5.308  14.870  0.2933 -0.5549  2.7208
15997TIP3   OH269405   6.301   5.482   0.791  0.1155 -0.2183  0.0910
15997TIP3    H169406   6.350   5.549   0.838 -2.0843  1.3675  0.2144
15997TIP3    H269407   6.261   5.428   0.859  0.6269 -0.7312 -0.0068
15998TIP3   OH269408   4.659   2.131   5.665  0.4888  0.8067 -0.1932
15998TIP3    H169409   4.663   2.104   5.757  0.0270  0.7780 -0.1783
15998TIP3    H269410   4.645   2.049   5.617 -1.8950  1.0886 -0.0689
15999TIP3   OH269411   6.060   2.610   3.716 -0.0950 -0.1682 -0.4159
15999TIP3    H169412   6.018   2.694   3.700  2.1837  0.6176 -2.5390
15999TIP3    H269413   5.989   2.546   3.708 -2.0932  1.5430  2.3525
16000TIP3   OH269414   3.098   4.761   5.350  0.0694 -0.2425 -0.1484
16000TIP3    H169415   3.063   4.687   5.399 -0.4269 -0.2850 -0.5649
16000TIP3    H269416   3.099   4.731   5.259 -1.2680  0.6851 -0.4840
16001TIP3   OH269417   4.394   0.146   4.703 -0.3543  0.6944  0.6180
16001TIP3    H169418   4.407   0.059   4.666  0.0214  0.8789  0.3194
16001TIP3    H269419   4.301   0.164   4.689 -0.7256 -0.1756  1.8020
16002TIP3   OH269420   2.443   1.485   3.311 -1.0410 -0.0365  0.0157
16002TIP3    H169421   2.401   1.404   3.283  0.5019 -0.9546  0.3269
16002TIP3    H269422   2.413   1.497   3.402  0.8988 -1.7546  0.9255
16003TIP3   OH269423   4.574   0.877  12.911  0.1568  0.0763  0.5376
16003TIP3    H169424   4.655   0.842  12.947  1.3111  1.2337 -0.8397
16003TIP3    H269425   4.552   0.950  12.968  0.2855 -0.0094  0.6968
16004TIP3   OH269426   0.943   2.042   0.835  0.1178  0.2104  0.0111
16004TIP3    H169427   0.906   2.081   0.756 -0.8028  0.3731  0.5209
16004TIP3    H269428   1.038   2.042   0.819 -0.1551 -1.3401 -1.8276
16005TIP3   OH269429   4.169   1.267   3.600 -0.6746  0.2184 -0.6395
16005TIP3    H169430   4.101   1.246   3.536 -0.6812 -0.6846 -0.3536
16005TIP3    H269431   4.212   1.183   3.617  0.7852  0.8460 -1.1168
16006TIP3   OH269432   0.076   2.603  13.184 -0.4661 -1.0590 -0.3774
16006TIP3    H169433   0.066   2.510  13.166  1.4568 -0.7548 -3.3526
16006TIP3    H269434   0.166   2.613  13.215 -0.6485 -0.1720 -0.0952
16007TIP3   OH269435   2.800   1.097  14.874 -0.5301  0.4875 -0.0369
16007TIP3    H169436   2.708   1.075  14.892 -0.7472  1.8875  0.6469
16007TIP3    H269437   2.803   1.192  14.883  0.6187  0.6380 -1.7551
16008TIP3   OH269438   4.572   0.589  16.801 -0.3358  0.4178  0.3476
16008TIP3    H169439   4.479   0.602  16.818 -0.6426 -1.9184  0.5541
16008TIP3    H269440   4.591   0.648  16.728 -1.9150  1.0534  0.4310
16009TIP3   OH269441   0.546   5.565   0.297  0.0320 -0.3308  0.1006
16009TIP3    H169442   0.607   5.588   0.367 -0.8078  1.8840  0.1658
16009TIP3    H269443   0.592   5.500   0.245  2.2751  0.9632  0.3943
16010TIP3   OH269444   3.975   5.890  11.349 -0.7803  0.0510  0.3879
16010TIP3    H169445   3.942   5.886  11.439  3.1376 -1.0226  1.8619
16010TIP3    H269446   3.952   5.978  11.319 -0.5130  1.1040  3.1123
16011TIP3   OH269447   2.696   4.458   2.778  0.4283 -0.4620  0.0550
16011TIP3    H169448   2.777   4.410   2.789  0.1311 -1.2437 -1.1131
16011TIP3    H269449   2.697   4.524   2.848  1.2748 -1.5417  1.0634
16012TIP3   OH269450   6.641   0.219  16.419  0.2650  0.3601 -0.1834
16012TIP3    H169451   6.597   0.150  16.469  1.0524 -0.2604 -0.3352
16012TIP3    H269452   6.634   0.297  16.475  1.5629 -0.4410  1.1459
16013TIP3   OH269453   5.459   0.097  11.944 -0.2892 -0.2761  0.1221
16013TIP3    H169454   5.378   0.138  11.915 -1.9951 -3.1769  0.5538
16013TIP3    H269455   5.457   0.009  11.907  3.0800 -0.1743 -0.5171
16014TIP3   OH269456   2.059   3.023  15.711 -0.5734 -0.3925 -0.7713
16014TIP3    H169457   2.001   2.965  15.663 -0.2824 -0.6050 -0.8673
16014TIP3    H269458   2.007   3.054  15.786 -0.4291 -1.4885 -0.2115
16015TIP3   OH269459   6.663   4.929   0.754  0.0790  0.2271 -0.2277
16015TIP3    H169460   6.570   4.941   0.772 -0.0232 -0.1607 -0.4948
16015TIP3    H269461   6.667   4.853   0.697  0.8384 -2.2188  2.9084
16016TIP3   OH269462   6.544   6.193  12.840  0.0416 -0.3679  0.4503
16016TIP3    H169463   6.627   6.236  12.820 -0.4535  0.4811  0.1773
16016TIP3    H269464   6.491   6.206  12.761  0.5617 -3.2203 -0.4338
16017TIP3   OH269465   2.090   0.101   1.446 -0.8537  0.2529  0.3851
16017TIP3    H169466   2.036   0.154   1.388  1.0947  1.4426 -0.3808
16017TIP3    H269467   2.163   0.158   1.469  1.4054 -2.1786 -0.6117
16018TIP3   OH269468   6.085   3.148  15.654 -0.0714  0.7480  0.4771
16018TIP3    H169469   5.993   3.152  15.629  0.1294  3.7178  0.0439
16018TIP3    H269470   6.084   3.115  15.743 -1.4239 -0.8898 -0.1156
16019TIP3   OH269471   4.461   5.854   3.529  0.1699  1.1477  0.4906
16019TIP3    H169472   4.550   5.819   3.541 -0.1269  0.1948 -0.0647
16019TIP3    H269473   4.448   5.911   3.604  0.8580  0.4795  1.1294
16020TIP3   OH269474   0.269   2.299  14.906  0.0010  0.1904 -0.1958
16020TIP3    H169475   0.267   2.394  14.896 -2.0934  0.1442 -0.4714
16020TIP3    H269476   0.355   2.280  14.943  0.0998  2.2738  0.6989
16021TIP3   OH269477   5.428   3.824   4.260 -0.0618  0.5621  0.0043
16021TIP3    H169478   5.399   3.893   4.200  0.1064  1.1068  0.5360
16021TIP3    H269479   5.523   3.837   4.266 -0.3101  1.6837  1.8081
16022TIP3   OH269480   2.078   3.027   4.385  0.4258 -0.6292 -1.0119
16022TIP3    H169481   2.042   3.066   4.465  2.9190  0.3899 -0.3095
16022TIP3    H269482   2.071   2.933   4.399 -0.7479 -0.4496 -0.3434
16023TIP3   OH269483   5.890   5.873   0.943  0.5906  0.0059  0.4237
16023TIP3    H169484   5.974   5.900   0.908  0.0675  0.4534 -0.5142
16023TIP3    H269485   5.863   5.946   0.999 -0.2846  0.9548 -1.1937
16024TIP3   OH269486   5.338   5.955   5.465  0.2464  0.6114 -0.9876
16024TIP3    H169487   5.316   5.940   5.373 -1.6322 -0.0225 -0.4735
16024TIP3    H269488   5.314   5.873   5.509  0.0706  1.3013  0.2203
16025TIP3   OH269489   6.049   3.052  14.964  0.0717  0.3662  1.0403
16025TIP3    H169490   6.129   3.018  14.924 -0.1195  0.1589  0.8328
16025TIP3    H269491   6.077   3.130  15.011 -0.2530  2.6634 -2.3558
16026TIP3   OH269492   5.289   2.824   2.676  1.1328  0.1017  0.1534
16026TIP3    H169493   5.344   2.847   2.601 -0.6024 -1.0800 -1.5307
16026TIP3    H269494   5.265   2.733   2.661 -0.9940  0.4885  1.0336
16027TIP3   OH269495   1.258   2.993   2.549  0.2150 -0.2581  0.0716
16027TIP3    H169496   1.220   3.065   2.599 -0.0528 -1.2835  1.3696
16027TIP3    H269497   1.301   3.036   2.475 -0.5548  1.1765  0.4336
16028TIP3   OH269498   4.734   2.069  14.096  0.2560  0.4788  0.7497
16028TIP3    H169499   4.665   2.133  14.116  1.2172  0.8284  3.2011
16028TIP3    H269500   4.813   2.122  14.087  0.4158 -0.0291 -0.9594
16029TIP3   OH269501   6.423   3.266  11.921  0.1045 -0.2486 -0.4844
16029TIP3    H169502   6.469   3.183  11.905  0.2023 -0.2743 -0.0596
16029TIP3    H269503   6.432   3.282  12.015  1.5421  1.1156 -0.8428
16030TIP3   OH269504   2.837   5.024  12.997  0.3257  0.8139 -0.1456
16030TIP3    H169505   2.820   5.118  13.009  3.0671  1.2449  0.8437
16030TIP3    H269506   2.812   5.007  12.906 -0.0848  2.5321 -0.3844
16031TIP3   OH269507   1.649   3.860   3.798  0.4074  0.4807  0.3543
16031TIP3    H169508   1.587   3.795   3.831 -1.5103  2.0571 -0.0485
16031TIP3    H269509   1.734   3.817   3.805 -0.6726 -1.6151  1.2347
16032TIP3   OH269510   1.867   0.901  16.082  0.2225  0.4568 -0.1260
16032TIP3    H169511   1.837   0.930  16.168  1.0759  1.1993 -0.0734
16032TIP3    H269512   1.814   0.950  16.020 -0.9074 -0.6266 -0.0283
16033TIP3   OH269513   0.512   1.208  12.961  0.2308 -0.6697  0.0733
16033TIP3    H169514   0.565   1.130  12.977  0.5278 -0.6376 -0.7133
16033TIP3    H269515   0.530   1.230  12.869  0.2781  0.4236  0.3450
16034TIP3   OH269516   3.238   2.339   0.047  0.1507 -0.1841 -0.4983
16034TIP3    H169517   3.164   2.341   0.107 -1.1228  0.5720 -2.0646
16034TIP3    H269518   3.278   2.253   0.062  0.4692  0.3622  2.0971
16035TIP3   OH269519   5.632   4.264  16.848  0.0774  0.7923 -0.0777
16035TIP3    H169520   5.598   4.323  16.780 -2.7451 -0.5255  0.1179
16035TIP3    H269521   5.601   4.302  16.930 -0.1551  0.0354  0.1849
16036TIP3   OH269522   1.853   6.580   1.913 -0.3806 -0.4977 -0.3165
16036TIP3    H169523   1.946   6.598   1.896 -0.4135 -1.2773 -1.4497
16036TIP3    H269524   1.852   6.541   2.000  0.4081 -0.7808 -0.4211
16037TIP3   OH269525   1.140   0.342   5.014  0.4403 -0.3998 -0.3235
16037TIP3    H169526   1.104   0.280   4.950  1.6725 -0.6888 -0.7407
16037TIP3    H269527   1.225   0.305   5.038 -0.3680 -0.7411  2.1250
16038TIP3   OH269528   3.545   1.607   2.964 -0.1867 -0.2943 -0.0987
16038TIP3    H169529   3.458   1.569   2.971 -0.5403  0.5958  0.5220
16038TIP3    H269530   3.541   1.685   3.020  1.4238 -1.0183  1.0740
16039TIP3   OH269531   5.830   4.200   3.813  0.0947  0.8638  0.6377
16039TIP3    H169532   5.898   4.172   3.752  2.2500  0.4160  3.1490
16039TIP3    H269533   5.797   4.119   3.851 -3.3826  0.9210 -2.0385
16040TIP3   OH269534   4.384   5.761  15.726  0.2517 -0.5096 -0.0240
16040TIP3    H169535   4.372   5.815  15.647  2.2069 -2.6811 -1.8851
16040TIP3    H269536   4.452   5.807  15.775 -0.6463  0.6128  0.2081
16041TIP3   OH269537   2.097   2.424   2.903 -0.6990 -0.0578  0.6595
16041TIP3    H169538   2.168   2.476   2.864  0.1185 -1.9013 -0.4156
16041TIP3    H269539   2.080   2.465   2.987 -0.0049  1.8736 -0.1182
16042TIP3   OH269540   3.746   0.487  14.813 -0.4567 -0.2949 -0.0395
16042TIP3    H169541   3.710   0.576  14.812 -1.2361 -0.6053 -0.0778
16042TIP3    H269542   3.831   0.496  14.855 -0.8938  0.3289  0.7306
16043TIP3   OH269543   0.315   0.274   3.210 -0.8078 -0.1036  0.4624
16043TIP3    H169544   0.235   0.296   3.256 -1.0833 -0.0419 -0.0393
16043TIP3    H269545   0.376   0.344   3.233 -0.5301 -0.7553  1.7489
16044TIP3   OH269546   5.293   5.365  16.091  0.1579 -0.2297 -0.2461
16044TIP3    H169547   5.227   5.407  16.145  2.2751  2.4832  0.3393
16044TIP3    H269548   5.373   5.366  16.144  1.4183 -0.7378 -2.0467
16045TIP3   OH269549   5.716   5.106   5.946 -0.3554 -0.0574  0.0072
16045TIP3    H169550   5.627   5.129   5.919  0.9096  2.6064 -2.1241
16045TIP3    H269551   5.725   5.144   6.033 -1.0949  0.1790 -0.0153
16046TIP3   OH269552   0.285   0.154   1.447  0.3646  0.4877  0.6864
16046TIP3    H169553   0.212   0.216   1.433 -0.1514 -0.1153  0.6699
16046TIP3    H269554   0.363   0.203   1.423 -0.2024  0.5796 -1.0480
16047TIP3   OH269555   5.414   4.597   5.709 -0.3463  0.4667  0.3847
16047TIP3    H169556   5.379   4.509   5.699  0.7084 -0.0519  1.2127
16047TIP3    H269557   5.343   4.646   5.752 -2.3746  1.0227 -3.3977
16048TIP3   OH269558   4.860   2.791   5.664 -0.2331 -0.9294  0.0635
16048TIP3    H169559   4.905   2.794   5.748  1.9910 -1.9553 -1.0562
16048TIP3    H269560   4.851   2.698   5.645  0.5070 -0.6864 -1.4811
16049TIP3   OH269561   1.547   2.271   0.027  0.1871 -0.2584  0.4167
16049TIP3    H169562   1.456   2.247   0.008  0.0873  0.6714 -0.3717
16049TIP3    H269563   1.595   2.247  -0.052  0.5592 -0.4301  0.6972
16050TIP3   OH269564   3.546   0.795   4.771  0.0529 -0.6492 -0.0188
16050TIP3    H169565   3.558   0.855   4.697  0.3793 -0.2620  0.3438
16050TIP3    H269566   3.590   0.839   4.844 -1.4251 -0.4137  0.7329
16051TIP3   OH269567   1.736   1.444   4.222 -0.1631 -0.1631  0.0778
16051TIP3    H169568   1.737   1.453   4.127 -0.0145 -0.4961  0.0499
16051TIP3    H269569   1.674   1.374   4.239 -0.1817 -0.1104  0.2251
16052TIP3   OH269570   3.962   3.033   0.903  0.0115 -0.4899 -0.1268
16052TIP3    H169571   3.994   3.116   0.867 -1.8420  0.4017  0.2585
16052TIP3    H269572   4.025   3.013   0.973  1.2765 -0.1490 -1.1330
16053TIP3   OH269573   5.426   6.398   5.114 -1.1250 -0.1747 -0.2625
16053TIP3    H169574   5.445   6.353   5.196 -0.7179 -0.6672 -0.6199
16053TIP3    H269575   5.354   6.458   5.134 -1.0713 -0.3489  0.4317
16054TIP3   OH269576   5.853   1.978  14.464  0.8804 -0.0833  0.2630
16054TIP3    H169577   5.817   1.921  14.397  1.3241 -0.4426  0.3286
16054TIP3    H269578   5.840   2.067  14.430  0.0903 -0.2135  0.2170
16055TIP3   OH269579   2.733   2.692  11.082  0.5725 -0.2117 -0.3102
16055TIP3    H169580   2.647   2.694  11.123  0.7832  0.0588  0.1169
16055TIP3    H269581   2.715   2.704  10.988  0.1967  0.4522 -0.1531
16056TIP3   OH269582   2.158   5.162  15.478  0.4884  0.6806 -0.9320
16056TIP3    H169583   2.088   5.141  15.540  1.0732 -3.3632 -1.4999
16056TIP3    H269584   2.236   5.176  15.533  0.2735  0.4870 -0.5801
16057TIP3   OH269585   2.176   5.356  11.213 -0.0402 -0.2641 -0.1336
16057TIP3    H169586   2.101   5.298  11.222 -1.4545  1.7811  1.7813
16057TIP3    H269587   2.163   5.400  11.129 -0.3535 -0.7490 -0.3397
16058TIP3   OH269588   4.470   2.940   5.455  0.7550  0.3388  0.4568
16058TIP3    H169589   4.424   2.993   5.390  0.2262 -0.5483  0.0896
16058TIP3    H269590   4.515   2.872   5.404  0.4415 -0.2900  0.9988
16059TIP3   OH269591   4.999   5.389   0.457 -0.0836 -0.3616 -0.5895
16059TIP3    H169592   5.071   5.396   0.394  0.7652 -0.9522  0.2998
16059TIP3    H269593   4.990   5.295   0.472 -1.0304 -0.2839 -0.6708
16060TIP3   OH269594   2.081   2.421   6.076 -0.6693 -0.2478 -0.7545
16060TIP3    H169595   2.159   2.364   6.081 -0.0884  0.2824 -3.3312
16060TIP3    H269596   2.099   2.491   6.139  1.3538  0.3324 -1.9374
16061TIP3   OH269597   5.614   2.293   0.780  0.5665 -0.0739 -0.4556
16061TIP3    H169598   5.555   2.334   0.843 -1.0142 -1.9579 -0.6699
16061TIP3    H269599   5.698   2.338   0.794  0.0211  0.2162  2.3161
16062TIP3   OH269600   3.101   0.480   2.323  0.0853  0.3254 -0.2314
16062TIP3    H169601   3.019   0.436   2.300  1.0145 -1.4173 -0.3264
16062TIP3    H269602   3.119   0.453   2.413 -0.0600  1.6850  0.2196
16063TIP3   OH269603   4.103   3.323   3.360 -0.2802 -0.3361  0.1826
16063TIP3    H169604   4.024   3.270   3.367 -0.1022 -0.3696  1.9792
16063TIP3    H269605   4.170   3.263   3.325 -0.6262 -0.7230  0.1855
16064TIP3   OH269606   6.576   0.614   4.376  0.8820  0.4221 -0.2316
16064TIP3    H169607   6.495   0.598   4.327  0.3853  2.2613 -0.0765
16064TIP3    H269608   6.613   0.692   4.334  0.5877  1.8784  2.1373
16065TIP3   OH269609   4.199   3.903   0.282 -0.0026  0.8240 -0.0498
16065TIP3    H169610   4.265   3.902   0.351  0.0909  0.7746 -0.1378
16065TIP3    H269611   4.234   3.964   0.217  1.0268 -0.8431 -1.1124
16066TIP3   OH269612   4.083   1.266   5.062 -0.6398  0.3505  0.8036
16066TIP3    H169613   4.123   1.353   5.056 -0.4252  0.2576  0.8830
16066TIP3    H269614   4.150   1.207   5.030  0.0500 -0.0231  2.8356
16067TIP3   OH269615   1.653   0.074   2.616 -0.7804  0.0079  0.4439
16067TIP3    H169616   1.577   0.061   2.559  1.7510 -1.5048 -2.7294
16067TIP3    H269617   1.675   0.167   2.605 -0.3448 -0.2559 -1.0991
16068TIP3   OH269618   2.291   0.497   0.400  0.2266  1.1224 -0.0721
16068TIP3    H169619   2.353   0.424   0.403  0.0060  0.9651  0.6124
16068TIP3    H269620   2.266   0.503   0.307 -0.0329  0.0924 -0.0711
16069TIP3   OH269621   4.901   4.081  16.469  0.5414 -0.0532 -0.7906
16069TIP3    H169622   4.832   4.133  16.510 -0.7250 -2.1586 -0.1525
16069TIP3    H269623   4.960   4.145  16.431 -1.1676  1.8337 -0.3591
16070TIP3   OH269624   1.946   5.926  12.077 -0.5609  0.1530  0.5835
16070TIP3    H169625   1.862   5.963  12.049 -1.5650 -1.3180  1.5911
16070TIP3    H269626   1.986   5.893  11.997 -1.6907 -0.6308  0.3358
16071TIP3   OH269627   2.076   5.769  14.416 -0.6413 -0.5043  0.2755
16071TIP3    H169628   2.081   5.678  14.446  0.6851 -0.9312 -1.1831
16071TIP3    H269629   1.983   5.783  14.396 -0.8586 -1.5186  0.5838
16072TIP3   OH269630   2.843   4.524  11.479 -0.3493  0.2798 -0.0155
16072TIP3    H169631   2.881   4.452  11.428  0.0186  1.0233 -0.8206
16072TIP3    H269632   2.835   4.596  11.416 -0.6674  0.9564  0.7855
16073TIP3   OH269633   2.105   5.628  13.858 -0.2016  0.2373  0.0432
16073TIP3    H169634   2.165   5.694  13.891  0.3990 -0.0976 -0.3503
16073TIP3    H269635   2.080   5.576  13.934 -0.0620  0.4372  0.2220
16074TIP3   OH269636   6.029   4.770   5.022  0.6114 -0.1917  0.3023
16074TIP3    H169637   5.972   4.694   5.034  1.4199 -0.9891 -0.8499
16074TIP3    H269638   6.044   4.774   4.927  0.4841  1.4729  0.3421
16075TIP3   OH269639   5.033   4.896   5.724 -0.4688 -0.1795  0.5310
16075TIP3    H169640   4.986   4.933   5.649  1.4512 -0.9287 -1.0917
16075TIP3    H269641   5.040   4.968   5.786 -1.4332  0.6674 -0.3245
16076TIP3   OH269642   2.861   5.140   4.152  0.5010 -0.1212  0.0646
16076TIP3    H169643   2.864   5.185   4.068  0.8212  0.4265  0.3681
16076TIP3    H269644   2.811   5.198   4.209 -2.4952 -1.9407 -0.5963
16077TIP3   OH269645   1.493   1.579  16.085 -0.7310 -0.2117 -0.6131
16077TIP3    H169646   1.569   1.550  16.136 -1.8168  0.3993  1.4125
16077TIP3    H269647   1.438   1.500  16.077 -0.8732 -0.1467 -0.2687
16078TIP3   OH269648   2.499   5.707  13.200 -0.1091  0.1311  0.5212
16078TIP3    H169649   2.536   5.620  13.185  0.0207  0.0246  1.4217
16078TIP3    H269650   2.570   5.768  13.180 -0.4709  0.0800 -0.9866
16079TIP3   OH269651   5.112   1.078   5.775 -0.1734  0.8065 -0.6944
16079TIP3    H169652   5.107   1.142   5.704  2.5033  0.3592 -1.3512
16079TIP3    H269653   5.131   0.995   5.731 -0.7911  0.0835  0.3729
16080TIP3   OH269654   5.475   4.157   3.268 -0.3158  0.3584  0.0396
16080TIP3    H169655   5.486   4.218   3.342 -1.7340 -1.6357  1.9780
16080TIP3    H269656   5.391   4.182   3.229  0.2278  1.1339 -0.6541
16081TIP3   OH269657   4.860   4.816   1.627 -0.0339 -0.3531  0.3493
16081TIP3    H169658   4.908   4.788   1.549 -0.7331  0.4104 -0.3714
16081TIP3    H269659   4.899   4.901   1.649 -0.8190  0.1207 -0.0524
16082TIP3   OH269660   6.503   2.731  11.570 -0.3785 -0.6047 -0.1451
16082TIP3    H169661   6.429   2.751  11.513  0.1075 -1.2098 -0.9970
16082TIP3    H269662   6.577   2.717  11.510  0.2291 -0.8646  0.6476
16083TIP3   OH269663   3.640   4.946   0.040  0.2015 -0.1283 -0.8749
16083TIP3    H169664   3.650   4.895   0.121  0.1057  0.5993 -0.3988
16083TIP3    H269665   3.690   4.897  -0.025  0.0853 -0.8499 -0.4336
16084TIP3   OH269666   0.062   6.708  15.112 -0.0656 -0.0882 -0.3511
16084TIP3    H169667   0.087   6.718  15.020 -0.9340  1.8479 -0.4064
16084TIP3    H269668  -0.033   6.696  15.109 -0.5384  3.0045  0.4356
16085TIP3   OH269669   4.450   3.204   1.780  0.2341 -0.3987  0.4553
16085TIP3    H169670   4.356   3.216   1.766  0.2834 -0.7701 -0.1849
16085TIP3    H269671   4.483   3.292   1.798 -0.1012 -0.1441 -0.1570
16086TIP3   OH269672   3.174   1.134  13.505  0.2196 -0.0515 -0.7102
16086TIP3    H169673   3.247   1.175  13.551  0.2268  0.1319 -0.8879
16086TIP3    H269674   3.108   1.203  13.497  0.1099 -0.1587 -0.7402
16087TIP3   OH269675   4.914   5.839  16.592  0.4492  0.1226  0.1874
16087TIP3    H169676   4.967   5.776  16.642  2.5893  1.0122 -0.8796
16087TIP3    H269677   4.868   5.890  16.658  0.0523 -1.3960  1.1104
16088TIP3   OH269678   5.577   1.948   3.322 -0.8075 -0.2753  0.0212
16088TIP3    H169679   5.586   1.950   3.418  0.1468  0.4323 -0.0855
16088TIP3    H269680   5.503   2.006   3.304  0.1803  1.0623  0.1973
16089TIP3   OH269681   4.631   1.837  14.549  0.6356  0.3950  0.0002
16089TIP3    H169682   4.551   1.808  14.506  1.3112 -0.9981 -0.3200
16089TIP3    H269683   4.630   1.795  14.634  0.6201  1.0474  0.3298
16090TIP3   OH269684   2.423   1.772   1.958  0.4642 -0.0639 -0.2211
16090TIP3    H169685   2.512   1.736   1.957  0.2527 -0.6386 -2.6253
16090TIP3    H269686   2.372   1.709   2.009  1.0601 -0.7691 -0.4746
16091TIP3   OH269687   5.682   0.043  11.101 -0.1895 -0.7845  0.1383
16091TIP3    H169688   5.633   0.030  11.019 -0.0964  2.9465 -0.6004
16091TIP3    H269689   5.773   0.049  11.074 -0.2036  0.9305  0.4233
16092TIP3   OH269690   0.692   0.373   5.783  0.8945 -0.6801 -0.0423
16092TIP3    H169691   0.611   0.324   5.793 -0.1314  0.9669 -0.0705
16092TIP3    H269692   0.698   0.391   5.689 -0.0460  1.3822  0.2667
16093TIP3   OH269693   0.873   1.194  14.600 -0.5322 -0.3602  0.0560
16093TIP3    H169694   0.917   1.242  14.670  1.5631  0.1196 -1.5257
16093TIP3    H269695   0.830   1.120  14.643 -0.9139  0.9995  2.0695
16094TIP3   OH269696   1.105   5.065  11.541 -0.7357  0.2973  0.5465
16094TIP3    H169697   1.046   4.992  11.562 -1.3648  0.5405 -0.3727
16094TIP3    H269698   1.170   5.026  11.483 -0.2078  0.1250  1.2393
16095TIP3   OH269699   5.053   2.701   2.006 -0.6165 -0.3331 -0.2532
16095TIP3    H169700   4.973   2.712   2.057 -0.8604 -0.6586 -0.5612
16095TIP3    H269701   5.080   2.790   1.983 -1.6477 -0.2827 -1.3182
16096TIP3   OH269702   0.104   1.432  11.812  0.0772  0.2325 -0.0749
16096TIP3    H169703   0.036   1.460  11.750 -0.7355  0.1443  0.7607
16096TIP3    H269704   0.119   1.340  11.790 -0.7487 -0.0101  0.3189
16097TIP3   OH269705   4.838   1.806   1.564 -0.3519 -0.3480  0.1207
16097TIP3    H169706   4.844   1.802   1.469 -1.1817 -1.3084  0.1063
16097TIP3    H269707   4.906   1.869   1.589  1.2807 -1.6359 -0.9553
16098TIP3   OH269708   6.166   0.615   1.224 -0.0537  0.0255  0.4932
16098TIP3    H169709   6.223   0.635   1.149 -0.5838 -1.3663 -0.2990
16098TIP3    H269710   6.220   0.636   1.301  0.3499  1.8548 -0.2708
16099TIP3   OH269711   6.422   5.443  12.420 -0.0143  1.0114 -0.0593
16099TIP3    H169712   6.392   5.445  12.329 -0.4176  1.7280  0.0901
16099TIP3    H269713   6.517   5.453  12.414  0.0408  0.2981 -0.4446
16100TIP3   OH269714   1.008   0.550  16.731  0.1832  0.2347 -0.5235
16100TIP3    H169715   1.090   0.599  16.720 -0.7649  1.7250 -1.2365
16100TIP3    H269716   0.943   0.603  16.684 -1.3829 -0.3827  0.8999
16101TIP3   OH269717   1.368   4.210   2.768  0.2052  0.0637  0.5198
16101TIP3    H169718   1.330   4.146   2.709 -0.6230  1.3488 -0.3750
16101TIP3    H269719   1.443   4.245   2.720  0.5267 -0.0866  0.9142
16102TIP3   OH269720   2.386   6.089  16.216  0.3037 -0.5049 -0.4428
16102TIP3    H169721   2.444   6.015  16.197 -0.2375 -0.3910 -2.7322
16102TIP3    H269722   2.299   6.057  16.193 -0.0507  0.5285 -0.5492
16103TIP3   OH269723   1.356   3.531  15.898  1.1050 -0.2496 -0.0445
16103TIP3    H169724   1.413   3.585  15.952  2.0518 -0.5308 -0.7636
16103TIP3    H269725   1.391   3.540  15.809 -0.4301  0.2039 -0.6250
16104TIP3   OH269726   0.569   5.575  16.879 -0.1757  0.1495  0.6148
16104TIP3    H169727   0.612   5.501  16.922 -0.5545 -0.0496  0.6512
16104TIP3    H269728   0.623   5.592  16.802  0.3890  0.3766  1.0520
16105TIP3   OH269729   0.461   3.469  16.158  0.7982 -0.0623  0.2039
16105TIP3    H169730   0.522   3.539  16.179  0.6840  0.2034 -0.3439
16105TIP3    H269731   0.484   3.442  16.069 -1.5542  1.8327 -1.0398
16106TIP3   OH269732   4.586   4.196   1.784 -0.3078 -0.3787 -0.3615
16106TIP3    H169733   4.556   4.282   1.754  0.7545 -0.0479 -0.5206
16106TIP3    H269734   4.678   4.192   1.755  0.2345 -0.7483  1.3592
16107TIP3   OH269735   6.510   4.172  14.731 -0.4274  0.2274  0.1978
16107TIP3    H169736   6.434   4.215  14.692 -0.7908  1.4152  2.1507
16107TIP3    H269737   6.473   4.103  14.787 -0.1591  1.6080  2.1208
16108TIP3   OH269738   2.736   1.276  14.196 -0.3492 -0.5022 -0.1941
16108TIP3    H169739   2.788   1.257  14.118  0.6813 -1.8319  0.8047
16108TIP3    H269740   2.729   1.192  14.242  1.6969  0.8507  2.7302
16109TIP3   OH269741   3.583   0.215   0.793  0.0412  0.1695 -0.1245
16109TIP3    H169742   3.529   0.141   0.821  1.7698 -0.6665  1.1051
16109TIP3    H269743   3.529   0.262   0.729 -1.4184 -1.6555 -0.2645
16110TIP3   OH269744   4.409   1.591   2.373 -0.1092  0.1459  0.0210
16110TIP3    H169745   4.317   1.606   2.352 -0.5125 -2.0716  0.0343
16110TIP3    H269746   4.412   1.592   2.469  0.0280  0.9544  0.0129
16111TIP3   OH269747   4.786   0.129  14.717 -0.5208 -0.2494 -0.3916
16111TIP3    H169748   4.749   0.208  14.758  0.1959  0.4014 -0.9741
16111TIP3    H269749   4.785   0.149  14.623  2.9836  0.5495 -0.3230
16112TIP3   OH269750   0.117   4.935  15.220  0.0503  0.3034 -0.1936
16112TIP3    H169751   0.158   5.021  15.207  1.2111 -0.3854 -1.2405
16112TIP3    H269752   0.146   4.907  15.306  0.8492  0.3431 -0.4434
16113TIP3   OH269753   1.867   1.582  16.892 -0.2607  0.0516  0.4069
16113TIP3    H169754   1.879   1.667  16.850 -1.0481 -0.0028  0.0729
16113TIP3    H269755   1.794   1.594  16.953 -1.0048 -0.6343 -0.3375
16114TIP3   OH269756   5.139   3.291   4.576 -0.3959 -0.1757 -0.4795
16114TIP3    H169757   5.114   3.206   4.541  1.4609  0.2532 -3.0432
16114TIP3    H269758   5.226   3.278   4.613 -1.5965 -0.1882  2.4568
16115TIP3   OH269759   2.570   3.548   3.916 -0.2337 -0.0759 -0.4094
16115TIP3    H169760   2.585   3.607   3.990  0.3783  0.7549 -1.1853
16115TIP3    H269761   2.596   3.462   3.949 -1.2136  0.0573  0.7642
16116TIP3   OH269762   3.599   4.502   1.857 -0.3225 -0.2723  0.7156
16116TIP3    H169763   3.620   4.594   1.841  0.1929 -0.8349 -2.2184
16116TIP3    H269764   3.522   4.504   1.913 -1.0881  1.9690 -0.3733
16117TIP3   OH269765   4.751   3.694  14.628  0.0823 -0.1806 -0.1625
16117TIP3    H169766   4.780   3.784  14.643 -0.5904 -0.0659  0.4964
16117TIP3    H269767   4.741   3.687  14.533  0.1757  0.4296 -0.2171
16118TIP3   OH269768   3.697   6.598   5.118  0.4283  0.0255  0.7432
16118TIP3    H169769   3.697   6.620   5.025  1.3688 -0.3932  0.6358
16118TIP3    H269770   3.703   6.503   5.121  2.2700  0.1377  1.2241
16119TIP3   OH269771   5.189   5.866   3.374 -0.4975 -0.7061 -0.3941
16119TIP3    H169772   5.208   5.926   3.302  2.1959  1.9027  2.3697
16119TIP3    H269773   5.269   5.814   3.384 -0.9961 -1.3270  0.4685
16120TIP3   OH269774   6.375   0.478  15.650  0.2726 -0.4830 -0.0939
16120TIP3    H169775   6.381   0.560  15.601 -0.5745 -0.6511 -0.4736
16120TIP3    H269776   6.313   0.424  15.601  1.2655 -1.5789 -0.1674
16121TIP3   OH269777   5.483   3.195   0.777  0.0022 -0.0498 -0.0783
16121TIP3    H169778   5.535   3.261   0.731  0.8384 -0.4669  0.2549
16121TIP3    H269779   5.501   3.113   0.730  0.7228 -0.4423  0.8591
16122TIP3   OH269780   5.309   2.447   0.728  0.3774  0.7859  0.1350
16122TIP3    H169781   5.358   2.420   0.806 -0.5904 -1.8810 -0.1008
16122TIP3    H269782   5.218   2.429   0.750  0.2065 -1.3272 -2.0599
16123TIP3   OH269783   5.666   3.704  14.879  0.0445  0.1475  0.3189
16123TIP3    H169784   5.688   3.791  14.846  1.1570 -0.3431 -0.2600
16123TIP3    H269785   5.678   3.710  14.973 -0.6844  0.8470  0.3759
16124TIP3   OH269786   3.231   2.967  16.839  0.3191 -0.1003  0.0856
16124TIP3    H169787   3.235   3.057  16.870  2.6822  0.6207 -2.1375
16124TIP3    H269788   3.165   2.968  16.770 -0.9896 -0.5097  1.3072
16125TIP3   OH269789   3.925   3.037   4.538  0.4144 -0.7332  0.2565
16125TIP3    H169790   3.998   3.024   4.478 -1.1492 -2.5820 -1.3357
16125TIP3    H269791   3.915   2.952   4.582 -1.1991 -0.7482 -0.0969
16126TIP3   OH269792   6.652   4.458  16.276 -0.0133  0.6517  0.4177
16126TIP3    H169793   6.603   4.452  16.357 -0.6621 -1.8000 -0.1029
16126TIP3    H269794   6.619   4.537  16.233 -4.5157 -1.5480 -0.4994
16127TIP3   OH269795   4.415   0.991  12.384  0.6158 -0.0090  0.5598
16127TIP3    H169796   4.500   0.954  12.360  0.8628  1.5322 -1.0132
16127TIP3    H269797   4.423   1.008  12.478  2.5273  1.2918  0.2050
16128TIP3   OH269798   2.371   5.847   4.016 -0.0001 -0.6997  0.1230
16128TIP3    H169799   2.448   5.864   3.961  0.2778 -0.8306  0.4663
16128TIP3    H269800   2.356   5.753   4.007  0.7389 -0.9259  1.1597
16129TIP3   OH269801   1.393   4.480   0.687  0.2366 -0.1410 -0.5868
16129TIP3    H169802   1.364   4.558   0.733 -1.4183  0.3516 -2.4101
16129TIP3    H269803   1.395   4.412   0.754 -1.0292  0.8219  0.4420
16130TIP3   OH269804   2.479   0.573  14.382 -0.4931 -0.4274  0.2131
16130TIP3    H169805   2.403   0.616  14.342 -0.9040 -0.3887  1.0236
16130TIP3    H269806   2.475   0.483  14.349 -0.5972 -0.2867 -0.1572
16131TIP3   OH269807   0.196   5.289  13.662  0.0000 -0.1246  0.2302
16131TIP3    H169808   0.219   5.247  13.579  0.3053  0.9914 -0.2560
16131TIP3    H269809   0.159   5.218  13.715 -0.1359 -0.8608 -0.8302
16132TIP3   OH269810   3.163   4.904  13.152  0.1290 -0.5730 -0.6210
16132TIP3    H169811   3.193   4.977  13.207  0.0009  0.5574 -2.0143
16132TIP3    H269812   3.233   4.891  13.088 -0.9391  0.0208 -1.9467
16133TIP3   OH269813   3.031   0.549  16.105  0.9863 -0.3692  0.3416
16133TIP3    H169814   3.119   0.514  16.122  0.9186 -0.7834 -0.1563
16133TIP3    H269815   3.037   0.588  16.018  0.7934 -0.0092  0.4892
16134TIP3   OH269816   4.683   1.782   0.957  0.1972  0.3804 -0.0003
16134TIP3    H169817   4.599   1.783   0.913 -0.5404  0.2777  1.3841
16134TIP3    H269818   4.721   1.697   0.935  0.6147  1.0241 -1.8509
16135TIP3   OH269819   5.886   6.401  16.235 -0.0599  0.3418  0.2966
16135TIP3    H169820   5.899   6.398  16.140 -0.2722 -1.6009  0.2995
16135TIP3    H269821   5.793   6.381  16.247  0.0410  0.2354  0.9269
16136TIP3   OH269822   4.131   3.474   4.537  0.0547 -0.3721  0.3179
16136TIP3    H169823   4.123   3.492   4.631  0.2383 -0.3090  0.3213
16136TIP3    H269824   4.215   3.512   4.512 -0.4952  0.5837 -0.1067
16137TIP3   OH269825   1.109   2.417  15.698  0.0992 -0.1535 -0.1411
16137TIP3    H169826   1.110   2.492  15.639  1.2574  0.3773  0.5407
16137TIP3    H269827   1.021   2.417  15.736 -0.1484  0.4087 -0.7108
16138TIP3   OH269828   6.485   4.838  10.885 -0.1948 -0.6464 -0.2096
16138TIP3    H169829   6.522   4.859  10.799 -0.1093  1.1222  0.2287
16138TIP3    H269830   6.543   4.881  10.947 -0.6996 -1.2540  0.6905
16139TIP3   OH269831   5.565   5.799  13.582  0.0013  0.5343 -0.3420
16139TIP3    H169832   5.634   5.766  13.640  0.5884 -0.5764 -1.6718
16139TIP3    H269833   5.504   5.843  13.642  0.4882 -0.7710  1.1582
16140TIP3   OH269834   4.460   3.207   5.578  0.0156  0.0419  0.1240
16140TIP3    H169835   4.421   3.245   5.656  1.1804 -0.0710  0.7728
16140TIP3    H269836   4.446   3.113   5.588  0.7390 -0.0282  0.5270
16141TIP3   OH269837   4.620   3.929   4.713  0.1399  0.4851  0.7583
16141TIP3    H169838   4.671   3.929   4.632  0.0958 -1.3995  0.7156
16141TIP3    H269839   4.540   3.977   4.692 -0.8881 -1.9446 -0.9693
16142TIP3   OH269840   2.178   5.272   2.782  0.0344 -0.2259  0.4030
16142TIP3    H169841   2.203   5.349   2.833 -1.4978  0.5465  0.0408
16142TIP3    H269842   2.261   5.234   2.753  0.8302  0.9257  1.1177
16143TIP3   OH269843   4.955   1.896  13.161  0.4408  0.1754  0.2491
16143TIP3    H169844   4.868   1.873  13.190  0.0401  1.1450 -0.1426
16143TIP3    H269845   4.946   1.910  13.066  0.9447  0.5686  0.2546
16144TIP3   OH269846   5.021   1.555  13.068  0.1130  0.1540 -0.7275
16144TIP3    H169847   5.052   1.589  13.152  1.1861  1.9553 -1.8070
16144TIP3    H269848   4.975   1.474  13.090 -2.0426  2.0031  1.8906
16145TIP3   OH269849   5.067   5.377   4.354 -0.0685 -0.2547  0.2446
16145TIP3    H169850   5.046   5.373   4.261  0.5513 -2.5576  0.1815
16145TIP3    H269851   4.982   5.389   4.397 -0.2537  1.8413 -0.6383
16146TIP3   OH269852   1.669   5.290   5.209 -0.4310  0.5128  0.1034
16146TIP3    H169853   1.605   5.281   5.279 -1.4795 -0.2635 -0.9249
16146TIP3    H269854   1.753   5.293   5.254 -1.0302 -0.7421  1.3579
16147TIP3   OH269855   2.739   2.014   2.020  0.0562  0.6494  0.9793
16147TIP3    H169856   2.646   2.036   2.024 -0.0964 -0.1062  1.6901
16147TIP3    H269857   2.756   1.968   2.102  1.2534  1.5322  1.2390
16148TIP3   OH269858   0.043   0.210   2.889 -0.0712  0.5226  0.1213
16148TIP3    H169859  -0.026   0.271   2.912 -0.8954 -0.7463  1.1013
16148TIP3    H269860   0.030   0.135   2.948  0.9786 -0.5444 -0.9615
16149TIP3   OH269861   4.051   2.312  15.727 -0.6720 -0.1762 -0.3368
16149TIP3    H169862   4.085   2.343  15.811  0.4505 -1.7187 -0.1974
16149TIP3    H269863   3.992   2.381  15.698  0.3409  1.2144  0.8422
16150TIP3   OH269864   4.469   5.915   4.901 -0.0911  0.1565  0.5695
16150TIP3    H169865   4.413   5.975   4.950  0.3585  0.2223  1.0084
16150TIP3    H269866   4.408   5.863   4.849 -0.5833  0.0626  1.2273
16151TIP3   OH269867   2.254   2.534  13.431  0.3713 -0.2527  0.1222
16151TIP3    H169868   2.202   2.601  13.475  0.5370 -0.0898  0.0700
16151TIP3    H269869   2.310   2.498  13.500  2.5613  1.8506 -0.4866
16152TIP3   OH269870   4.176   5.361   3.839  0.1098 -0.4900 -0.0451
16152TIP3    H169871   4.103   5.354   3.901  0.4100 -0.6415  0.2884
16152TIP3    H269872   4.238   5.421   3.881  0.1126 -0.2443 -0.3951
16153TIP3   OH269873   3.569   5.854  14.867  0.2168  0.0891  0.3665
16153TIP3    H169874   3.605   5.927  14.818 -0.5914  0.8378  0.8538
16153TIP3    H269875   3.476   5.876  14.878 -0.2083 -1.3968 -0.1713
16154TIP3   OH269876   6.266   2.040   4.550 -0.1262 -0.0699 -0.5171
16154TIP3    H169877   6.344   2.094   4.538 -0.5900  0.5112 -0.9727
16154TIP3    H269878   6.237   2.059   4.639  1.0089 -1.3054  0.1300
16155TIP3   OH269879   1.609   1.793  11.912  0.1062  0.4320  0.1282
16155TIP3    H169880   1.535   1.745  11.874 -0.0380  0.8116 -0.0784
16155TIP3    H269881   1.685   1.765  11.861  0.2173 -0.4733  0.7825
16156TIP3   OH269882   1.285   3.062   3.645 -0.4796 -0.1591  0.2853
16156TIP3    H169883   1.303   3.152   3.619  0.1819 -0.4067 -0.1098
16156TIP3    H269884   1.321   3.008   3.574 -1.2524 -0.7212  0.3028
16157TIP3   OH269885   0.070   4.435  14.650  0.2006 -0.0443  0.0345
16157TIP3    H169886   0.070   4.385  14.569 -2.2892 -1.1492  0.6544
16157TIP3    H269887   0.050   4.370  14.718  0.2291  1.2203  1.2714
16158TIP3   OH269888   6.016   5.748  15.727  0.1097  0.0733 -0.1024
16158TIP3    H169889   6.076   5.701  15.785 -0.5019 -1.5135 -0.7537
16158TIP3    H269890   6.073   5.809  15.679  0.8217  0.4054  1.1197
16159TIP3   OH269891   1.620   6.201  13.978 -0.2107 -0.1458  0.2098
16159TIP3    H169892   1.565   6.186  14.055 -0.8554 -1.1471 -0.4354
16159TIP3    H269893   1.568   6.258  13.922 -1.0520 -1.9129 -0.8592
16160TIP3   OH269894   1.868   1.362   1.478 -0.0583 -0.0579  0.0626
16160TIP3    H169895   1.823   1.421   1.417 -0.6988 -1.7486 -1.1552
16160TIP3    H269896   1.803   1.294   1.498 -0.3074  1.1353  3.6982
16161TIP3   OH269897   0.502   3.962   2.181  0.4982  0.6300  0.4481
16161TIP3    H169898   0.521   4.056   2.179 -1.3601  1.0033 -0.7895
16161TIP3    H269899   0.407   3.957   2.178  0.5713 -1.3029  1.0004
16162TIP3   OH269900   3.313   1.154   5.284 -0.3298  0.5750 -0.5461
16162TIP3    H169901   3.248   1.142   5.214  0.0251  1.5875 -1.0460
16162TIP3    H269902   3.397   1.156   5.239 -0.0992  1.2174 -0.0925
16163TIP3   OH269903   3.969   1.725   5.476 -0.4123 -0.7307 -0.0568
16163TIP3    H169904   4.008   1.658   5.419 -0.0418 -1.1859  0.7284
16163TIP3    H269905   4.014   1.714   5.559 -1.1099 -0.2052  0.3883
16164TIP3   OH269906   2.659   3.828  15.533 -0.1222 -0.2796  0.2630
16164TIP3    H169907   2.691   3.870  15.454 -1.7109  1.1020  0.3117
16164TIP3    H269908   2.599   3.760  15.501  0.9272 -1.1997  0.2332
16165TIP3   OH269909   2.062   3.699   4.243  0.5679 -0.0422  0.0217
16165TIP3    H169910   2.131   3.747   4.197  1.1981 -0.7729  0.2007
16165TIP3    H269911   2.061   3.738   4.330  1.6789 -0.9266  0.4456
16166TIP3   OH269912   6.469   0.160   2.761 -0.0508  0.0802 -0.1177
16166TIP3    H169913   6.540   0.106   2.797 -1.1055 -0.4977  1.1684
16166TIP3    H269914   6.473   0.240   2.813 -1.3522 -0.6134  1.1061
16167TIP3   OH269915   0.840   2.221  14.087  0.5177  0.1853 -0.1896
16167TIP3    H169916   0.908   2.267  14.137 -1.3744  1.2407  1.5001
16167TIP3    H269917   0.773   2.200  14.152 -0.8151 -0.7864 -1.8350
16168TIP3   OH269918   3.225   3.661   5.325 -0.1430  0.2723 -0.3194
16168TIP3    H169919   3.216   3.615   5.409 -1.4158  1.5140  0.2466
16168TIP3    H269920   3.174   3.741   5.337  0.3811  0.8541 -1.9977
16169TIP3   OH269921   1.710   0.174  14.104  0.5458 -0.0278  1.0921
16169TIP3    H169922   1.686   0.244  14.165 -3.4841 -0.5649  0.2503
16169TIP3    H269923   1.654   0.188  14.028  1.1568 -2.9332  0.0378
16170TIP3   OH269924   4.175   4.208   1.754 -0.2500  0.4885 -0.4256
16170TIP3    H169925   4.133   4.258   1.825 -0.9106  0.7250 -0.9801
16170TIP3    H269926   4.229   4.143   1.799  0.8991  1.9158  0.3196
16171TIP3   OH269927   4.510   1.424   3.923 -0.0129 -0.0602  0.5312
16171TIP3    H169928   4.587   1.452   3.971 -0.2698  0.5426  0.5989
16171TIP3    H269929   4.440   1.424   3.989 -0.5722  1.7108 -0.0508
16172TIP3   OH269930   4.540   2.051   2.843 -0.2860 -0.3375  0.1309
16172TIP3    H169931   4.587   2.075   2.763 -0.0199 -1.7713 -0.1683
16172TIP3    H269932   4.529   2.133   2.890  1.5220  0.2031 -0.3371
16173TIP3   OH269933   1.110   2.612   3.342  0.2172  0.1461 -0.2191
16173TIP3    H169934   1.104   2.705   3.362  1.6430  0.1586  0.2076
16173TIP3    H269935   1.187   2.581   3.391  1.8236 -0.5223 -3.0370
16174TIP3   OH269936   5.633   1.820   6.137  0.2775  0.1013  0.0895
16174TIP3    H169937   5.610   1.766   6.061 -2.1994 -2.0696  2.2433
16174TIP3    H269938   5.584   1.901   6.125 -1.2449 -0.8031  0.0195
16175TIP3   OH269939   6.137   0.163  11.941  0.0724  0.8685  0.1128
16175TIP3    H169940   6.061   0.103  11.946  1.8488 -1.5297 -0.6592
16175TIP3    H269941   6.126   0.208  11.857 -0.6865  0.8107  0.1708
16176TIP3   OH269942   4.869   3.139  12.901 -0.2726 -0.2476  0.0071
16176TIP3    H169943   4.783   3.180  12.890 -1.6187 -2.8215  0.3239
16176TIP3    H269944   4.885   3.095  12.817  0.4388 -0.3265  0.1823
16177TIP3   OH269945   2.130   0.605  14.786 -0.5535  0.0063  0.0244
16177TIP3    H169946   2.208   0.553  14.767  0.6452  1.7617  0.0323
16177TIP3    H269947   2.058   0.554  14.750  0.6777 -1.2492 -0.7206
16178TIP3   OH269948   4.929   1.301  12.087 -0.1036 -0.7765  0.4491
16178TIP3    H169949   4.854   1.341  12.044  1.3115 -0.2082 -1.5514
16178TIP3    H269950   4.923   1.208  12.065  0.5888 -0.4956 -0.9992
16179TIP3   OH269951   1.531   6.453   1.818 -0.5647  0.6617 -0.2336
16179TIP3    H169952   1.592   6.517   1.853  0.8104 -0.5040 -0.4271
16179TIP3    H269953   1.524   6.386   1.887  2.0925 -1.6052 -2.0450
16180TIP3   OH269954   2.816   1.278  13.833  0.1137 -0.0841 -0.1726
16180TIP3    H169955   2.825   1.334  13.756 -0.7675 -0.6332 -0.6865
16180TIP3    H269956   2.724   1.253  13.833  0.2656 -0.6451  0.6743
16181TIP3   OH269957   4.905   5.341  13.175  0.0422 -1.1753  0.3624
16181TIP3    H169958   4.857   5.306  13.250  0.2469 -0.1934  0.9703
16181TIP3    H269959   4.844   5.402  13.134  0.9256  0.4991  1.4628
16182TIP3   OH269960   5.142   5.089   3.716  0.2643 -0.5735 -0.1599
16182TIP3    H169961   5.163   5.182   3.715  0.3539 -0.4854  3.0896
16182TIP3    H269962   5.211   5.048   3.664  0.7595  1.0733 -0.8192
16183TIP3   OH269963   0.856   2.595   0.296  0.0841  0.2207  0.4836
16183TIP3    H169964   0.802   2.621   0.221 -0.3343 -1.1114  0.3056
16183TIP3    H269965   0.945   2.591   0.261  0.1169  1.1209  0.4496
16184TIP3   OH269966   0.357   4.463  11.705 -0.1436  0.1339 -0.0926
16184TIP3    H169967   0.399   4.378  11.715  1.2001  0.6899 -0.8335
16184TIP3    H269968   0.265   4.448  11.729  0.6742 -0.8695  2.4857
16185TIP3   OH269969   2.946   5.956   1.760 -0.1260  0.3984 -0.0111
16185TIP3    H169970   2.975   5.979   1.672  0.9107  0.2918  0.2994
16185TIP3    H269971   3.019   5.981   1.817 -0.7669  0.4245  0.8153
16186TIP3   OH269972   1.523   5.869  13.882 -0.3635  0.1735 -0.5315
16186TIP3    H169973   1.438   5.859  13.926 -0.6407 -0.7788 -1.2714
16186TIP3    H269974   1.500   5.898  13.794  0.1170  0.6277 -0.5048
16187TIP3   OH269975   4.391   3.960  13.389  0.5984 -0.1666 -0.5914
16187TIP3    H169976   4.310   3.911  13.400  2.2209 -3.3689 -2.2679
16187TIP3    H269977   4.383   3.999  13.302  0.8594 -0.4745 -0.7533
16188TIP3   OH269978   3.773   2.071   3.774  0.2075  0.5465 -0.3162
16188TIP3    H169979   3.770   2.089   3.680  0.7478  0.6957 -0.3049
16188TIP3    H269980   3.866   2.075   3.796  0.2304 -0.9684 -0.0675
16189TIP3   OH269981   3.939   4.018   4.129 -0.5886 -0.2054 -0.4545
16189TIP3    H169982   3.932   3.989   4.038 -1.7593 -1.7649  0.1164
16189TIP3    H269983   3.850   4.012   4.163  0.1126 -1.2178  1.2549
16190TIP3   OH269984   3.349   5.211  15.827 -0.3323 -0.1659 -0.1402
16190TIP3    H169985   3.389   5.289  15.789  0.0608 -0.6553 -0.7384
16190TIP3    H269986   3.306   5.242  15.907  1.5066  0.3073  0.6800
16191TIP3   OH269987   1.124   3.445  12.995  0.5806  0.4585 -0.4430
16191TIP3    H169988   1.134   3.399  12.912 -0.8904 -0.7373  0.0252
16191TIP3    H269989   1.135   3.537  12.972  0.8946  0.0865 -1.8423
16192TIP3   OH269990   4.204   1.678   1.922  0.1013  0.3205 -0.0692
16192TIP3    H169991   4.219   1.635   1.838  1.1991  0.3869  0.0973
16192TIP3    H269992   4.272   1.744   1.929 -0.2597  0.6253  0.6732
16193TIP3   OH269993   2.253   5.155  16.081  0.7953 -0.2006 -0.3418
16193TIP3    H169994   2.177   5.126  16.131  1.0104 -0.0951  0.0444
16193TIP3    H269995   2.288   5.075  16.041  0.7563 -0.3172 -0.1436
16194TIP3   OH269996   1.215   4.285   2.108 -0.2732 -0.3747 -0.2750
16194TIP3    H169997   1.169   4.284   2.191 -0.1502  1.5571 -0.1453
16194TIP3    H269998   1.307   4.272   2.131 -0.1630  0.7620 -0.0218
16195TIP3   OH269999   5.172   2.263  15.316 -0.2229 -0.2062  0.3372
16195TIP3    H170000   5.234   2.229  15.252 -2.2066 -3.1381 -0.1200
16195TIP3    H270001   5.179   2.358  15.308  2.1998 -0.5067 -1.6263
16196TIP3   OH270002   2.982   4.085   2.122  0.3560 -0.0598  0.0028
16196TIP3    H170003   2.974   4.180   2.117 -0.3838 -0.0511  1.1785
16196TIP3    H270004   3.059   4.065   2.068  0.9065  1.2612  0.2720
16197TIP3   OH270005   2.273   4.783  12.843  0.2786  0.1524  1.0236
16197TIP3    H170006   2.304   4.694  12.824 -1.5280 -0.1454 -0.6025
16197TIP3    H270007   2.180   4.773  12.861 -0.7729  2.1698 -2.9080
16198TIP3   OH270008   2.992   5.372  13.010 -0.1418  0.1535  0.0907
16198TIP3    H170009   2.991   5.460  12.972 -0.1561 -0.1071 -0.5177
16198TIP3    H270010   3.035   5.318  12.944 -0.7621 -0.4334  0.1612
16199TIP3   OH270011   0.764   1.980   3.033  0.6891  0.3045  0.6769
16199TIP3    H170012   0.763   2.034   3.112  2.0955  1.5021 -0.0870
16199TIP3    H270013   0.764   2.043   2.961  0.6752 -0.7452 -0.2623
16200TIP3   OH270014   5.583   4.056  14.064  0.2783 -0.1561 -0.0333
16200TIP3    H170015   5.495   4.026  14.040 -0.2521  0.3223  1.2371
16200TIP3    H270016   5.612   3.992  14.130  0.4464  0.2784  0.3162
16201TIP3   OH270017   6.629   0.081   4.914 -0.0008  0.0381 -0.5929
16201TIP3    H170018   6.554   0.104   4.969  0.2056  1.3969 -0.8693
16201TIP3    H270019   6.610  -0.008   4.882 -2.8941  1.4664 -3.0361
16202TIP3   OH270020   0.159   5.587   3.167  0.4693 -0.5961 -0.2375
16202TIP3    H170021   0.188   5.669   3.127  0.8611 -0.8911 -0.5616
16202TIP3    H270022   0.217   5.520   3.131 -0.0869 -1.0732 -0.2690
16203TIP3   OH270023   0.488   0.261   5.501 -0.1189 -0.4642  0.0779
16203TIP3    H170024   0.504   0.228   5.413  0.1638  2.0693 -0.8705
16203TIP3    H270025   0.392   0.267   5.507 -0.1136  0.4103 -0.5015
16204TIP3   OH270026   5.648   3.940   6.096 -0.4411  0.0227 -0.1313
16204TIP3    H170027   5.612   3.943   6.007 -0.0560  2.5902 -0.2405
16204TIP3    H270028   5.584   3.988   6.149  1.4273  2.2933  0.1634
16205TIP3   OH270029   3.310   2.196   1.016  0.2270  0.0972  0.3572
16205TIP3    H170030   3.275   2.146   1.089  2.2897 -2.2833 -0.2245
16205TIP3    H270031   3.272   2.155   0.938  0.0054  1.0333 -0.0448
16206TIP3   OH270032   2.340   5.144  11.470  0.2367 -0.6532  0.0612
16206TIP3    H170033   2.268   5.207  11.478 -0.7042 -1.4506 -1.6053
16206TIP3    H270034   2.399   5.183  11.405  0.2019 -0.9795 -0.1671
16207TIP3   OH270035   0.754   1.062  15.249 -0.1076 -0.4793  0.0682
16207TIP3    H170036   0.736   1.143  15.203 -0.0962 -0.9060 -0.7056
16207TIP3    H270037   0.849   1.050  15.240 -0.0783 -0.4688  0.3623
16208TIP3   OH270038   0.103   4.966   2.146 -0.2944 -0.4694  0.4789
16208TIP3    H170039   0.037   4.942   2.211 -0.2800 -0.6328  0.4318
16208TIP3    H270040   0.142   4.883   2.119  1.1943 -0.2496  1.8301
16209TIP3   OH270041   0.717   4.753   0.982 -0.3483 -0.2251  0.1042
16209TIP3    H170042   0.679   4.834   0.948 -1.5577  0.6840  3.3660
16209TIP3    H270043   0.776   4.781   1.052  0.0238 -2.0950  0.5855
16210TIP3   OH270044   0.795   3.869  14.004 -0.3019  0.6205  0.4912
16210TIP3    H170045   0.850   3.926  13.951 -2.5428  1.2654 -1.2098
16210TIP3    H270046   0.790   3.912  14.090  0.8489  1.1646  0.2850
16211TIP3   OH270047   6.198   6.341   4.966 -0.6669  0.2703 -0.1539
16211TIP3    H170048   6.123   6.338   4.907 -1.9097 -1.4072  1.4581
16211TIP3    H270049   6.219   6.434   4.973 -4.0980  1.0117  1.1863
16212TIP3   OH270050   2.123   6.125  12.885  0.0803 -0.5632 -0.3714
16212TIP3    H170051   2.176   6.204  12.886 -1.5638  0.5543 -0.4181
16212TIP3    H270052   2.129   6.091  12.975 -2.8186  2.1052  0.9437
16213TIP3   OH270053   0.716   5.748   2.530 -0.1797 -0.0823 -0.3183
16213TIP3    H170054   0.710   5.653   2.533 -0.3834 -0.0754 -0.5247
16213TIP3    H270055   0.643   5.779   2.584 -1.0665 -0.0247 -1.5405
16214TIP3   OH270056   2.510   0.260   5.378  0.1313 -0.3004  0.4641
16214TIP3    H170057   2.482   0.192   5.440  0.0917  1.2591  2.2065
16214TIP3    H270058   2.554   0.212   5.308 -2.8177 -2.4146 -0.0240
16215TIP3   OH270059   3.942   5.613   3.086  0.0029 -0.2648 -0.2401
16215TIP3    H170060   3.876   5.655   3.142 -0.9185 -1.9323 -0.0628
16215TIP3    H270061   3.967   5.534   3.133  2.4933  0.5480 -0.0895
16216TIP3   OH270062   3.640   1.132  14.808 -0.2019  0.3987  0.0648
16216TIP3    H170063   3.555   1.153  14.845 -1.0594 -1.0893 -1.0357
16216TIP3    H270064   3.677   1.068  14.869  0.7441  2.0069  1.2646
16217TIP3   OH270065   2.657   5.031   2.253 -0.1388  0.0832  0.4125
16217TIP3    H170066   2.577   4.993   2.289  0.0264 -0.9784 -0.3108
16217TIP3    H270067   2.656   5.121   2.283 -1.8852  0.2397 -0.0108
16218TIP3   OH270068   2.400   4.249  12.665 -0.1287  0.4038 -0.6822
16218TIP3    H170069   2.340   4.180  12.638  0.9698 -1.2173  0.8936
16218TIP3    H270070   2.380   4.264  12.758  0.5137  1.3174 -0.6775
16219TIP3   OH270071   6.386   1.910  11.538 -0.1157  0.0897 -0.1963
16219TIP3    H170072   6.355   1.996  11.566  0.5731  0.0558  0.7221
16219TIP3    H270073   6.473   1.927  11.502  0.5372 -0.3783  1.1203
16220TIP3   OH270074   2.013   5.100   4.984  0.2106  0.0706 -0.4463
16220TIP3    H170075   1.949   5.066   5.047  1.4008  2.1782  2.0130
16220TIP3    H270076   2.043   5.023   4.936 -0.4354 -1.6799  1.8627
16221TIP3   OH270077   2.800   5.302  14.418 -0.2802  0.2221  0.0468
16221TIP3    H170078   2.846   5.313  14.334 -0.4444  2.8976  0.2662
16221TIP3    H270079   2.860   5.337  14.483 -0.4303 -1.2429  0.9937
16222TIP3   OH270080   1.974   3.009   1.971  0.0822 -0.2908 -0.4788
16222TIP3    H170081   1.968   3.027   1.878 -2.0363 -0.9787 -0.5080
16222TIP3    H270082   1.890   3.039   2.007  0.0589 -1.8628  0.8517
16223TIP3   OH270083   4.962   1.234  11.177 -0.2704  0.6850  0.2512
16223TIP3    H170084   4.929   1.304  11.233 -2.0217 -0.5643  0.8069
16223TIP3    H270085   4.906   1.159  11.196  0.8627 -0.5557 -1.1615
16224TIP3   OH270086   1.191   1.734   5.434 -0.0456 -0.7100 -0.2942
16224TIP3    H170087   1.113   1.678   5.440 -0.8505  0.4811  0.5200
16224TIP3    H270088   1.172   1.808   5.492  0.7853  0.7022 -1.7991
16225TIP3   OH270089   1.492   2.381  11.508 -0.4440 -0.3315  0.2712
16225TIP3    H170090   1.513   2.293  11.478  0.9725 -0.4504  1.5822
16225TIP3    H270091   1.453   2.423  11.431 -0.9877 -2.0233 -0.4193
16226TIP3   OH270092   1.375   5.933   3.668  0.0231  0.7558  0.0550
16226TIP3    H170093   1.367   6.014   3.617 -0.3631  0.7232  0.0635
16226TIP3    H270094   1.285   5.907   3.685  0.1505  0.4619  0.2744
16227TIP3   OH270095   0.635   6.227  12.886 -0.9571  0.0632 -0.6555
16227TIP3    H170096   0.726   6.236  12.915 -1.8121  0.0413  2.1693
16227TIP3    H270097   0.612   6.314  12.853 -0.2471  0.3858 -0.3086
16228TIP3   OH270098   1.104   0.887   5.065 -0.4200  0.1265 -0.1584
16228TIP3    H170099   1.060   0.972   5.062 -1.3307 -0.2932  0.6888
16228TIP3    H270100   1.103   0.864   5.158  1.2933 -0.0654 -0.1754
16229TIP3   OH270101   2.177   0.859   4.994 -0.1193  0.2502  0.4733
16229TIP3    H170102   2.264   0.884   4.964 -0.0490 -0.5771 -0.0302
16229TIP3    H270103   2.192   0.805   5.071 -0.1492 -0.7196 -0.2035
16230TIP3   OH270104   6.231   3.438   3.836 -0.1537 -0.2647 -0.3914
16230TIP3    H170105   6.296   3.384   3.881 -1.1757 -0.4307  0.9315
16230TIP3    H270106   6.151   3.386   3.840 -0.5522  0.2784 -1.3046
16231TIP3   OH270107   3.458   6.582  12.893  0.8954 -0.2001 -0.1628
16231TIP3    H170108   3.511   6.545  12.964  2.5762 -0.0587 -1.3138
16231TIP3    H270109   3.522   6.613  12.829 -0.5608  1.3187 -0.9271
16232TIP3   OH270110   5.985   5.070   6.575 -0.3877 -0.2784 -0.3859
16232TIP3    H170111   5.968   4.984   6.537  1.2840 -0.2439 -1.2383
16232TIP3    H270112   6.080   5.079   6.574 -0.5604  1.9696 -1.2042
16233TIP3   OH270113   6.727   2.393  14.340  0.2126 -0.6301  0.7349
16233TIP3    H170114   6.815   2.356  14.333 -0.4268 -2.4269  1.9028
16233TIP3    H270115   6.687   2.374  14.254  0.4479 -1.2284  0.7512
16234TIP3   OH270116   0.396   4.066  13.483  0.1134 -0.0422 -0.1925
16234TIP3    H170117   0.330   4.048  13.550 -1.2469  0.1126 -1.4628
16234TIP3    H270118   0.345   4.080  13.403  1.7782 -2.0640 -1.6550
16235TIP3   OH270119   4.886   1.615   1.808 -0.1768  0.9020 -0.3774
16235TIP3    H170120   4.818   1.557   1.842  1.6776 -1.0906  0.0103
16235TIP3    H270121   4.912   1.575   1.724 -0.6458  2.5790 -1.3473
16236TIP3   OH270122   0.024   0.090  13.483 -0.4094  0.2863  0.2583
16236TIP3    H170123  -0.056   0.058  13.526 -0.7013  2.1573  1.1591
16236TIP3    H270124   0.090   0.024  13.504 -1.0716  0.0970  1.8449
16237TIP3   OH270125   3.910   5.878  16.440  0.2825 -0.2237  0.2912
16237TIP3    H170126   3.947   5.835  16.362  0.2668 -1.6783  1.0553
16237TIP3    H270127   3.816   5.875  16.427  0.3511  1.4676 -0.6242
16238TIP3   OH270128   3.809   4.958   2.307  0.2041  0.2743 -0.4112
16238TIP3    H170129   3.865   4.942   2.231  0.8512  1.5937 -0.2317
16238TIP3    H270130   3.796   5.053   2.307 -1.1074  0.0967  0.2023
16239TIP3   OH270131   0.740   4.535   4.039 -0.0789 -0.1960 -0.4849
16239TIP3    H170132   0.729   4.456   4.091  0.3955  1.4132  2.1674
16239TIP3    H270133   0.668   4.592   4.065 -0.2842  0.3653 -2.1885
16240TIP3   OH270134   3.394   4.444  13.922 -0.2735  0.0352  0.2822
16240TIP3    H170135   3.480   4.415  13.893 -0.4833  0.7655 -1.0753
16240TIP3    H270136   3.364   4.504  13.854 -1.9331 -0.3426  0.6674
16241TIP3   OH270137   4.016   3.909   6.646 -1.0828 -0.1230  0.1867
16241TIP3    H170138   4.080   3.842   6.625  0.0681  1.0682 -0.1530
16241TIP3    H270139   3.961   3.915   6.568 -0.6257 -0.0423 -0.1333
16242TIP3   OH270140   5.093   2.602  14.148  0.0037 -0.2540 -0.0162
16242TIP3    H170141   5.171   2.581  14.096 -1.1535 -0.3912 -1.7262
16242TIP3    H270142   5.068   2.690  14.121 -0.1867 -0.0209  0.8785
16243TIP3   OH270143   3.739   1.628  15.976 -0.1301  0.2221  0.1357
16243TIP3    H170144   3.828   1.662  15.985 -0.4143  0.5948  1.7560
16243TIP3    H270145   3.747   1.534  15.991 -0.0092  0.2591  0.3052
16244TIP3   OH270146   1.185   2.630   5.419  0.5215  0.1684 -0.0712
16244TIP3    H170147   1.195   2.588   5.505 -2.7846 -1.3486 -0.3522
16244TIP3    H270148   1.209   2.562   5.356  1.4110  0.7884 -0.4177
16245TIP3   OH270149   5.041   4.283   2.281  0.1928  0.0982 -0.4457
16245TIP3    H170150   4.984   4.223   2.232 -0.2197 -0.3017  0.5114
16245TIP3    H270151   5.071   4.232   2.357  0.5191  0.8293 -0.0753
16246TIP3   OH270152   0.350   5.246   6.620  0.3286  0.3759  0.0945
16246TIP3    H170153   0.372   5.208   6.536 -0.6205  0.1343 -0.0462
16246TIP3    H270154   0.421   5.219   6.678  1.1199  0.7653 -0.6873
16247TIP3   OH270155   5.824   3.007   5.583  0.0340 -0.1176 -0.4814
16247TIP3    H170156   5.758   2.939   5.593 -0.3505  0.4338  0.7811
16247TIP3    H270157   5.802   3.072   5.650 -1.6105  2.8673 -3.7626
16248TIP3   OH270158   2.579   5.820   1.381  0.7455  0.0969 -0.2267
16248TIP3    H170159   2.529   5.738   1.384  1.0359 -0.1431 -1.6736
16248TIP3    H270160   2.564   5.854   1.293  0.6539  1.5943  0.3521
16249TIP3   OH270161   0.177   5.728  13.792 -0.0797  0.0431  0.1159
16249TIP3    H170162   0.117   5.720  13.718  0.5453  0.1767 -0.4121
16249TIP3    H270163   0.248   5.667  13.772  0.5703  0.7908  0.1278
16250TIP3   OH270164   0.793   5.183  14.565 -0.5204 -0.1333  0.5318
16250TIP3    H170165   0.764   5.158  14.653  1.1286 -1.6677  0.6698
16250TIP3    H270166   0.745   5.123  14.507  1.9287 -2.3730  0.7328
16251TIP3   OH270167   1.787   6.519  13.279  0.7696  0.1563  0.3096
16251TIP3    H170168   1.776   6.424  13.274  0.9585  0.1545 -0.1147
16251TIP3    H270169   1.700   6.553  13.298  0.3761  0.0183 -1.1843
16252TIP3   OH270170   4.735   5.585   3.912  0.2520  0.2725  0.1284
16252TIP3    H170171   4.708   5.531   3.986  0.1206  1.4524  0.9604
16252TIP3    H270172   4.828   5.601   3.927  1.0012 -2.1546 -1.6915
16253TIP3   OH270173   5.417   5.713  16.721  0.8301 -0.2594  0.0214
16253TIP3    H170174   5.383   5.702  16.633 -0.8889 -0.7891  0.7480
16253TIP3    H270175   5.406   5.806  16.740 -1.6442 -0.6937  0.8197
16254TIP3   OH270176   3.213   6.059   4.166 -0.0173 -0.5778  0.1011
16254TIP3    H170177   3.126   6.052   4.128 -0.2258 -1.0170  0.6467
16254TIP3    H270178   3.228   5.974   4.207  0.0950 -0.0382  1.2133
16255TIP3   OH270179   6.169   2.605   1.320 -0.2125  0.0174  0.5808
16255TIP3    H170180   6.242   2.546   1.298 -0.1771  0.5304 -0.6503
16255TIP3    H270181   6.091   2.552   1.308 -0.1699  0.1705 -0.3378
16256TIP3   OH270182   0.621   2.245  14.280 -0.4517 -0.3262 -0.4614
16256TIP3    H170183   0.557   2.290  14.224  1.2227 -0.0837 -2.1930
16256TIP3    H270184   0.620   2.297  14.361 -1.9572  0.0692 -0.6974
16257TIP3   OH270185   1.786   4.811  11.139  0.0631  0.6968 -0.3681
16257TIP3    H170186   1.777   4.829  11.045  1.3897  0.3823 -0.5647
16257TIP3    H270187   1.837   4.731  11.143 -0.6879  0.2552  0.6274
16258TIP3   OH270188   5.698   2.357   5.870 -0.0242 -0.2187 -0.7075
16258TIP3    H170189   5.740   2.302   5.936 -2.1729 -1.3499 -0.2477
16258TIP3    H270190   5.741   2.333   5.788  0.1342 -1.4666 -0.2674
16259TIP3   OH270191   0.535   4.264  17.055 -0.1829  0.2341  0.3275
16259TIP3    H170192   0.447   4.288  17.084  0.1095 -0.4215  1.8291
16259TIP3    H270193   0.592   4.286  17.129  0.6244 -1.2448  0.1780
16260TIP3   OH270194   2.614   2.043   3.886  0.1984 -0.0545 -0.4099
16260TIP3    H170195   2.610   1.958   3.929  0.0328  0.0474 -0.2275
16260TIP3    H270196   2.644   2.104   3.954  0.7901 -0.0547 -0.6638
16261TIP3   OH270197   0.628   1.809   0.767  0.3422 -0.6510  0.0559
16261TIP3    H170198   0.593   1.895   0.747 -1.1543 -0.7938  1.8977
16261TIP3    H270199   0.652   1.814   0.859  0.8400 -2.0018  0.0102
16262TIP3   OH270200   5.661   2.249  14.218 -1.1415 -0.1562 -0.3880
16262TIP3    H170201   5.679   2.213  14.131 -1.0222  0.2999 -0.5539
16262TIP3    H270202   5.744   2.241  14.265 -1.2699 -0.6249 -0.2340
16263TIP3   OH270203   4.600   4.824   5.888  0.4463  0.0704  0.1569
16263TIP3    H170204   4.655   4.746   5.897 -0.1077 -0.0932  2.5233
16263TIP3    H270205   4.512   4.789   5.877  0.4681  0.3560 -0.9555
16264TIP3   OH270206   5.476   6.271  13.451  0.4232  0.0290 -0.1432
16264TIP3    H170207   5.403   6.311  13.498  0.8323 -0.1870  0.6870
16264TIP3    H270208   5.451   6.179  13.442 -0.3047  0.3458 -1.6414
16265TIP3   OH270209   3.107   0.597   2.585  0.4932  0.2556  0.0091
16265TIP3    H170210   3.123   0.683   2.546  0.8460 -0.7145 -2.0592
16265TIP3    H270211   3.043   0.613   2.655 -0.3491  2.0225 -1.1368
16266TIP3   OH270212   3.064   6.599   2.735 -0.2189 -0.0254 -0.9822
16266TIP3    H170213   3.060   6.667   2.668 -1.5746  1.3860  0.4903
16266TIP3    H270214   2.972   6.581   2.755  0.1799 -0.5223  0.4093
16267TIP3   OH270215   5.006   1.880  16.272  0.2743 -0.3972 -0.1044
16267TIP3    H170216   5.045   1.919  16.193  1.7918 -1.5538  0.0499
16267TIP3    H270217   4.955   1.951  16.311  0.4757  0.5344 -1.4829
16268TIP3   OH270218   0.228   2.561   3.499  0.0178  0.0195 -0.6228
16268TIP3    H170219   0.246   2.606   3.582  0.3849  1.6737 -1.5739
16268TIP3    H270220   0.181   2.627   3.447 -0.4825 -1.1111 -1.6090
16269TIP3   OH270221   1.778   5.656  14.078 -0.1932  0.5646 -0.1299
16269TIP3    H170222   1.787   5.682  13.986  0.6806  0.9296  0.0448
16269TIP3    H270223   1.839   5.583  14.088  1.6149  2.1395  0.7521
16270TIP3   OH270224   6.053   4.831   1.510 -0.1686  0.1380  0.2143
16270TIP3    H170225   5.997   4.814   1.586  0.5210 -1.1450  0.4396
16270TIP3    H270226   6.074   4.744   1.475  1.3801  0.6158 -0.0919
16271TIP3   OH270227   3.576   2.820   5.927 -0.2690  0.3709 -0.3320
16271TIP3    H170228   3.542   2.767   5.855 -0.7514  0.3086 -0.0609
16271TIP3    H270229   3.576   2.909   5.893 -1.5747  0.4973 -0.0236
16272TIP3   OH270230   1.482   6.176  11.691  0.2670  0.5294  0.7171
16272TIP3    H170231   1.488   6.261  11.646 -2.0792  0.5414  0.3606
16272TIP3    H270232   1.573   6.150  11.706  1.0836  1.3141 -2.5554
16273TIP3   OH270233   4.720   4.940   0.480 -0.6223  0.4382 -0.0404
16273TIP3    H170234   4.813   4.919   0.482 -0.9749 -1.3113 -0.9529
16273TIP3    H270235   4.717   5.035   0.478  1.1028  0.5706  1.7442
16274TIP3   OH270236   2.423   6.733   1.311  0.0423 -0.1368  0.2411
16274TIP3    H170237   2.477   6.712   1.235  0.4752  1.1012  0.1907
16274TIP3    H270238   2.334   6.707   1.285  0.1829  0.2929 -0.6947
16275TIP3   OH270239   3.122   5.620  13.398  0.2797 -0.1305 -0.1082
16275TIP3    H170240   3.065   5.679  13.448  2.1640  1.4549  0.2307
16275TIP3    H270241   3.144   5.550  13.460 -0.3475 -0.1411  0.1089
16276TIP3   OH270242   2.031   1.926   5.956  0.5225  0.0123  0.6024
16276TIP3    H170243   2.088   1.891   5.887  1.6407 -1.1417  2.0748
16276TIP3    H270244   2.090   1.946   6.028 -0.6697  0.9608  1.3366
16277TIP3   OH270245   1.502   3.664   3.930 -0.1602  0.6583 -0.0260
16277TIP3    H170246   1.427   3.632   3.881 -0.1281  0.8251 -0.1832
16277TIP3    H270247   1.464   3.702   4.009 -0.1427 -0.4696  0.5338
16278TIP3   OH270248   3.524   1.886  12.271  0.1271  0.3682 -0.5472
16278TIP3    H170249   3.604   1.850  12.310 -0.0529  0.7604  0.1979
16278TIP3    H270250   3.555   1.962  12.221 -0.0337  1.9870  1.7022
16279TIP3   OH270251   1.538   4.261  13.604  0.4602  0.6452 -0.1253
16279TIP3    H170252   1.601   4.208  13.555 -0.2197 -1.0388  0.7645
16279TIP3    H270253   1.461   4.263  13.547 -0.3199 -1.2882  0.8093
16280TIP3   OH270254   5.627   4.085  15.114 -0.0043  0.2694 -0.1529
16280TIP3    H170255   5.567   4.088  15.189 -0.1408  0.7583 -0.2837
16280TIP3    H270256   5.677   4.166  15.120 -0.6396  0.7438 -1.1052
16281TIP3   OH270257   2.671   4.611   5.322 -0.1776 -0.0837 -0.7132
16281TIP3    H170258   2.597   4.669   5.301  0.5449  1.2155  0.2588
16281TIP3    H270259   2.667   4.601   5.417  0.7467 -0.2250 -0.6916
16282TIP3   OH270260   2.900   0.251  15.827 -0.4444  0.1381  0.2707
16282TIP3    H170261   2.903   0.295  15.742  2.1343 -0.5369 -0.0337
16282TIP3    H270262   2.922   0.320  15.891  0.3848  0.0161  0.1157
16283TIP3   OH270263   6.549   3.810  15.587 -0.3458 -0.2528  0.2163
16283TIP3    H170264   6.623   3.773  15.539  0.2864  0.1808  0.8319
16283TIP3    H270265   6.507   3.870  15.525  1.8357  2.0727  0.8788
16284TIP3   OH270266   6.002   4.023   2.267 -0.4839 -0.4379 -0.5178
16284TIP3    H170267   5.984   4.035   2.174 -2.5180 -0.6391 -0.1624
16284TIP3    H270268   6.030   3.932   2.275 -2.0240 -0.9294 -0.6789
16285TIP3   OH270269   3.956   5.845   3.445 -0.0116  0.4924  0.3291
16285TIP3    H170270   4.042   5.818   3.476  0.4834  0.9986 -0.5487
16285TIP3    H270271   3.930   5.776   3.384  0.2609  0.8640 -0.2180
16286TIP3   OH270272   1.424   6.181  13.293  0.0763  0.4087 -0.6245
16286TIP3    H170273   1.502   6.173  13.348 -0.8869  1.3762  0.8964
16286TIP3    H270274   1.350   6.174  13.354 -1.0431 -0.2076 -2.0074
16287TIP3   OH270275   0.632   0.180   3.193  0.0073 -0.1673 -0.3951
16287TIP3    H170276   0.578   0.260   3.193 -0.0522 -0.1817  1.9357
16287TIP3    H270277   0.569   0.109   3.181 -0.3112 -0.0616  0.5858
16288TIP3   OH270278   5.861   6.621   2.576  0.0488 -0.2342 -0.1730
16288TIP3    H170279   5.788   6.576   2.619  1.1556 -2.9338 -1.0036
16288TIP3    H270280   5.939   6.573   2.606  1.1059 -0.0310 -2.5011
16289TIP3   OH270281   1.076   5.790   1.387  0.3524 -0.4167  0.1638
16289TIP3    H170282   1.071   5.835   1.471 -0.4540 -1.4902  0.7117
16289TIP3    H270283   1.044   5.854   1.324  0.3010  0.1647  0.7674
16290TIP3   OH270284   4.105   2.510  14.583 -0.2730  0.6848  0.6061
16290TIP3    H170285   4.031   2.449  14.580  0.1631  0.1797  0.0850
16290TIP3    H270286   4.151   2.489  14.665 -1.6226  2.0953  1.7726
16291TIP3   OH270287   6.155   5.791  14.521  0.2503 -0.3601 -0.4012
16291TIP3    H170288   6.160   5.874  14.570  0.0779 -0.3026 -0.4805
16291TIP3    H270289   6.080   5.803  14.462  1.5644  0.2661 -1.9803
16292TIP3   OH270290   2.414   1.053   3.599 -0.5356  0.3071  0.1155
16292TIP3    H170291   2.397   1.147   3.607 -1.4614  0.2045 -0.5158
16292TIP3    H270292   2.340   1.011   3.643  0.5540 -0.1199  1.5455
16293TIP3   OH270293   4.131   0.382   2.118 -0.6900 -0.2417  0.2687
16293TIP3    H170294   4.155   0.434   2.041  1.0987 -0.7282  0.4676
16293TIP3    H270295   4.203   0.319   2.127  0.2868  1.2202  3.6125
16294TIP3   OH270296   2.607   3.640  14.715  0.0352 -0.7692  0.0147
16294TIP3    H170297   2.631   3.599  14.798  1.1718 -0.2566 -0.0497
16294TIP3    H270298   2.686   3.686  14.687 -0.1263 -1.4817 -1.6843
16295TIP3   OH270299   1.568   0.036   3.498  0.3161  0.1448 -0.0328
16295TIP3    H170300   1.552   0.102   3.566  0.0184  0.2239 -0.1757
16295TIP3    H270301   1.663   0.034   3.488  0.3805 -0.0768  0.5891
16296TIP3   OH270302   1.588   2.851  15.733 -0.1696  0.4704  0.8566
16296TIP3    H170303   1.556   2.902  15.659 -1.0579  0.4419  1.2216
16296TIP3    H270304   1.582   2.760  15.703 -1.0561  0.4250  1.1645
16297TIP3   OH270305   4.754   3.114  12.449 -0.4144  0.1245  0.8876
16297TIP3    H170306   4.771   3.193  12.500 -3.3519  0.6499  1.1825
16297TIP3    H270307   4.731   3.048  12.514  1.3803 -0.8094  0.5912
16298TIP3   OH270308   5.302   3.580  10.539  0.0244 -0.2034  0.1673
16298TIP3    H170309   5.334   3.645  10.601  1.0111 -0.9530  0.4759
16298TIP3    H270310   5.294   3.500  10.591 -2.8134  0.0507  0.1946
16299TIP3   OH270311   4.151   0.671  16.559 -0.3497  0.1669 -0.2852
16299TIP3    H170312   4.073   0.643  16.607  1.1035  0.7698  2.5649
16299TIP3    H270313   4.215   0.601  16.575  0.2028  0.4268 -1.3042
16300TIP3   OH270314   6.383   4.813  12.000  0.3932  0.5698 -0.5876
16300TIP3    H170315   6.369   4.900  12.039  1.1477  0.7420 -0.6801
16300TIP3    H270316   6.415   4.760  12.073  0.1219  0.4266 -0.5753
16301TIP3   OH270317   6.518   2.111   0.288  0.7107 -0.5571  0.0182
16301TIP3    H170318   6.529   2.195   0.332  0.3562 -0.0998 -0.7683
16301TIP3    H270319   6.572   2.117   0.209 -0.1821 -0.6573 -0.6030
16302TIP3   OH270320   5.124   1.739  12.667 -0.1404 -0.7336  0.1540
16302TIP3    H170321   5.192   1.801  12.641 -1.1040  0.3334  0.1497
16302TIP3    H270322   5.114   1.682  12.591  1.0076 -1.1492  0.2956
16303TIP3   OH270323   1.345   0.723   0.706 -0.0526 -0.1989  0.2399
16303TIP3    H170324   1.432   0.744   0.671 -0.8736  1.2698 -0.9930
16303TIP3    H270325   1.362   0.665   0.780  1.8766 -1.4525 -1.1394
16304TIP3   OH270326   2.917   4.602  13.311 -0.1032  0.4719 -0.2485
16304TIP3    H170327   2.931   4.632  13.400  0.0993 -1.1602  0.2825
16304TIP3    H270328   2.913   4.683  13.259  2.0055  1.3470  0.9040
16305TIP3   OH270329   4.889   1.478   2.969  0.3906  0.2842  0.4907
16305TIP3    H170330   4.969   1.442   2.931  0.3703  0.0374  0.6790
16305TIP3    H270331   4.826   1.405   2.966  0.4037  0.2508  1.0350
16306TIP3   OH270332   6.432   1.193  16.924  0.1692  0.4076 -0.4169
16306TIP3    H170333   6.405   1.223  16.837  2.5397 -0.7566 -1.5932
16306TIP3    H270334   6.506   1.249  16.947  1.3641 -1.1340 -0.4175
16307TIP3   OH270335   0.941   4.361   0.429 -0.3633  0.0817 -0.4703
16307TIP3    H170336   0.855   4.398   0.411 -1.1213 -1.2670  0.2782
16307TIP3    H270337   0.996   4.436   0.453 -1.2856  0.9620 -1.1022
16308TIP3   OH270338   5.470   5.267  13.019 -0.6728 -0.2172 -0.1671
16308TIP3    H170339   5.488   5.197  12.957 -0.4329  0.2413 -0.6169
16308TIP3    H270340   5.544   5.327  13.009 -0.9011  0.1262  0.1837
16309TIP3   OH270341   1.843   1.317   2.297  0.1401  0.4766  0.6207
16309TIP3    H170342   1.891   1.390   2.258  0.4488  0.1295  0.3465
16309TIP3    H270343   1.912   1.255   2.323 -0.1874 -0.3812 -0.4949
16310TIP3   OH270344   2.260   3.046  12.226  0.0244  0.1129  0.6538
16310TIP3    H170345   2.276   2.977  12.291 -0.1646 -1.2262 -0.6921
16310TIP3    H270346   2.293   3.009  12.144  0.8473  2.0342  0.0880
16311TIP3   OH270347   6.225   1.402  17.237  0.4326  0.2323  0.2605
16311TIP3    H170348   6.302   1.350  17.260 -0.3168 -1.0959 -0.1655
16311TIP3    H270349   6.259   1.473  17.182  1.0878 -1.6573 -1.8506
16312TIP3   OH270350   6.384   3.429   5.642  0.2149  0.4669 -0.3754
16312TIP3    H170351   6.478   3.444   5.650  0.4333 -0.9959 -0.1870
16312TIP3    H270352   6.353   3.420   5.732  0.0125  0.1845 -0.4712
16313TIP3   OH270353   4.353   1.639  17.028 -0.8189  0.4976  0.2087
16313TIP3    H170354   4.329   1.560  16.980  1.6479  0.3350 -0.8075
16313TIP3    H270355   4.301   1.709  16.987 -1.9538 -0.3470  0.1887
16314TIP3   OH270356   3.563   0.553   5.148 -0.0600 -0.2657  0.0624
16314TIP3    H170357   3.490   0.505   5.186  0.6917 -0.5572  1.1502
16314TIP3    H270358   3.628   0.486   5.126  0.1371  0.0521 -0.3518
16315TIP3   OH270359   1.926   0.495  11.152 -0.6467  0.0086 -0.3274
16315TIP3    H170360   1.908   0.567  11.092  1.3437  1.3207  0.5604
16315TIP3    H270361   1.922   0.416  11.099 -1.2885  0.9290 -1.6539
16316TIP3   OH270362   4.425   2.273  10.701  0.8610 -0.1875 -0.6887
16316TIP3    H170363   4.390   2.268  10.790 -2.4905 -0.8494 -1.9813
16316TIP3    H270364   4.460   2.362  10.695 -1.1320  0.7245  0.5258
16317TIP3   OH270365   6.417   1.783  15.687 -0.1790  0.0946 -0.0361
16317TIP3    H170366   6.333   1.829  15.682  0.1495  0.8542  1.1869
16317TIP3    H270367   6.479   1.840  15.641  0.2772  1.0395  1.6823
16318TIP3   OH270368   1.055   4.188  16.788 -0.2861  0.0793 -0.4034
16318TIP3    H170369   0.972   4.202  16.832 -0.5500 -0.1401 -0.8237
16318TIP3    H270370   1.090   4.108  16.827 -0.4235 -0.0014 -0.4464
16319TIP3   OH270371   4.394   5.960  12.914 -0.0390 -0.1866 -0.4098
16319TIP3    H170372   4.453   6.035  12.917  1.1735 -1.1901  1.1520
16319TIP3    H270373   4.306   5.999  12.905  0.5190  1.4208  0.9931
16320TIP3   OH270374   4.263   4.365  14.621  0.0014 -0.1505 -0.3263
16320TIP3    H170375   4.198   4.306  14.658  2.3443 -1.9071  1.1909
16320TIP3    H270376   4.256   4.354  14.527 -1.1197 -1.1717 -0.1243
16321TIP3   OH270377   5.136   2.198   5.869 -0.6313  0.0149  0.8001
16321TIP3    H170378   5.073   2.132   5.841  1.2310 -0.7338 -1.7759
16321TIP3    H270379   5.198   2.150   5.924 -0.0613 -0.0878  0.0676
16322TIP3   OH270380   0.205   4.489  12.961  0.1172  0.0115  0.0356
16322TIP3    H170381   0.286   4.444  12.985 -0.3080 -0.6155  0.3174
16322TIP3    H270382   0.234   4.570  12.919  0.8863 -0.1024  0.3386
16323TIP3   OH270383   1.198   6.011  16.710 -0.2047  0.1248 -0.6178
16323TIP3    H170384   1.268   6.037  16.770 -1.0879  1.3957 -0.1052
16323TIP3    H270385   1.171   5.924  16.739 -0.7297  0.7968  0.9461
16324TIP3   OH270386   3.935   2.513  15.562 -0.2741 -0.0164  0.5659
16324TIP3    H170387   3.862   2.571  15.585 -1.1816 -0.6369 -0.6895
16324TIP3    H270388   4.013   2.559  15.593 -1.0089  1.7531 -0.1527
16325TIP3   OH270389   1.795   4.137  16.101 -0.6250  0.1300 -0.1701
16325TIP3    H170390   1.796   4.203  16.032  0.0132  1.4048  1.0349
16325TIP3    H270391   1.811   4.186  16.181 -1.0829 -1.3743  0.8543
16326TIP3   OH270392   2.762   1.804   1.752  0.8421 -0.1191 -0.1129
16326TIP3    H170393   2.780   1.872   1.816  2.1189 -1.6336  1.1811
16326TIP3    H270394   2.746   1.725   1.805  1.3980 -1.2837 -1.6412
16327TIP3   OH270395   4.939   5.453  15.246 -0.2990 -1.2440  0.3241
16327TIP3    H170396   5.018   5.402  15.233  0.0317 -0.6175 -0.1471
16327TIP3    H270397   4.946   5.525  15.183 -0.6894 -0.5428  1.0672
16328TIP3   OH270398   6.084   3.079   3.267  0.2517  0.3590  0.1442
16328TIP3    H170399   6.136   3.100   3.344  1.7936 -0.7496 -0.5824
16328TIP3    H270400   6.137   3.108   3.193 -1.7985  2.6526 -0.4868
16329TIP3   OH270401   1.512   5.391  16.908  0.0035 -0.4244  0.4831
16329TIP3    H170402   1.428   5.411  16.867 -0.7102 -3.1083  0.5552
16329TIP3    H270403   1.491   5.328  16.978  1.9005 -0.1291  1.3758
16330TIP3   OH270404   5.352   4.283   3.656 -0.0610  0.4710  0.0045
16330TIP3    H170405   5.306   4.367   3.653  0.4218  0.7427  0.2901
16330TIP3    H270406   5.416   4.288   3.585 -0.9760 -0.2092 -0.8998
16331TIP3   OH270407   1.752   2.409   6.550  0.0583  0.6025  0.4222
16331TIP3    H170408   1.657   2.414   6.558 -0.1658 -0.1735 -1.3154
16331TIP3    H270409   1.769   2.318   6.526  0.9188  1.5327 -2.7415
16332TIP3   OH270410   0.844   3.152   4.024  0.2186 -0.3620  0.5053
16332TIP3    H170411   0.891   3.076   3.991 -0.4293 -0.8814  0.7533
16332TIP3    H270412   0.909   3.201   4.074  1.0259  0.0605 -0.9307
16333TIP3   OH270413   5.668   4.356   1.392  0.3742 -0.1367 -0.9478
16333TIP3    H170414   5.697   4.362   1.483 -0.0023  0.9282 -0.8910
16333TIP3    H270415   5.681   4.264   1.369  0.2820 -0.4599  0.2428
16334TIP3   OH270416   0.549   4.615   2.605  0.1928  0.3308 -0.7989
16334TIP3    H170417   0.455   4.624   2.589  0.3793  2.3844 -0.9292
16334TIP3    H270418   0.559   4.528   2.643 -1.8826  0.4212  0.0141
16335TIP3   OH270419   5.822   6.703  10.471 -0.1891  0.4975 -0.2999
16335TIP3    H170420   5.729   6.687  10.454 -0.2838  1.0359 -0.2726
16335TIP3    H270421   5.841   6.651  10.550  0.3670 -2.4124 -2.2790
16336TIP3   OH270422   3.585   1.752  13.115  0.3017 -0.2156 -0.8057
16336TIP3    H170423   3.631   1.711  13.188  0.0429  0.4242 -0.2821
16336TIP3    H270424   3.530   1.683  13.079 -1.7112  0.2132  1.3746
16337TIP3   OH270425   4.845   5.845   2.428  0.0146 -0.0094  0.3808
16337TIP3    H170426   4.863   5.751   2.423 -0.7666 -0.2327  1.6263
16337TIP3    H270427   4.833   5.863   2.521 -0.4375  1.2224  0.1007
16338TIP3   OH270428   3.000   5.180  14.863 -0.2921 -0.1472 -0.3743
16338TIP3    H170429   3.023   5.227  14.944 -1.1362 -0.3413 -0.0180
16338TIP3    H270430   3.080   5.183  14.811  0.5048 -0.7048  0.7927
16339TIP3   OH270431   6.340   4.643  16.235  1.0194 -0.6340  0.0366
16339TIP3    H170432   6.264   4.586  16.244  0.8390 -0.1150  2.1071
16339TIP3    H270433   6.305   4.725  16.202  1.0687 -1.2491 -1.5579
16340TIP3   OH270434   2.689   3.626  11.078 -0.2494 -0.8674 -0.2123
16340TIP3    H170435   2.675   3.681  11.002  1.1392  0.3584  0.4022
16340TIP3    H270436   2.663   3.680  11.152 -1.7352 -2.1008  0.2136
16341TIP3   OH270437   4.899   1.882  11.846  0.0062  0.1071  0.4210
16341TIP3    H170438   4.896   1.978  11.843 -1.1052  0.0685  0.1367
16341TIP3    H270439   4.970   1.862  11.907 -0.6894  1.1116  1.5868
16342TIP3   OH270440   5.851   2.010   0.313  0.4381  0.4383 -0.1204
16342TIP3    H170441   5.906   2.083   0.342  0.0231  0.6321  0.1893
16342TIP3    H270442   5.869   2.002   0.219  0.4656  0.9592 -0.1611
16343TIP3   OH270443   3.881   4.893   4.340  0.2617 -1.0824  0.7382
16343TIP3    H170444   3.954   4.832   4.342  0.3963 -1.0213 -1.6565
16343TIP3    H270445   3.806   4.839   4.313  0.1950 -0.3920 -0.4788
16344TIP3   OH270446   6.499   6.047   1.640  0.2103  0.3646  0.3765
16344TIP3    H170447   6.486   6.063   1.547 -1.4254 -0.9822  0.3375
16344TIP3    H270448   6.564   6.111   1.667  0.2578  1.1631 -1.5658
16345TIP3   OH270449   6.608   3.477  14.653  0.0172 -0.7282 -0.0351
16345TIP3    H170450   6.562   3.400  14.686 -0.2159 -2.1164 -3.3889
16345TIP3    H270451   6.558   3.551  14.686 -3.1342 -2.1481 -1.4452
16346TIP3   OH270452   1.329   0.721  15.082 -0.0468 -0.0619  0.1341
16346TIP3    H170453   1.240   0.727  15.116  0.2200  0.3673  0.7655
16346TIP3    H270454   1.385   0.718  15.160  0.4701 -0.6587 -0.2596
16347TIP3   OH270455   1.562   0.518   2.397  0.0649  0.1271  0.1567
16347TIP3    H170456   1.594   0.574   2.327 -2.1076  0.5088 -0.5573
16347TIP3    H270457   1.599   0.556   2.477 -2.2852  3.2919 -0.1739
16348TIP3   OH270458   4.480   3.320   2.390  0.0281 -0.0986  0.0488
16348TIP3    H170459   4.513   3.373   2.317  0.5060 -0.6778 -0.1611
16348TIP3    H270460   4.519   3.361   2.468  1.9624 -1.2719 -0.2587
16349TIP3   OH270461   5.622   3.443   2.776 -0.4167  0.1873 -0.1513
16349TIP3    H170462   5.684   3.375   2.804  0.0581  0.0890 -1.4171
16349TIP3    H270463   5.541   3.395   2.756  0.2283 -0.1658 -2.0390
16350TIP3   OH270464   1.507   5.492   3.891  0.0267 -0.0143  0.4190
16350TIP3    H170465   1.456   5.473   3.970  0.8089  2.1879  1.5128
16350TIP3    H270466   1.447   5.542   3.835  0.3138  0.8104  0.8314
16351TIP3   OH270467   2.401   2.607   1.747 -0.4292  0.3142 -0.1321
16351TIP3    H170468   2.379   2.660   1.824 -2.6441  1.4885 -1.5129
16351TIP3    H270469   2.482   2.645   1.713  0.6430 -0.3099  1.6742
16352TIP3   OH270470   5.563   1.224   2.345 -0.7279 -0.6744  0.2622
16352TIP3    H170471   5.637   1.284   2.356 -1.2452 -0.6002  3.6999
16352TIP3    H270472   5.579   1.182   2.260  2.0321  0.9850 -0.0975
16353TIP3   OH270473   1.853   5.176  10.983 -0.0284  0.2313  0.3128
16353TIP3    H170474   1.849   5.267  10.955 -1.2929  0.0111 -0.2603
16353TIP3    H270475   1.800   5.129  10.918  0.8870 -0.9582  0.4129
16354TIP3   OH270476   0.313   3.515  13.694  0.6461  0.2192 -0.2728
16354TIP3    H170477   0.375   3.586  13.676 -1.7675  1.8859 -2.4733
16354TIP3    H270478   0.256   3.549  13.762 -1.2560  0.9507 -2.1571
16355TIP3   OH270479   0.732   5.032  12.493 -0.0582  0.0019  0.2148
16355TIP3    H170480   0.719   5.102  12.557  0.7013  0.0591  0.3070
16355TIP3    H270481   0.683   4.957  12.529  0.9857 -0.1996  1.2511
16356TIP3   OH270482   0.058   0.163  15.800  0.3730 -0.0401 -0.4482
16356TIP3    H170483   0.059   0.094  15.733  2.0661 -0.8719  0.4079
16356TIP3    H270484  -0.018   0.142  15.854  0.9358 -1.3206 -0.1331
16357TIP3   OH270485   1.310   5.391  15.818 -0.1368  0.1498  0.4542
16357TIP3    H170486   1.232   5.399  15.873  0.1730  0.1859  0.8980
16357TIP3    H270487   1.382   5.416  15.876  0.2672 -0.4882  0.2302
16358TIP3   OH270488   2.698   1.611   3.597 -0.2889  0.4118  0.0667
16358TIP3    H170489   2.741   1.567   3.670 -1.1631 -1.0113 -0.2483
16358TIP3    H270490   2.604   1.604   3.616 -0.4440  2.6937  0.3111
16359TIP3   OH270491   6.694   2.362   4.629 -0.1022 -0.3954 -0.2921
16359TIP3    H170492   6.731   2.386   4.544  1.5141  0.2567  0.5866
16359TIP3    H270493   6.608   2.404   4.630  0.5194  0.9133 -0.9587
16360TIP3   OH270494   2.195   6.096   4.486  0.2933  0.6772  0.0710
16360TIP3    H170495   2.155   6.108   4.573  1.3124 -0.1506  0.6660
16360TIP3    H270496   2.234   6.181   4.466  0.8863  0.6075  0.8704
16361TIP3   OH270497   1.051   0.824  12.487 -0.1786 -0.2342 -0.2805
16361TIP3    H170498   1.083   0.841  12.399 -2.1800  0.5008 -0.8799
16361TIP3    H270499   1.003   0.904  12.512  0.0621 -0.5631  1.3285
16362TIP3   OH270500   1.586   2.916   4.960  0.1444 -0.1225  0.5767
16362TIP3    H170501   1.671   2.943   4.994  0.4323  0.5215 -0.6065
16362TIP3    H270502   1.604   2.832   4.917  0.3514  0.3822 -0.3377
16363TIP3   OH270503   1.832   2.509   5.905 -0.0441  0.0570  0.7334
16363TIP3    H170504   1.919   2.475   5.925 -0.1515  0.9498  2.9377
16363TIP3    H270505   1.794   2.445   5.846  1.8233 -0.7468  0.3546
16364TIP3   OH270506   4.714   0.507  11.468  0.1272  0.6527  0.0725
16364TIP3    H170507   4.705   0.587  11.520 -0.9930 -0.4507  1.5948
16364TIP3    H270508   4.629   0.498  11.424  0.2871  0.3264 -0.1705
16365TIP3   OH270509   3.903   2.142  14.916  0.0859 -0.3771 -0.3567
16365TIP3    H170510   3.853   2.062  14.896 -1.1296  0.3587 -0.3130
16365TIP3    H270511   3.900   2.149  15.011 -0.5004  0.1441 -0.4073
16366TIP3   OH270512   1.922   5.643  13.425 -0.3964 -0.5463 -0.3174
16366TIP3    H170513   1.892   5.552  13.415  0.0248 -0.7144 -0.0765
16366TIP3    H270514   1.916   5.660  13.519  0.7382 -0.7547 -0.1930
16367TIP3   OH270515   5.086   2.448   2.117  0.0206 -0.0805  0.0433
16367TIP3    H170516   4.996   2.442   2.149 -0.3712  0.2930 -0.9673
16367TIP3    H270517   5.097   2.540   2.092  0.5834 -0.1879 -0.1320
16368TIP3   OH270518   6.264   4.745   5.675  0.0329  0.2297 -0.1460
16368TIP3    H170519   6.312   4.827   5.664 -1.8452  1.1207 -2.2874
16368TIP3    H270520   6.219   4.754   5.759 -0.6332  1.6617 -0.6426
16369TIP3   OH270521   1.656   4.170   2.779  0.3470  0.0412  0.4280
16369TIP3    H170522   1.722   4.101   2.776  0.3091  0.0257 -0.0461
16369TIP3    H270523   1.589   4.136   2.838  0.0347 -0.5895 -0.2823
16370TIP3   OH270524   1.135   4.615   3.299 -0.3582  0.7210 -0.6820
16370TIP3    H170525   1.106   4.706   3.297 -0.2852  0.7322 -1.3122
16370TIP3    H270526   1.202   4.609   3.231  1.3719  0.7668  0.9657
16371TIP3   OH270527   0.682   1.389   1.939 -0.2415 -0.0728  0.3771
16371TIP3    H170528   0.718   1.417   1.856  1.3949 -0.9401  0.7747
16371TIP3    H270529   0.640   1.305   1.920 -1.1804  0.4524  0.1214
16372TIP3   OH270530   5.859   0.998   3.526  0.1229 -0.4434  0.3331
16372TIP3    H170531   5.864   1.043   3.442  2.9748 -1.0668  0.1263
16372TIP3    H270532   5.786   0.936   3.516 -2.1989  2.2803 -0.2381
16373TIP3   OH270533   1.271   1.945   4.444  0.0559 -0.7497 -0.3093
16373TIP3    H170534   1.364   1.948   4.466  0.1585 -3.4241 -0.1941
16373TIP3    H270535   1.269   1.928   4.350 -0.3172 -0.7162 -0.3079
16374TIP3   OH270536   6.359   0.773  17.196  0.4717  0.3259  0.2965
16374TIP3    H170537   6.372   0.868  17.189 -1.0251  0.5546  0.6429
16374TIP3    H270538   6.368   0.754  17.289  0.0659  0.2334  0.3202
16375TIP3   OH270539   3.236   1.805  15.628  0.1638  0.0161 -0.2243
16375TIP3    H170540   3.216   1.899  15.638  0.9771  0.1673 -0.0034
16375TIP3    H270541   3.168   1.761  15.679 -0.4750  0.4665 -0.6794
16376TIP3   OH270542   1.165   3.966   0.446 -0.1180 -0.1701 -0.1143
16376TIP3    H170543   1.110   4.024   0.394 -1.0217 -0.2767  0.7082
16376TIP3    H270544   1.136   3.980   0.536  2.6988  1.4083  0.6140
16377TIP3   OH270545   2.294   4.969   4.944  0.1549 -0.0832  0.2045
16377TIP3    H170546   2.325   4.997   5.031 -0.6241  2.1425 -0.1985
16377TIP3    H270547   2.216   4.917   4.963 -0.2346  0.7120  0.8335
16378TIP3   OH270548   1.125   0.127   4.819 -0.2922 -0.1081  0.0512
16378TIP3    H170549   1.064   0.069   4.863 -1.3135  0.6877 -0.3037
16378TIP3    H270550   1.200   0.071   4.797 -0.3815 -0.8281  1.5188
16379TIP3   OH270551   5.807   2.434  13.940  0.1563 -0.2721 -0.1662
16379TIP3    H170552   5.793   2.348  13.902 -0.5773 -0.7702  1.2041
16379TIP3    H270553   5.756   2.494  13.885 -0.6207 -0.9331 -0.1719
16380TIP3   OH270554   2.965   0.440  14.842  0.3842  0.5747  0.1198
16380TIP3    H170555   3.030   0.474  14.903  0.2066 -0.5574  0.9530
16380TIP3    H270556   2.890   0.498  14.853  0.4539  0.5443  0.7765
16381TIP3   OH270557   3.026   0.975  14.993 -0.0730 -0.0016  0.1251
16381TIP3    H170558   2.942   0.993  14.951 -0.2430 -0.6924  0.1738
16381TIP3    H270559   3.078   1.053  14.974 -0.2174 -0.1980 -1.1887
16382TIP3   OH270560   1.554   1.605  14.684  0.3394  0.0056  0.0562
16382TIP3    H170561   1.479   1.555  14.652 -0.6309  0.5190  1.4931
16382TIP3    H270562   1.572   1.669  14.615 -1.5382  0.9099  0.3775
16383TIP3   OH270563   6.590   5.507  14.987 -0.2939 -0.1601 -0.1931
16383TIP3    H170564   6.619   5.478  14.901 -2.7648  0.5543 -1.3305
16383TIP3    H270565   6.520   5.570  14.968  0.1061  1.0993  2.3186
16384TIP3   OH270566   6.588   1.404  15.546  0.7920  0.1257 -0.4333
16384TIP3    H170567   6.599   1.316  15.512 -1.4430 -0.7842  1.0639
16384TIP3    H270568   6.671   1.424  15.590  1.3351 -1.1776 -0.8569
16385TIP3   OH270569   5.679   5.940   1.220 -0.4712 -0.2854 -0.3559
16385TIP3    H170570   5.636   5.886   1.154 -0.5499 -1.7694  0.8700
16385TIP3    H270571   5.615   5.948   1.290  0.6147 -1.1522  0.7762
16386TIP3   OH270572   2.960   1.999   1.611 -0.4537  0.2158  0.2999
16386TIP3    H170573   3.024   2.065   1.584 -0.5825  0.7419  1.2611
16386TIP3    H270574   2.918   2.036   1.688 -0.1216 -1.2411  1.2009
16387TIP3   OH270575   0.715   4.218  15.339 -0.4499  0.2657  0.1154
16387TIP3    H170576   0.732   4.126  15.321  1.1266  0.3573  0.9971
16387TIP3    H270577   0.639   4.219  15.397 -0.0522 -0.5232  0.6522
16388TIP3   OH270578   2.265   4.000   3.225  0.1555  0.4321  1.0523
16388TIP3    H170579   2.344   3.947   3.227 -2.3115 -3.5468 -0.8862
16388TIP3    H270580   2.286   4.072   3.165  1.8402 -1.4182 -0.6840
16389TIP3   OH270581   2.203   4.348  13.814 -0.1564  0.2305 -0.6282
16389TIP3    H170582   2.130   4.296  13.781 -0.4578 -0.1032  0.5140
16389TIP3    H270583   2.255   4.286  13.865  1.7329  0.1311 -2.5984
16390TIP3   OH270584   5.073   6.397   2.838  0.3743 -0.2132 -0.3335
16390TIP3    H170585   5.169   6.395   2.835  0.3551 -3.3815  0.0450
16390TIP3    H270586   5.045   6.374   2.750 -0.0253 -1.6540  0.1594
16391TIP3   OH270587   5.688   5.449  12.247  0.9192  0.8452 -0.1406
16391TIP3    H170588   5.699   5.364  12.291  1.1672  0.1621 -1.5006
16391TIP3    H270589   5.690   5.428  12.154 -0.2657  2.1950 -0.4884
16392TIP3   OH270590   1.802   4.062   4.139 -0.2667  0.2595 -0.0149
16392TIP3    H170591   1.838   3.974   4.129 -0.6831  0.2475 -1.5173
16392TIP3    H270592   1.777   4.067   4.232 -0.2066 -1.1891  0.0954
16393TIP3   OH270593   1.293   4.830   1.615  0.5228 -0.3944  0.5404
16393TIP3    H170594   1.299   4.815   1.710 -2.6580 -1.6153  0.5958
16393TIP3    H270595   1.238   4.758   1.583  0.1935  0.9455 -2.0055
16394TIP3   OH270596   0.541   1.564   4.877  0.4035 -0.3102 -0.4009
16394TIP3    H170597   0.467   1.608   4.918  2.2531 -0.4560  3.2360
16394TIP3    H270598   0.618   1.614   4.904  2.2800 -3.9270  1.3612
16395TIP3   OH270599   6.666   2.790   0.407 -0.3150 -0.1839  0.5910
16395TIP3    H170600   6.631   2.709   0.370  3.7961 -1.4984 -0.6733
16395TIP3    H270601   6.642   2.858   0.344 -0.7299 -1.0080 -0.1503
16396TIP3   OH270602   2.207   4.632   3.355  0.1345  0.5974  0.4268
16396TIP3    H170603   2.155   4.692   3.409  0.8299  0.0764  1.6994
16396TIP3    H270604   2.149   4.610   3.282 -0.1348  2.7607 -0.0378
16397TIP3   OH270605   1.604   2.897  15.378  0.0519  0.1468 -0.2693
16397TIP3    H170606   1.631   2.988  15.383  0.9100 -0.1417  0.5028
16397TIP3    H270607   1.650   2.862  15.302  1.4293 -0.1912  0.6969
16398TIP3   OH270608   3.197   0.503  11.008 -0.1990 -0.6817 -0.1129
16398TIP3    H170609   3.242   0.582  11.038 -1.2607 -0.0296 -0.2224
16398TIP3    H270610   3.268   0.446  10.978  0.6919 -0.3355  1.2360
16399TIP3   OH270611   2.544   5.487  11.444 -0.0035  0.1290 -0.4033
16399TIP3    H170612   2.507   5.550  11.506  1.7110 -0.4544  1.2521
16399TIP3    H270613   2.612   5.536  11.398  0.7168 -0.2262  0.2577
16400TIP3   OH270614   4.994   0.588  15.146 -0.2951  0.2502 -0.3199
16400TIP3    H170615   4.941   0.610  15.222 -1.3011  3.4590 -1.9043
16400TIP3    H270616   5.079   0.630  15.162 -0.0937 -0.1047 -0.4240
16401TIP3   OH270617   0.954   3.197   0.186  0.1652 -0.0273 -0.1105
16401TIP3    H170618   0.984   3.134   0.251 -0.1112 -1.8742 -1.7218
16401TIP3    H270619   0.860   3.182   0.178 -0.0396  1.1144  0.0367
16402TIP3   OH270620   3.970   3.613   0.926  0.2375  0.0531  0.8120
16402TIP3    H170621   4.014   3.548   0.871  0.1052  1.8082 -1.4410
16402TIP3    H270622   3.897   3.643   0.872  0.6325  2.4638  1.5841
16403TIP3   OH270623   3.561   5.903   2.475  0.7480 -0.3561  0.1973
16403TIP3    H170624   3.606   5.854   2.544  1.9487 -0.8246 -0.9016
16403TIP3    H270625   3.602   5.989   2.475 -0.3172  0.1634  1.0997
16404TIP3   OH270626   4.623   0.756  13.830 -0.1334 -0.2857 -0.2979
16404TIP3    H170627   4.576   0.801  13.900 -1.1812  0.4701 -1.4523
16404TIP3    H270628   4.656   0.827  13.774  0.2403 -0.8845 -0.8404
16405TIP3   OH270629   1.818   4.806  10.434 -0.5238  0.1785  0.1150
16405TIP3    H170630   1.871   4.863  10.489  0.8833 -1.1210  0.1369
16405TIP3    H270631   1.875   4.782  10.362 -1.2470 -0.8395 -0.1351
16406TIP3   OH270632   0.324   4.446   3.105  0.1286  0.1389  0.7227
16406TIP3    H170633   0.397   4.479   3.054 -0.1122 -0.0535  0.2519
16406TIP3    H270634   0.314   4.509   3.177  0.1343  0.6928  0.2408
16407TIP3   OH270635   5.142   0.066   3.195 -0.1986 -0.0475  0.1992
16407TIP3    H170636   5.059   0.019   3.199 -0.3967  0.3656  1.4800
16407TIP3    H270637   5.204   0.003   3.160 -1.2831 -0.0084 -1.8476
16408TIP3   OH270638   3.777   0.985   0.121 -0.0667  0.2215  0.1482
16408TIP3    H170639   3.767   0.908   0.177 -0.8836 -1.6316 -2.4561
16408TIP3    H270640   3.854   0.966   0.067  0.6896  1.9570  0.6005
16409TIP3   OH270641   3.965   2.840   2.284 -0.1475 -1.0812 -0.1882
16409TIP3    H170642   3.895   2.794   2.331 -0.6673 -0.0884  0.0326
16409TIP3    H270643   3.961   2.929   2.318 -1.3900  0.0004 -3.0426
16410TIP3   OH270644   5.260   3.183   4.030 -0.2766  0.4082  0.5518
16410TIP3    H170645   5.167   3.201   4.027 -0.0048  1.7593 -0.0360
16410TIP3    H270646   5.301   3.266   4.054  0.7817 -0.1410  0.7120
16411TIP3   OH270647   4.746   4.650  12.804 -0.0926 -0.4876  0.0760
16411TIP3    H170648   4.833   4.685  12.823  0.4870 -1.5462 -0.5396
16411TIP3    H270649   4.686   4.709  12.848  0.9244  0.4951  0.1614
16412TIP3   OH270650   2.670   6.165  15.334 -0.2629 -0.1210  0.6340
16412TIP3    H170651   2.628   6.193  15.415 -3.0602 -0.1218 -0.7615
16412TIP3    H270652   2.699   6.075  15.351 -1.1630 -0.2489  1.5217
16413TIP3   OH270653   4.680   5.424  14.516 -0.8438  0.0481 -0.6883
16413TIP3    H170654   4.593   5.391  14.494 -2.5037  2.2658  2.1339
16413TIP3    H270655   4.734   5.346  14.526 -2.3364 -1.3406 -3.0705
16414TIP3   OH270656   2.048   0.264  12.348 -0.2045  0.0485 -0.3227
16414TIP3    H170657   1.973   0.256  12.407 -1.2723 -1.6784 -1.8585
16414TIP3    H270658   2.112   0.200  12.382 -0.2735  0.0164 -0.2525
16415TIP3   OH270659   2.935   1.830   1.172 -0.3211 -0.1342  0.3003
16415TIP3    H170660   2.886   1.797   1.247 -0.8778  0.4103  0.1872
16415TIP3    H270661   2.999   1.762   1.152  1.1640  0.5964  2.5098
16416TIP3   OH270662   6.764   3.886  14.491 -0.5502  0.0764 -0.5500
16416TIP3    H170663   6.804   3.830  14.558 -1.4426  0.2384  0.1243
16416TIP3    H270664   6.828   3.887  14.420 -0.9708 -2.7211 -1.0584
16417TIP3   OH270665   5.477   0.832  12.511  0.4045  0.1141  0.2492
16417TIP3    H170666   5.493   0.794  12.425 -1.8644  1.5709 -0.8506
16417TIP3    H270667   5.397   0.789  12.543 -0.3408  1.5822  0.3998
16418TIP3   OH270668   4.166   1.667  13.653 -0.4343  0.4153 -0.2013
16418TIP3    H170669   4.196   1.758  13.661 -0.8963  0.5415  0.1639
16418TIP3    H270670   4.141   1.658  13.561  2.5122 -0.2725 -1.0013
16419TIP3   OH270671   3.482   3.152  14.479 -0.5076 -0.4392  0.1055
16419TIP3    H170672   3.540   3.092  14.526 -1.0687 -1.5029 -0.5250
16419TIP3    H270673   3.396   3.139  14.521 -0.5456  0.2036  0.2217
16420TIP3   OH270674   5.872   4.744  15.666  0.2096  0.5140 -0.1773
16420TIP3    H170675   5.798   4.798  15.694 -0.6296 -1.3808  1.3715
16420TIP3    H270676   5.949   4.787  15.702 -0.4625  0.6135  1.1618
16421TIP3   OH270677   3.297   1.071  11.249  0.3260  0.1577 -0.1495
16421TIP3    H170678   3.276   1.160  11.222  1.1578  0.6272  0.7139
16421TIP3    H270679   3.358   1.039  11.183  2.7259  1.4674  1.3960
16422TIP3   OH270680   5.143   1.007  15.733 -0.5466 -0.3408 -0.0932
16422TIP3    H170681   5.052   1.037  15.734 -0.4748 -0.1182 -0.0242
16422TIP3    H270682   5.148   0.941  15.802 -0.7905 -0.7599 -0.4820
16423TIP3   OH270683   1.764   2.407  16.762 -0.2810 -0.1719 -0.2050
16423TIP3    H170684   1.714   2.433  16.684  0.7653 -1.3896 -1.3104
16423TIP3    H270685   1.847   2.453  16.753 -0.6704  0.7749  0.9270
16424TIP3   OH270686   3.809   3.387  15.634  0.8773 -0.6303  0.4186
16424TIP3    H170687   3.748   3.316  15.609  1.2535 -0.8514  0.1201
16424TIP3    H270688   3.838   3.423  15.550  0.2730  0.2424  0.5699
16425TIP3   OH270689   1.566   0.848   2.575 -0.4135  0.1917  0.5652
16425TIP3    H170690   1.512   0.800   2.639 -1.0118 -0.9962 -0.8046
16425TIP3    H270691   1.656   0.824   2.597 -0.7130 -1.6684 -0.1517
16426TIP3   OH270692   1.346   4.495  12.284  0.3288 -0.1377  0.4081
16426TIP3    H170693   1.393   4.431  12.230 -0.2292 -2.8674  2.9938
16426TIP3    H270694   1.254   4.480  12.264  0.1653 -0.5853  1.4629
16427TIP3   OH270695   6.105   2.097   5.026  0.0760 -0.5387 -0.2906
16427TIP3    H170696   6.191   2.095   4.985 -0.2269 -0.9018 -0.9175
16427TIP3    H270697   6.085   2.005   5.046 -0.7176 -0.5971 -1.3226
16428TIP3   OH270698   2.984   2.156   2.119  0.3179 -0.4883 -0.1374
16428TIP3    H170699   2.942   2.183   2.201  0.2692  0.7672 -0.5629
16428TIP3    H270700   2.914   2.115   2.068 -0.0245  0.1746 -0.2023
16429TIP3   OH270701   0.303   1.351   3.355  0.0623 -0.4511 -0.8154
16429TIP3    H170702   0.279   1.431   3.401  0.1685  0.0014 -1.5475
16429TIP3    H270703   0.248   1.350   3.277  1.7234  0.1083 -2.0204
16430TIP3   OH270704   4.666   1.107   4.111  0.4073  0.2557  0.6015
16430TIP3    H170705   4.586   1.072   4.150  1.2919 -0.6166  1.6737
16430TIP3    H270706   4.670   1.065   4.025 -0.1662  0.1118  0.6410
16431TIP3   OH270707   5.054   3.937   0.319  0.4885  0.0033 -0.2275
16431TIP3    H170708   5.138   3.904   0.353 -0.6370 -0.2525  2.4240
16431TIP3    H270709   5.000   3.859   0.308  0.1924  0.2839 -0.7794
16432TIP3   OH270710   2.663   0.413   3.212 -0.0852 -0.1615 -0.2096
16432TIP3    H170711   2.717   0.449   3.141 -0.7337 -1.4247 -1.3645
16432TIP3    H270712   2.679   0.319   3.208  0.0982 -0.2170  1.5378
16433TIP3   OH270713   2.750   5.944   1.915  0.0076  0.2745 -0.2012
16433TIP3    H170714   2.814   5.931   1.844  0.0655 -2.2509  0.2726
16433TIP3    H270715   2.746   5.859   1.959 -2.0531  1.0467  1.1497
16434TIP3   OH270716   4.184   1.449  14.290 -0.1606 -0.7978 -0.3873
16434TIP3    H170717   4.165   1.520  14.352 -0.8993 -1.5435  0.2408
16434TIP3    H270718   4.276   1.428  14.306 -0.0610 -0.2853 -0.2703
16435TIP3   OH270719   2.489   0.945   2.365  1.0581 -0.3107 -0.5313
16435TIP3    H170720   2.498   0.932   2.270  0.8636 -0.9952 -0.4624
16435TIP3    H270721   2.578   0.962   2.395  1.4662 -2.2330 -0.5382
16436TIP3   OH270722   0.373   0.556   4.979 -0.1422 -0.3496  0.2313
16436TIP3    H170723   0.421   0.499   4.920 -1.4742 -0.2224 -0.9904
16436TIP3    H270724   0.437   0.579   5.047  0.7826 -2.2120  0.0284
16437TIP3   OH270725   6.680   5.603  10.471  0.5147 -0.1466  0.0304
16437TIP3    H170726   6.644   5.687  10.442  0.9020 -0.1130 -0.3553
16437TIP3    H270727   6.603   5.547  10.482  0.3366 -0.1119 -0.9122
16438TIP3   OH270728   0.523   5.990  12.784  0.0376 -0.1747 -0.0194
16438TIP3    H170729   0.464   5.967  12.856  0.0479  1.0142  0.3843
16438TIP3    H270730   0.559   6.074  12.809  3.4496 -1.7904  0.7009
16439TIP3   OH270731   6.697   1.365   3.125  0.8333  0.0101  0.2717
16439TIP3    H170732   6.667   1.302   3.059 -0.3951 -0.0913  0.9043
16439TIP3    H270733   6.786   1.387   3.099  1.8286 -3.1094  0.8670
16440TIP3   OH270734   1.792   1.897   3.966 -0.3382  0.3186 -0.5059
16440TIP3    H170735   1.843   1.861   3.893  1.0604  2.1897 -0.5058
16440TIP3    H270736   1.736   1.964   3.926  1.4976  2.3953  0.2775
16441TIP3   OH270737   3.919   6.383  11.841 -0.3503 -0.4382  0.2873
16441TIP3    H170738   3.891   6.409  11.929 -1.2186 -0.4068  0.0073
16441TIP3    H270739   3.930   6.466  11.794 -3.3498 -0.5310 -0.6782
16442TIP3   OH270740   1.785   2.900  12.811 -0.0445  0.6441  0.4183
16442TIP3    H170741   1.808   2.810  12.788 -2.4533  0.0849 -0.0256
16442TIP3    H270742   1.850   2.954  12.766  0.6526 -0.8194 -0.3785
16443TIP3   OH270743   0.034   2.443   4.385  0.1139  0.0076  0.1601
16443TIP3    H170744   0.118   2.487   4.369 -0.3608  0.7403 -0.3661
16443TIP3    H270745   0.009   2.408   4.299 -0.2259 -0.0153  0.2658
16444TIP3   OH270746   1.178   4.133  14.913  0.1168  0.1897 -0.4268
16444TIP3    H170747   1.091   4.093  14.919  0.8756 -1.6486 -1.1567
16444TIP3    H270748   1.203   4.123  14.821  1.5355 -0.2645 -0.0043
16445TIP3   OH270749   5.233   0.590  11.687 -0.3822 -0.4318 -0.6067
16445TIP3    H170750   5.264   0.655  11.624  0.2088  0.1675  0.2852
16445TIP3    H270751   5.296   0.594  11.759 -2.0949  0.2928  0.9046
16446TIP3   OH270752   5.795   2.966  15.177  0.6463  0.4533 -0.1732
16446TIP3    H170753   5.765   2.975  15.086  2.3772 -1.8251 -1.0339
16446TIP3    H270754   5.885   2.997  15.176  0.5873  0.6741  0.8281
16447TIP3   OH270755   6.170   4.611   2.492  0.2702 -0.4488 -0.2574
16447TIP3    H170756   6.089   4.630   2.444  0.0648 -0.1237  0.2054
16447TIP3    H270757   6.180   4.516   2.486 -0.5422 -0.5749  0.2974
16448TIP3   OH270758   5.594   6.756   3.710  0.1057 -0.1587 -0.0696
16448TIP3    H170759   5.515   6.710   3.680  1.0035  0.1096 -3.0341
16448TIP3    H270760   5.561   6.837   3.749 -1.0412  0.8879 -3.0712
16449TIP3   OH270761   1.054   0.376  12.214 -0.2479  0.2147  0.2495
16449TIP3    H170762   0.993   0.450  12.207  0.3477  0.7294  0.5875
16449TIP3    H270763   1.081   0.360  12.123  0.6812  1.2863  0.3395
16450TIP3   OH270764   6.470   3.820  13.942 -0.1387 -0.1588 -0.3722
16450TIP3    H170765   6.460   3.915  13.948  0.7669 -0.0863  0.0929
16450TIP3    H270766   6.448   3.788  14.029  0.4077 -0.2868 -0.2747
16451TIP3   OH270767   1.189   4.692   5.098  0.1217 -0.4718  0.1223
16451TIP3    H170768   1.263   4.701   5.039  2.2023  1.5814  2.9423
16451TIP3    H270769   1.130   4.763   5.074  1.6681  1.3034  1.4261
16452TIP3   OH270770   4.432   1.358  10.613  0.1241  0.1253 -0.6598
16452TIP3    H170771   4.488   1.435  10.612  1.2268 -0.6230  1.0136
16452TIP3    H270772   4.345   1.392  10.594  0.9361  1.4707 -2.1039
16453TIP3   OH270773   3.434   3.951  14.289 -0.6035 -0.3927 -0.2771
16453TIP3    H170774   3.439   3.991  14.202 -0.9673  0.6256  0.1618
16453TIP3    H270775   3.525   3.943  14.317 -0.5308  0.3268 -0.2905
16454TIP3   OH270776   4.696   1.157   5.120  1.0620  0.1404 -0.0235
16454TIP3    H170777   4.755   1.219   5.077  0.8795  0.5271  0.2733
16454TIP3    H270778   4.752   1.102   5.173  1.0474  1.2623  1.1768
16455TIP3   OH270779   4.869   5.019   5.541  0.5253 -0.0070  0.8443
16455TIP3    H170780   4.909   5.104   5.523  1.8296 -0.5192  1.2684
16455TIP3    H270781   4.842   4.987   5.455  1.1022  0.3198  0.5348
16456TIP3   OH270782   5.710   1.646  15.305 -0.2277 -0.0873 -0.3364
16456TIP3    H170783   5.754   1.682  15.228  0.8551  1.7548  1.0733
16456TIP3    H270784   5.781   1.618  15.362 -0.9795 -0.3469  0.4834
16457TIP3   OH270785   0.994   3.722   6.102  0.1164  0.0400 -0.4000
16457TIP3    H170786   0.905   3.730   6.136  0.1784  3.6376 -0.9698
16457TIP3    H270787   1.035   3.658   6.160 -2.5858 -1.1068  0.3407
16458TIP3   OH270788   3.148   6.768  12.991 -0.1543 -0.5096 -0.3384
16458TIP3    H170789   3.135   6.711  12.915 -0.9375 -0.5855 -0.1508
16458TIP3    H270790   3.134   6.712  13.067  0.6816 -0.4442 -0.1334
16459TIP3   OH270791   4.185   4.804   5.022  0.0277  0.3009  0.3099
16459TIP3    H170792   4.207   4.859   4.947 -0.8445  0.1876 -0.0395
16459TIP3    H270793   4.107   4.844   5.060 -1.1140 -1.1298 -0.4408
16460TIP3   OH270794   6.246   3.030  14.121  0.0135  0.0295 -0.1953
16460TIP3    H170795   6.320   3.003  14.175  0.1887 -0.0203 -0.4616
16460TIP3    H270796   6.171   2.980  14.155 -0.0380  0.5776  0.5151
16461TIP3   OH270797   2.151   2.494  11.027 -0.0396 -0.1849  0.3436
16461TIP3    H170798   2.098   2.536  10.959  0.6898  0.7876  0.3624
16461TIP3    H270799   2.239   2.490  10.989  0.2899  0.0204  1.0896
16462TIP3   OH270800   5.609   4.866  15.759  0.0432 -0.1165 -0.0851
16462TIP3    H170801   5.563   4.888  15.841  0.6957 -0.4491  0.3790
16462TIP3    H270802   5.564   4.916  15.692 -1.0115 -0.4418  0.3664
16463TIP3   OH270803   3.000   6.069  11.310 -0.6219  0.0922 -0.1058
16463TIP3    H170804   2.914   6.064  11.352 -1.0744  0.1908 -1.0138
16463TIP3    H270805   2.982   6.099  11.221  0.4128  0.6841 -0.1233
16464TIP3   OH270806   6.662   2.465   3.635  0.1630 -0.7012  0.2809
16464TIP3    H170807   6.702   2.397   3.580  2.6202  0.9288 -0.0498
16464TIP3    H270808   6.628   2.529   3.573  0.2049 -0.3647  0.6054
16465TIP3   OH270809   5.807   6.100  12.728  0.0919 -0.4859 -0.7214
16465TIP3    H170810   5.777   6.183  12.690  0.1203 -0.4118 -0.5806
16465TIP3    H270811   5.840   6.123  12.814  1.0166 -0.4956 -1.0736
16466TIP3   OH270812   1.183   1.659   0.735  0.1429  0.3659  0.3377
16466TIP3    H170813   1.277   1.679   0.730  0.4793 -1.2948 -0.3373
16466TIP3    H270814   1.178   1.565   0.720 -1.5686  0.2847  1.3141
16467TIP3   OH270815   0.208   5.032   4.541 -0.0506 -0.2359 -0.2174
16467TIP3    H170816   0.245   4.963   4.485  0.8014  0.2477 -0.2681
16467TIP3    H270817   0.186   4.988   4.622 -2.1683 -1.1348 -1.2582
16468TIP3   OH270818   1.568   1.794  11.070 -0.1015  0.8259  0.7180
16468TIP3    H170819   1.610   1.820  10.988  2.2202  0.3287  1.7169
16468TIP3    H270820   1.475   1.805  11.053  0.2931  0.1979 -2.1901
16469TIP3   OH270821   0.943   0.683  14.742 -0.1067 -0.0297 -0.1449
16469TIP3    H170822   0.892   0.705  14.819  0.9526  1.0797  0.2439
16469TIP3    H270823   0.897   0.608  14.704 -1.1309 -0.0271  1.0582
16470TIP3   OH270824   6.457   0.964   3.160 -0.4286  0.4196 -0.0159
16470TIP3    H170825   6.473   0.916   3.078 -0.5658  0.0250  0.1826
16470TIP3    H270826   6.517   0.924   3.223 -0.4416  0.6100  0.1150
16471TIP3   OH270827   6.695   5.320   5.359 -0.5023 -0.0716  0.3378
16471TIP3    H170828   6.634   5.276   5.300  0.9639 -1.2366 -0.3178
16471TIP3    H270829   6.702   5.409   5.324 -1.1474 -0.1813 -0.0817
16472TIP3   OH270830   6.347   0.919   2.551 -0.0273  0.7943 -0.0231
16472TIP3    H170831   6.281   0.861   2.513  0.4375 -0.3737  0.9326
16472TIP3    H270832   6.429   0.890   2.512  0.3899 -0.1033  1.4962
16473TIP3   OH270833   0.535   2.577  15.002 -0.0377 -0.3494 -0.3896
16473TIP3    H170834   0.533   2.640  15.074  3.0207  1.0240 -1.4474
16473TIP3    H270835   0.612   2.522  15.021  0.8473  0.0746 -2.6254
16474TIP3   OH270836   5.498   5.472   1.157 -0.2576 -0.1586  0.1543
16474TIP3    H170837   5.523   5.478   1.065 -1.0011  1.5334  0.0507
16474TIP3    H270838   5.416   5.521   1.163 -0.3383 -0.4555  1.6712
16475TIP3   OH270839   1.849   1.677  10.968  0.0283  0.2042 -0.0847
16475TIP3    H170840   1.915   1.735  10.931  0.6299 -0.7238 -0.4683
16475TIP3    H270841   1.838   1.608  10.903 -1.5630  0.5153 -0.1836
16476TIP3   OH270842   5.848   0.525   4.452 -0.3765  0.2281  0.6267
16476TIP3    H170843   5.895   0.588   4.508  0.4457 -0.3865  0.6360
16476TIP3    H270844   5.761   0.564   4.441  1.1935  3.1653 -2.3088
16477TIP3   OH270845   5.978   3.463  12.042 -0.3414  0.2756  0.6611
16477TIP3    H170846   5.990   3.513  12.123 -2.6656 -0.2653  1.3833
16477TIP3    H270847   6.066   3.456  12.005  0.6580  1.1615  2.7665
16478TIP3   OH270848   1.457   3.296   2.166 -0.5443 -0.2219 -0.3785
16478TIP3    H170849   1.520   3.283   2.237 -0.1355 -2.0120 -1.0480
16478TIP3    H270850   1.390   3.230   2.180 -1.6254  0.8496 -0.4064
16479TIP3   OH270851   6.266   0.238  16.547 -0.1470 -0.2464  0.2082
16479TIP3    H170852   6.321   0.262  16.621  1.1668 -1.3550 -0.3619
16479TIP3    H270853   6.264   0.142  16.549  0.2010 -0.3111 -1.3650
16480TIP3   OH270854   3.186   3.670   5.676 -0.0075 -0.2240 -0.3466
16480TIP3    H170855   3.170   3.670   5.770 -1.5497 -1.1866 -0.5942
16480TIP3    H270856   3.278   3.695   5.667 -0.7878  3.4937  1.2149
16481TIP3   OH270857   3.481   0.920  12.351  0.2734 -0.3417  0.4492
16481TIP3    H170858   3.567   0.958  12.331  0.2092  1.8257  3.7916
16481TIP3    H270859   3.419   0.989  12.326 -0.3074 -0.8207  0.5806
16482TIP3   OH270860   3.246   0.363   5.731  0.4880 -0.0593  0.3215
16482TIP3    H170861   3.257   0.442   5.678  0.4268  0.9889  1.8245
16482TIP3    H270862   3.297   0.380   5.810 -1.1782 -0.6880  1.5521
16483TIP3   OH270863   2.693   0.799  16.384  0.2698 -0.1179 -0.0625
16483TIP3    H170864   2.646   0.726  16.344 -0.7575  0.1193  0.7042
16483TIP3    H270865   2.681   0.787  16.478  3.2076 -1.0432  0.2430
16484TIP3   OH270866   0.848   2.811  12.183 -0.5730  0.3044 -0.4377
16484TIP3    H170867   0.793   2.744  12.143  0.1893 -0.7191  0.2232
16484TIP3    H270868   0.824   2.892  12.137 -3.4260  0.0968  0.5760
16485TIP3   OH270869   4.577   4.399   4.230  0.2258 -0.0369  0.1229
16485TIP3    H170870   4.631   4.341   4.176 -0.2560  0.0520 -0.4548
16485TIP3    H270871   4.519   4.443   4.168  0.1280  0.5647  0.6350
16486TIP3   OH270872   5.799   6.756  13.542 -0.3554 -0.2361  0.5216
16486TIP3    H170873   5.853   6.728  13.616  0.7205 -1.6967 -0.7973
16486TIP3    H270874   5.816   6.692  13.473 -2.6149  0.1469 -0.4510
16487TIP3   OH270875   6.185   0.121   2.239  0.0124  0.4748  0.4464
16487TIP3    H170876   6.211   0.081   2.156  0.0872 -0.7122  1.0249
16487TIP3    H270877   6.123   0.189   2.215 -0.0067  0.0980 -0.5848
16488TIP3   OH270878   5.639   5.681  12.516  0.2309 -0.2845 -0.1004
16488TIP3    H170879   5.710   5.731  12.555 -0.1602  0.6233 -0.5181
16488TIP3    H270880   5.633   5.601  12.568  1.2674 -0.1645  0.2004
16489TIP3   OH270881   5.790   5.016   1.045 -0.1335  1.0122  0.3742
16489TIP3    H170882   5.848   4.944   1.022 -1.2098  0.1554  0.3211
16489TIP3    H270883   5.822   5.090   0.994 -0.8253 -0.1751 -1.8183
16490TIP3   OH270884   1.570   4.222   1.274 -0.1029 -0.1562 -0.0939
16490TIP3    H170885   1.658   4.190   1.255  0.7198  2.1231 -0.1444
16490TIP3    H270886   1.565   4.223   1.369  0.5304  1.2901 -0.0624
16491TIP3   OH270887   4.314   5.054  14.381 -0.2916  0.3296 -0.1127
16491TIP3    H170888   4.316   5.147  14.403 -0.1709  0.2810  0.0851
16491TIP3    H270889   4.406   5.026  14.384 -0.2743  0.3159 -0.6583
16492TIP3   OH270890   1.849   0.304  16.714 -0.0251 -0.3714 -0.7032
16492TIP3    H170891   1.886   0.291  16.627  1.5982  0.7532 -0.2032
16492TIP3    H270892   1.815   0.394  16.713  0.3086 -0.2375 -0.0659
16493TIP3   OH270893   1.878   5.953   4.958 -0.5149 -0.1983  0.7751
16493TIP3    H170894   1.931   5.880   4.991  0.3077 -0.9857 -2.0866
16493TIP3    H270895   1.925   6.032   4.986  1.5490 -0.8736 -0.6506
16494TIP3   OH270896   4.772   4.588   0.339  0.1780 -0.5685  0.0207
16494TIP3    H170897   4.803   4.574   0.428 -0.3224  0.7366  0.4175
16494TIP3    H270898   4.852   4.586   0.285  0.4394 -1.6884  0.4521
16495TIP3   OH270899   1.769   0.302  12.435  0.0291 -0.0796 -0.2503
16495TIP3    H170900   1.739   0.219  12.470 -0.3521 -0.1352 -0.6926
16495TIP3    H270901   1.688   0.352  12.419  0.2176  0.1103 -0.6211
16496TIP3   OH270902   5.245   3.475  15.035 -0.5432  0.7400 -0.3106
16496TIP3    H170903   5.272   3.471  14.944 -1.7987  0.6780 -0.6849
16496TIP3    H270904   5.170   3.416  15.041  0.2967 -0.2219  1.0375
16497TIP3   OH270905   4.584   1.322   2.621 -0.1730  0.0233 -0.2458
16497TIP3    H170906   4.514   1.278   2.670  0.1024 -0.4872 -0.3019
16497TIP3    H270907   4.555   1.413   2.614 -1.4828 -0.4646 -1.4609
16498TIP3   OH270908   1.683   3.596   3.273  0.0031  0.9024  0.6771
16498TIP3    H170909   1.776   3.576   3.273 -0.0548  0.4826 -1.8458
16498TIP3    H270910   1.641   3.511   3.290  0.0054  0.3742 -1.7746
16499TIP3   OH270911   2.361   4.397  15.339 -0.1104  0.2747 -0.2093
16499TIP3    H170912   2.364   4.321  15.282 -1.6213  0.5262 -0.6398
16499TIP3    H270913   2.331   4.468  15.283 -1.6697  0.5166  0.8962
16500TIP3   OH270914   0.755   4.854  16.440  0.2960 -0.0439  0.1332
16500TIP3    H170915   0.716   4.941  16.428  2.2268  0.6942 -1.0009
16500TIP3    H270916   0.690   4.805  16.490 -1.2241  1.7625 -0.0386
16501TIP3   OH270917   2.008   1.523   2.155  0.3820 -0.0987 -0.7589
16501TIP3    H170918   2.031   1.467   2.081  1.3340 -0.8760  0.1175
16501TIP3    H270919   2.090   1.567   2.178  0.5802 -1.3381  1.0676
16502TIP3   OH270920   2.207   5.247   1.670  0.1261 -0.0946 -0.0375
16502TIP3    H170921   2.240   5.222   1.756 -0.9748 -0.9120  0.1593
16502TIP3    H270922   2.147   5.320   1.688 -0.0777 -0.2421 -0.1199
16503TIP3   OH270923   1.281   4.138  12.337  0.4982  0.7837 -0.0173
16503TIP3    H170924   1.197   4.181  12.350  0.3357  0.6424 -0.5643
16503TIP3    H270925   1.338   4.207  12.300  0.5096  0.7795 -0.0078
16504TIP3   OH270926   2.591   3.039   5.762  0.8348 -0.7933  0.3343
16504TIP3    H170927   2.528   3.007   5.697  1.8667 -1.1317 -0.5214
16504TIP3    H270928   2.540   3.049   5.842 -0.7395  0.8186 -0.8367
16505TIP3   OH270929   1.694   4.353  15.953 -0.0764 -0.2545 -0.6420
16505TIP3    H170930   1.778   4.372  15.912  0.0513 -0.8986 -0.6843
16505TIP3    H270931   1.633   4.415  15.912  0.2632 -0.1604 -1.0105
16506TIP3   OH270932   3.420   6.342  11.327  0.7653  0.8932 -0.1130
16506TIP3    H170933   3.469   6.329  11.246  0.9149  0.7288  0.0047
16506TIP3    H270934   3.369   6.261  11.337  0.3660  1.1183 -0.3096
16507TIP3   OH270935   2.199   3.193  12.632 -0.3394 -0.7997  0.6616
16507TIP3    H170936   2.286   3.186  12.592 -0.7661  1.2131 -0.6713
16507TIP3    H270937   2.199   3.278  12.675 -1.5071 -0.9654  0.9960
16508TIP3   OH270938   1.281   1.324  13.728  0.2291 -0.3294  0.4335
16508TIP3    H170939   1.208   1.383  13.713  0.7072  0.2189  0.2181
16508TIP3    H270940   1.251   1.264  13.796  0.3516  1.2265  1.8666
16509TIP3   OH270941   6.032   4.658   1.777  0.0709  0.2113 -0.2194
16509TIP3    H170942   5.996   4.620   1.697 -0.4197 -0.6609  0.4096
16509TIP3    H270943   6.125   4.638   1.775 -0.1568 -0.8743  0.0234
16510TIP3   OH270944   1.557   5.408  14.731  0.2662  0.5251 -0.4478
16510TIP3    H170945   1.583   5.500  14.735  0.0283  0.7191 -2.5798
16510TIP3    H270946   1.475   5.404  14.781 -0.1593  1.6438 -1.0246
16511TIP3   OH270947   0.109   6.171   5.479 -0.0947 -0.0854 -0.3369
16511TIP3    H170948   0.145   6.205   5.561  1.1477  0.1005 -0.9510
16511TIP3    H270949   0.099   6.248   5.423 -3.6266  0.2099  0.5944
16512TIP3   OH270950   2.177   4.355   3.447 -0.2753 -0.6303 -0.1706
16512TIP3    H170951   2.176   4.281   3.508  2.7698 -1.3123 -0.8840
16512TIP3    H270952   2.161   4.432   3.502  2.9823 -1.1865  1.6168
16513TIP3   OH270953   4.960   1.182   1.881 -0.4819  0.2361 -1.0043
16513TIP3    H170954   4.921   1.096   1.867  1.7476 -1.0446  0.4195
16513TIP3    H270955   4.961   1.223   1.794 -2.3418 -0.8140 -1.5354
16514TIP3   OH270956   1.124   2.685   6.270  0.1405  0.6397  0.0343
16514TIP3    H170957   1.051   2.634   6.306 -0.3331  1.4594  0.2429
16514TIP3    H270958   1.087   2.729   6.194  0.4663  0.9286  0.0460
16515TIP3   OH270959   2.837   2.271  11.324 -0.0986  0.0135  0.2496
16515TIP3    H170960   2.927   2.302  11.310 -0.5117  0.7470 -0.7545
16515TIP3    H270961   2.837   2.182  11.289  0.6081 -0.5164  1.5361
16516TIP3   OH270962   0.281   2.671   4.104  0.2750 -0.3037 -0.6343
16516TIP3    H170963   0.251   2.734   4.039  0.2304  1.2799  0.9043
16516TIP3    H270964   0.235   2.590   4.082 -0.1698  0.3626 -2.2090
16517TIP3   OH270965   2.758   4.129  15.954 -0.2293  0.0637 -0.1626
16517TIP3    H170966   2.790   4.192  16.018  0.4507  0.0537 -0.4862
16517TIP3    H270967   2.744   4.181  15.874 -0.9873  0.0608 -0.0278
16518TIP3   OH270968   0.903   2.622  13.432 -0.1487 -0.4528  0.0644
16518TIP3    H170969   0.915   2.708  13.391  0.9542 -0.2389  0.8182
16518TIP3    H270970   0.813   2.598  13.410  0.1963 -0.0281 -1.8873
16519TIP3   OH270971   1.910   0.743   6.348  0.4458  0.0442 -0.3275
16519TIP3    H170972   1.871   0.686   6.414  0.3552 -2.0557 -2.1350
16519TIP3    H270973   1.838   0.766   6.289  1.0617 -0.3161 -1.2356
16520TIP3   OH270974   2.824   0.129  15.333  0.2481 -0.1747  0.1876
16520TIP3    H170975   2.819   0.037  15.358  0.1420  0.2558  1.8398
16520TIP3    H270976   2.917   0.146  15.323  0.2086 -0.7371 -1.2501
16521TIP3   OH270977   0.673   6.570  11.383  0.5172  0.3369  0.2529
16521TIP3    H170978   0.695   6.530  11.467  1.7438 -0.4518 -0.4295
16521TIP3    H270979   0.756   6.603  11.350 -0.0338  1.0291 -0.4566
16522TIP3   OH270980   2.494   5.616   4.308 -0.2399  0.3064 -1.3479
16522TIP3    H170981   2.577   5.656   4.281  0.2759 -0.6260 -1.1731
16522TIP3    H270982   2.519   5.554   4.377 -1.2053  0.7108 -0.6274
16523TIP3   OH270983   0.258   5.922   0.432 -0.4141  0.3846 -0.2515
16523TIP3    H170984   0.349   5.931   0.462 -0.3805  0.5393 -0.3995
16523TIP3    H270985   0.265   5.901   0.339 -0.4926 -1.3285  0.1198
16524TIP3   OH270986   6.096   1.886   5.659 -0.4166 -0.5203  0.9420
16524TIP3    H170987   6.137   1.972   5.649  2.1312 -1.6553  1.2840
16524TIP3    H270988   6.038   1.877   5.584  1.8148  0.1327 -0.8887
16525TIP3   OH270989   3.093   1.519  16.963  0.1245 -0.6242 -0.0176
16525TIP3    H170990   3.028   1.492  16.898 -0.0581 -1.1562  0.3760
16525TIP3    H270991   3.167   1.551  16.912 -0.8420  0.9471 -0.4663
16526TIP3   OH270992   5.832   1.571   2.659  0.0160 -0.2647 -0.0367
16526TIP3    H170993   5.833   1.598   2.751 -0.3195 -2.7069  0.7291
16526TIP3    H270994   5.914   1.523   2.648  0.1775  0.2492 -1.0945
16527TIP3   OH270995   0.570   4.422   0.569 -0.2049 -0.4518 -0.2169
16527TIP3    H170996   0.573   4.506   0.615  0.4300 -0.4064 -0.3450
16527TIP3    H270997   0.477   4.397   0.571 -0.6540  1.0350 -1.6087
16528TIP3   OH270998   1.755   2.094   1.425  0.3659 -0.3199  0.1964
16528TIP3    H170999   1.841   2.054   1.414  0.9312  0.7948  0.4639
16528TIP3    H271000   1.707   2.033   1.481  0.7706 -1.2520 -0.4736
16529TIP3   OH271001   5.702   1.135  17.141 -0.1514  0.0848  0.2341
16529TIP3    H171002   5.748   1.079  17.078 -1.1309 -1.3382  0.7444
16529TIP3    H271003   5.771   1.179  17.190  0.6906 -1.8456  0.8426
16530TIP3   OH271004   1.765   2.752   3.362  0.5232  0.3379 -0.3289
16530TIP3    H171005   1.788   2.837   3.323  2.3310 -0.0480 -0.1587
16530TIP3    H271006   1.822   2.690   3.316  1.2331 -0.3942  1.5312
16531TIP3   OH271007   3.693   3.882   0.624 -0.2596  0.3949 -0.3412
16531TIP3    H171008   3.650   3.805   0.660 -1.5895  1.4740  0.4211
16531TIP3    H271009   3.720   3.932   0.700  1.8042  0.0471 -0.8193
16532TIP3   OH271010   3.650   1.113   6.180 -0.8966  0.0477 -0.0163
16532TIP3    H171011   3.675   1.163   6.258 -2.6813  0.1541  0.5335
16532TIP3    H271012   3.554   1.111   6.183 -0.9047 -4.1454  0.4705
16533TIP3   OH271013   0.918   5.839   0.409  0.9125  0.3909  0.3800
16533TIP3    H171014   0.892   5.908   0.470 -0.1870 -1.8866  2.5748
16533TIP3    H271015   1.013   5.833   0.418  0.9253  1.0974  0.7360
16534TIP3   OH271016   3.454   5.466  12.405 -0.1370 -0.3841 -0.1795
16534TIP3    H171017   3.493   5.438  12.323  0.4143 -1.4789  0.4462
16534TIP3    H271018   3.386   5.402  12.423 -0.9519  0.4379 -0.3009
16535TIP3   OH271019   5.585   3.364   3.480  0.0676 -0.4008  0.5869
16535TIP3    H171020   5.640   3.420   3.426 -0.7284 -0.7221 -0.5651
16535TIP3    H271021   5.646   3.322   3.541  1.2197 -1.3627 -1.1991
16536TIP3   OH271022   6.187   2.401  16.568  0.0441 -0.3543 -0.4610
16536TIP3    H171023   6.176   2.307  16.552  0.0732 -0.3508 -0.4997
16536TIP3    H271024   6.120   2.442  16.513  1.0727 -0.2605 -1.6576
16537TIP3   OH271025   2.858   4.644   2.406 -0.2797 -0.2610 -0.1770
16537TIP3    H171026   2.783   4.674   2.457  0.5887 -1.0397  1.6425
16537TIP3    H271027   2.839   4.552   2.387  0.1485 -0.4326  0.2042
16538TIP3   OH271028   0.284   3.732   1.360  0.3268  0.3405 -0.7530
16538TIP3    H171029   0.373   3.711   1.390 -0.3832 -0.8138  0.6000
16538TIP3    H271030   0.290   3.822   1.330  1.6849  0.6829  0.4720
16539TIP3   OH271031   3.875   4.119   0.792 -0.6077  0.0182  0.0480
16539TIP3    H171032   3.920   4.084   0.715 -0.6551 -1.4055  0.6499
16539TIP3    H271033   3.945   4.144   0.852 -0.5943 -0.1733  0.1111
16540TIP3   OH271034   6.557   3.566   2.145 -0.3174  0.4403  0.3800
16540TIP3    H171035   6.493   3.618   2.096  2.0250  2.7718 -0.3511
16540TIP3    H271036   6.543   3.476   2.115 -1.4406  1.2950 -1.7816
16541TIP3   OH271037   6.713   6.341  11.742 -0.3960 -0.1869  0.3173
16541TIP3    H171038   6.779   6.293  11.692  1.2195  1.6971  0.5480
16541TIP3    H271039   6.706   6.294  11.825 -2.3903 -2.7770 -1.2752
16542TIP3   OH271040   4.212   6.587  13.759  0.2436  0.8039 -0.2548
16542TIP3    H171041   4.215   6.539  13.676 -0.7744  0.6259 -0.1952
16542TIP3    H271042   4.299   6.625  13.768  2.0389 -3.2752  1.0175
16543TIP3   OH271043   2.119   0.721  15.036 -0.0363 -0.0875 -0.2906
16543TIP3    H171044   2.121   0.670  14.955 -0.0049 -0.2791 -0.1679
16543TIP3    H271045   2.027   0.720  15.063  0.1758 -1.1906  0.4206
16544TIP3   OH271046   3.465   4.087   3.573  0.4205  0.0578 -0.2871
16544TIP3    H171047   3.486   4.074   3.666 -0.6078 -0.6480 -0.1402
16544TIP3    H271048   3.477   4.001   3.534 -3.4074 -0.7363  0.0757
16545TIP3   OH271049   4.859   5.176   6.942  0.1730 -0.3094 -0.0876
16545TIP3    H171050   4.850   5.162   6.847  0.4144  2.1884 -0.5087
16545TIP3    H271051   4.865   5.088   6.978  0.7370 -1.2968 -2.4663
16546TIP3   OH271052   4.398   3.984  16.227 -0.3099  0.5109 -0.5387
16546TIP3    H171053   4.421   4.073  16.253  0.8858 -0.0028  0.2158
16546TIP3    H271054   4.480   3.947  16.193 -0.7385 -0.3565 -0.6416
16547TIP3   OH271055   2.447   0.755   4.331  0.5776  0.0272 -0.3832
16547TIP3    H171056   2.368   0.713   4.364  1.2588  0.5725  2.0258
16547TIP3    H271057   2.502   0.768   4.408  1.6164  2.7306 -1.5091
16548TIP3   OH271058   0.108   3.434   4.119 -0.1032  0.0087 -0.1703
16548TIP3    H171059   0.108   3.396   4.032  1.0923  0.4686 -0.3798
16548TIP3    H271060   0.157   3.516   4.110 -1.5976  1.0081  0.5306
16549TIP3   OH271061   6.539   6.490  12.114  0.2786  0.0004  0.0334
16549TIP3    H171062   6.514   6.538  12.193 -0.5102  0.4008 -0.4512
16549TIP3    H271063   6.574   6.407  12.146  0.5506  0.4132  0.8287
16550TIP3   OH271064   6.253   2.465   5.121 -0.0669 -0.1264 -0.1663
16550TIP3    H171065   6.253   2.412   5.201 -1.4393  0.7587  0.4482
16550TIP3    H271066   6.333   2.517   5.126  0.3040 -0.7331  0.1888
16551TIP3   OH271067   6.059   4.036   1.584  0.3201 -0.0992  0.1608
16551TIP3    H171068   6.078   3.971   1.516  0.6950  0.3745 -0.1882
16551TIP3    H271069   6.144   4.077   1.603  0.3584 -0.7357  1.4384
16552TIP3   OH271070   6.080   4.370  12.084 -0.0958 -0.2725 -0.2698
16552TIP3    H171071   6.052   4.315  12.010  0.1052 -0.4657 -0.2041
16552TIP3    H271072   6.147   4.427  12.046 -1.3121  0.9151 -0.6809
16553TIP3   OH271073   0.977   4.161   5.130 -0.1647 -0.0854 -0.1056
16553TIP3    H171074   1.029   4.129   5.057 -0.6168 -0.5177 -0.2429
16553TIP3    H271075   0.901   4.103   5.133 -0.2406  0.0398  0.5937
16554TIP3   OH271076   1.442   6.062  16.857 -0.2266 -0.2751 -0.1133
16554TIP3    H171077   1.525   6.061  16.809 -0.7666  0.4310 -1.0751
16554TIP3    H271078   1.465   6.033  16.945  0.9748 -0.4780 -0.4848
16555TIP3   OH271079   5.914   1.393  15.844 -0.1917 -0.3623 -0.0721
16555TIP3    H171080   5.994   1.420  15.800 -1.2951 -0.1475 -2.0011
16555TIP3    H271081   5.866   1.475  15.859  0.0027 -0.4721  1.1993
16556TIP3   OH271082   0.376   0.903   5.271  0.5152  0.2297  0.2247
16556TIP3    H171083   0.285   0.922   5.296  0.5999  1.0327 -0.0613
16556TIP3    H271084   0.396   0.968   5.204  1.1062 -0.3403 -0.1505
16557TIP3   OH271085   0.274   5.512   4.947  0.5186  0.1194  0.4583
16557TIP3    H171086   0.368   5.494   4.941  0.7067  0.9455  0.8168
16557TIP3    H271087   0.261   5.589   4.892 -0.1393 -0.6543 -0.4652
16558TIP3   OH271088   3.514   5.716  15.834 -0.1943 -0.3589 -0.2017
16558TIP3    H171089   3.567   5.795  15.851 -0.4726 -0.5856  1.8149
16558TIP3    H271090   3.462   5.739  15.757  0.1532  1.2231  0.0057
16559TIP3   OH271091   4.493   0.162   2.238  0.0878  0.3701 -0.1029
16559TIP3    H171092   4.408   0.161   2.283  0.1315  2.2090  0.0635
16559TIP3    H271093   4.552   0.208   2.298  0.5511  1.3991 -1.3082
16560TIP3   OH271094   0.483   5.675   1.883  0.3934  0.2910  0.3128
16560TIP3    H171095   0.534   5.744   1.924 -1.3637  0.6675  1.9663
16560TIP3    H271096   0.535   5.595   1.896  1.3039  0.9166  0.5078
16561TIP3   OH271097   6.480   0.454  11.854 -0.0813  0.0952 -0.1748
16561TIP3    H171098   6.440   0.434  11.769 -0.9758 -0.0375  0.2677
16561TIP3    H271099   6.405   0.466  11.913  0.5468 -0.4963  0.7494
16562TIP3   OH271100   6.527   6.546  13.644 -0.7466  0.0911 -0.4445
16562TIP3    H171101   6.433   6.560  13.649 -0.4606  1.5883  1.0835
16562TIP3    H271102   6.565   6.624  13.683  1.0531 -1.9263  2.0535
16563TIP3   OH271103   3.237   5.511  15.330  0.0555  0.5369  0.0991
16563TIP3    H171104   3.295   5.512  15.406 -0.1982  1.6815  0.2897
16563TIP3    H271105   3.264   5.434  15.280  0.0036 -0.4286  1.5157
16564TIP3   OH271106   2.381   6.306   2.548 -0.2705  0.1041 -0.1909
16564TIP3    H171107   2.452   6.362   2.517  0.1291 -0.1936  0.1756
16564TIP3    H271108   2.309   6.323   2.488  0.3224 -0.0806 -0.9636
16565TIP3   OH271109   3.278   0.228   2.813  0.4413  0.3391  0.1889
16565TIP3    H171110   3.302   0.153   2.758  0.4467  0.1473  0.4489
16565TIP3    H271111   3.182   0.233   2.806  0.3901 -0.0110  0.5714
16566TIP3   OH271112   2.685   3.660   5.480  0.5028  0.1115 -0.2385
16566TIP3    H171113   2.773   3.635   5.508  0.9282 -0.2625 -1.8657
16566TIP3    H271114   2.653   3.583   5.432 -1.0146 -0.0476  1.0032
16567TIP3   OH271115   5.926   1.658   4.976 -0.3693 -0.6004 -0.3893
16567TIP3    H171116   5.857   1.713   4.938  0.3806  1.0270  0.5206
16567TIP3    H271117   5.892   1.633   5.062 -0.2595 -0.6525 -0.3604
16568TIP3   OH271118   6.400   1.451   0.811 -0.2066 -0.1767  0.4513
16568TIP3    H171119   6.305   1.460   0.813 -0.5027 -3.0122  2.2615
16568TIP3    H271120   6.433   1.530   0.854 -1.7539  0.5532  0.3219
16569TIP3   OH271121   2.412   5.776  15.131  0.0978 -0.0441 -0.8056
16569TIP3    H171122   2.461   5.818  15.060  1.0782  0.8161  0.3478
16569TIP3    H271123   2.473   5.712  15.167  0.0527  0.3579  0.0112
16570TIP3   OH271124   6.298   6.406   3.545  0.2575  0.2654 -0.1483
16570TIP3    H171125   6.252   6.323   3.537  1.1549 -0.3385  0.7484
16570TIP3    H271126   6.229   6.472   3.543 -0.6182 -0.5939  0.8169
16571TIP3   OH271127   5.500   3.478   5.698  0.5367 -0.0401  0.1484
16571TIP3    H171128   5.481   3.554   5.643  1.3211  0.5014  0.6144
16571TIP3    H271129   5.539   3.414   5.638  1.5890  0.6299  0.1019
16572TIP3   OH271130   6.633   6.311   2.371 -0.5599  0.4279  0.4651
16572TIP3    H171131   6.673   6.373   2.310 -1.0429 -0.3406 -0.6730
16572TIP3    H271132   6.570   6.262   2.317  1.3013 -2.4591  0.8061
16573TIP3   OH271133   5.289   2.002   5.960 -0.4179 -0.3489 -0.3708
16573TIP3    H171134   5.286   1.908   5.980  0.2144 -0.6571 -1.6689
16573TIP3    H271135   5.374   2.015   5.919 -0.7916  0.6690 -0.8236
16574TIP3   OH271136   1.469   1.887   1.384 -0.1331 -0.0953  0.3054
16574TIP3    H171137   1.443   1.957   1.324 -0.6118  0.4160  1.0984
16574TIP3    H271138   1.411   1.814   1.362 -0.7479  0.3063  0.5705
16575TIP3   OH271139   3.570   1.478   2.306  0.7031 -0.5100  0.3890
16575TIP3    H171140   3.600   1.554   2.356  0.3013 -0.4955  0.6104
16575TIP3    H271141   3.571   1.508   2.215  3.5775 -1.2503  0.1523
16576TIP3   OH271142   2.182   2.547   5.378  0.1251 -0.1062 -0.7210
16576TIP3    H171143   2.241   2.523   5.450 -0.8398  0.3560  0.2333
16576TIP3    H271144   2.095   2.527   5.412 -0.3321  0.0931 -1.7832
16577TIP3   OH271145   3.969   1.218   0.068 -0.2026  0.0875  0.2031
16577TIP3    H171146   4.031   1.291   0.074 -0.7385  0.5803 -0.2587
16577TIP3    H271147   4.021   1.140   0.089  0.9217  0.3212 -1.6647
16578TIP3   OH271148   6.075   3.041  12.936 -0.8196  0.2278 -0.8071
16578TIP3    H171149   6.016   3.062  12.863  1.1052 -0.1794 -2.5159
16578TIP3    H271150   6.050   2.952  12.961 -0.7695 -0.0407 -1.6895
16579TIP3   OH271151   5.390   4.731   0.705  0.3772 -0.1388 -0.0588
16579TIP3    H171152   5.373   4.813   0.658 -3.1114 -0.0221  1.3068
16579TIP3    H271153   5.418   4.670   0.637 -2.0881  0.7528 -1.9487
16580TIP3   OH271154   0.669   0.362  10.863  0.1682  0.4235  0.5329
16580TIP3    H171155   0.684   0.446  10.820  1.1320  0.3237  0.6643
16580TIP3    H271156   0.621   0.385  10.943 -1.3248  0.6399 -0.4173
16581TIP3   OH271157   0.547   4.514  11.487  0.2311  0.0363  0.1408
16581TIP3    H171158   0.473   4.496  11.545  0.3117 -0.2278  0.1659
16581TIP3    H271159   0.513   4.496  11.399  0.2643 -0.0795  0.1514
16582TIP3   OH271160   4.500   4.610  17.031 -0.1991  0.0355  0.0997
16582TIP3    H171161   4.528   4.633  16.942 -1.6292  2.7504  0.3042
16582TIP3    H271162   4.571   4.642  17.087 -0.1988  0.0579  0.0867
16583TIP3   OH271163   2.347   6.593   3.268 -0.0756  0.2279 -0.3354
16583TIP3    H171164   2.385   6.552   3.346  2.2260 -0.0868 -1.5886
16583TIP3    H271165   2.338   6.521   3.206 -0.7450  0.7168 -0.8042
16584TIP3   OH271166   5.945   0.405   5.082  0.0784 -0.2723 -0.0304
16584TIP3    H171167   5.949   0.333   5.145 -0.8196  0.9853  1.4991
16584TIP3    H271168   5.876   0.462   5.115  1.6568  1.9736 -0.4703
16585TIP3   OH271169   4.910   1.917   3.498 -0.6559  0.9591 -0.1959
16585TIP3    H171170   4.931   1.911   3.591 -0.2589  1.0224 -0.2815
16585TIP3    H271171   4.814   1.916   3.495 -0.6574 -0.7015  0.0974
16586TIP3   OH271172   5.425   0.941   2.451  0.1732 -0.3514 -0.1666
16586TIP3    H171173   5.475   0.935   2.369  0.0167  1.1037 -0.3899
16586TIP3    H271174   5.439   1.031   2.480 -1.5452 -0.2226  0.2762
16587TIP3   OH271175   3.889   5.366   3.930  0.0058 -0.4807  0.2278
16587TIP3    H171176   3.900   5.271   3.934 -0.3664 -0.5439 -0.1117
16587TIP3    H271177   3.863   5.383   3.839  0.7388  0.0195  0.1017
16588TIP3   OH271178   1.292   4.375   1.504 -0.4369 -0.0976 -0.7768
16588TIP3    H171179   1.365   4.421   1.463 -0.7531  0.9240 -0.2269
16588TIP3    H271180   1.276   4.423   1.586 -3.4404  1.3702 -2.1632
16589TIP3   OH271181   1.885   1.548  10.734  0.0908 -0.3329 -0.2882
16589TIP3    H171182   1.919   1.477  10.680  0.0968  0.4265 -1.2810
16589TIP3    H271183   1.915   1.628  10.692 -1.0003  0.2941  0.0958
16590TIP3   OH271184   6.614   0.103  15.471  0.2870 -0.1336 -0.2703
16590TIP3    H171185   6.648   0.141  15.390 -0.1136 -1.1668 -0.9382
16590TIP3    H271186   6.585   0.178  15.522 -0.3602  0.4735 -1.5038
16591TIP3   OH271187   0.821   0.176   3.386 -0.7031  0.2350  0.0460
16591TIP3    H171188   0.774   0.209   3.463  1.2598  1.6298  0.6642
16591TIP3    H271189   0.752   0.158   3.322 -2.2603  0.1755  1.7040
16592TIP3   OH271190   5.670   2.700   3.753 -0.4249 -0.6569  0.1514
16592TIP3    H171191   5.676   2.746   3.669 -0.9343  0.6231  0.8023
16592TIP3    H271192   5.620   2.621   3.733 -1.5946  0.2349 -0.5181
16593TIP3   OH271193   2.111   3.853  16.577 -0.9606 -0.1454  0.3247
16593TIP3    H171194   2.171   3.928  16.576  0.8592 -1.5655 -0.8967
16593TIP3    H271195   2.092   3.837  16.484  1.0010 -2.9577  0.3458
16594TIP3   OH271196   2.729   1.271   5.221 -0.0705 -0.0379  0.2747
16594TIP3    H171197   2.711   1.273   5.315 -0.8876  0.8576  0.1090
16594TIP3    H271198   2.664   1.331   5.183  0.2397 -0.4110 -0.8597
16595TIP3   OH271199   4.564   4.010  12.610 -0.0635 -0.0975 -0.1504
16595TIP3    H171200   4.565   3.930  12.557  0.3026 -1.0573  1.2715
16595TIP3    H271201   4.551   4.081  12.547  1.7366 -1.0846 -1.6656
16596TIP3   OH271202   5.958   1.430  10.878  0.2499 -0.7511  0.4476
16596TIP3    H171203   5.894   1.433  10.949  1.3106  1.5850  1.3403
16596TIP3    H271204   5.931   1.355  10.825 -1.3480 -1.7191  2.5635
16597TIP3   OH271205   0.003   3.004  14.799  0.0418 -0.4564 -0.0516
16597TIP3    H171206  -0.044   3.006  14.715 -0.7115 -2.4748  0.2939
16597TIP3    H271207   0.070   3.072  14.790 -1.9301  1.4229 -1.1525
16598TIP3   OH271208   0.312   1.210  14.081  0.5263  1.0151 -0.0260
16598TIP3    H171209   0.385   1.153  14.107 -0.6640 -0.7455 -0.4387
16598TIP3    H271210   0.332   1.234  13.990  0.1892 -0.1657 -0.4273
16599TIP3   OH271211   3.298   6.445  11.710 -0.2394  0.4674 -0.0062
16599TIP3    H171212   3.219   6.472  11.663 -0.7727 -0.3533  0.4130
16599TIP3    H271213   3.285   6.476  11.799  0.4991  1.4795 -0.2449
16600TIP3   OH271214   4.917   0.933   2.126  0.2247 -0.4258 -0.0010
16600TIP3    H171215   4.937   1.026   2.114  0.3270 -0.3676  0.6123
16600TIP3    H271216   4.988   0.900   2.180 -1.0162 -0.3412  1.7349
16601TIP3   OH271217   4.404   1.237   2.385 -0.3670  0.7224 -0.2272
16601TIP3    H171218   4.311   1.221   2.367 -0.7984  0.6041  1.9870
16601TIP3    H271219   4.414   1.215   2.477  2.1246 -0.3985 -0.7335
16602TIP3   OH271220   5.838   0.744   0.963 -0.0537 -0.2250 -0.5019
16602TIP3    H171221   5.882   0.694   0.894  1.1237  0.0799  0.0128
16602TIP3    H271222   5.866   0.834   0.949  0.1709 -0.1567  0.3620
16603TIP3   OH271223   2.670   5.603   0.406  0.4764  0.0763  0.2869
16603TIP3    H171224   2.751   5.593   0.357 -0.4363 -2.0524 -0.8323
16603TIP3    H271225   2.602   5.610   0.339 -0.4877 -0.0871  1.2319
16604TIP3   OH271226   4.001   4.515  10.762  0.6404 -0.1573  0.2076
16604TIP3    H171227   4.054   4.594  10.776  2.4436 -1.3665  0.2677
16604TIP3    H271228   3.961   4.498  10.847 -0.6076  1.2698 -0.0602
16605TIP3   OH271229   3.490   6.060   4.941  0.1398  0.0206  0.1200
16605TIP3    H171230   3.524   6.006   4.871 -0.7172 -0.9332  0.4232
16605TIP3    H271231   3.567   6.098   4.983  0.7465 -0.8701 -0.1773
16606TIP3   OH271232   6.428   2.043  13.171  0.5671  0.2613 -0.1296
16606TIP3    H171233   6.465   2.131  13.181 -1.4989  1.0076  1.3833
16606TIP3    H271234   6.374   2.048  13.093  1.8479 -0.2069 -1.0704
16607TIP3   OH271235   5.600   0.532   0.731  0.4358 -0.4886  0.1349
16607TIP3    H171236   5.626   0.599   0.668  0.6429  0.8479  1.6236
16607TIP3    H271237   5.683   0.500   0.767  0.2027  1.3024  2.3305
16608TIP3   OH271238   1.295   5.818  14.206  0.0897  0.2991 -0.2195
16608TIP3    H171239   1.213   5.821  14.255  1.0789 -0.3875  1.5621
16608TIP3    H271240   1.269   5.802  14.116 -1.6858 -1.3860  0.5415
16609TIP3   OH271241   0.456   5.904  16.428 -0.5273 -0.0762 -0.0627
16609TIP3    H171242   0.450   5.912  16.523 -0.0255  0.0032 -0.0325
16609TIP3    H271243   0.365   5.906  16.397 -0.7164 -0.7118  0.4581
16610TIP3   OH271244   3.931   1.439  16.340  0.1281 -1.0664  1.3624
16610TIP3    H171245   3.950   1.345  16.338 -1.4245 -1.4280  2.4231
16610TIP3    H271246   3.868   1.449  16.412 -2.4269  0.2639 -0.9614
16611TIP3   OH271247   4.466   3.631  15.888 -0.1840 -0.1692  0.3669
16611TIP3    H171248   4.542   3.673  15.849 -0.4576 -0.2918 -0.3135
16611TIP3    H271249   4.410   3.703  15.917  0.7715 -0.0814  2.0341
16612TIP3   OH271250   0.775   2.696   3.077  0.1106  0.0085  0.1441
16612TIP3    H171251   0.763   2.789   3.095  0.1953 -0.0366  0.4317
16612TIP3    H271252   0.705   2.652   3.126 -1.4162  0.0911 -1.8899
16613TIP3   OH271253   6.236   2.350   4.502 -0.7045 -0.1714 -0.4629
16613TIP3    H171254   6.171   2.292   4.540 -0.9767 -0.3455 -1.2059
16613TIP3    H271255   6.247   2.321   4.412  0.8045 -0.4941 -0.1990
16614TIP3   OH271256   2.121   4.199  12.432 -0.2883  0.0005  0.4063
16614TIP3    H171257   2.166   4.135  12.487 -0.3057 -0.2391  0.1409
16614TIP3    H271258   2.124   4.161  12.344  0.1318  0.5874  0.1617
16615TIP3   OH271259   5.992   2.766   4.031 -0.2835 -0.9459  0.0218
16615TIP3    H171260   6.045   2.787   3.954 -0.6219  1.7060  0.4715
16615TIP3    H271261   5.902   2.774   4.001 -0.4148 -1.4532  0.2844
16616TIP3   OH271262   5.013   3.933   3.488 -0.2919 -0.0833 -0.3780
16616TIP3    H171263   4.932   3.964   3.448 -0.3178  1.9047  1.1086
16616TIP3    H271264   5.072   3.919   3.415 -0.1456  3.9751 -1.1844
16617TIP3   OH271265   1.080   1.588  12.481  0.9058  0.5033 -0.3078
16617TIP3    H171266   1.051   1.663  12.429 -0.0979 -0.6670 -1.4510
16617TIP3    H271267   0.999   1.540  12.501  1.6791 -0.9965 -0.7190
16618TIP3   OH271268   5.310   0.672  11.320 -0.1818 -0.0155  0.2965
16618TIP3    H171269   5.351   0.588  11.338  0.8027  0.0680 -1.4053
16618TIP3    H271270   5.382   0.727  11.288 -1.0721  1.0288  0.0747
16619TIP3   OH271271   2.661   0.860  11.821  0.2481  0.0441 -0.3278
16619TIP3    H171272   2.638   0.927  11.886  1.3164  1.6522 -1.5761
16619TIP3    H271273   2.656   0.906  11.737  1.8032 -1.2322 -1.1397
16620TIP3   OH271274   2.957   6.214  13.795  0.7152  0.4866 -0.0354
16620TIP3    H171275   2.974   6.300  13.832  0.7268 -0.0261  1.1789
16620TIP3    H271276   3.031   6.160  13.824 -0.0663 -0.3136  0.5085
16621TIP3   OH271277   3.876   0.115  11.240  0.2309  0.2085 -0.0591
16621TIP3    H171278   3.960   0.074  11.220 -1.2369 -1.3751 -3.1378
16621TIP3    H271279   3.855   0.166  11.162 -2.1750 -0.2714  0.2484
16622TIP3   OH271280   5.796   2.363   4.147 -0.1128  0.0711 -0.0250
16622TIP3    H171281   5.890   2.347   4.137 -0.2477 -0.1262 -0.9826
16622TIP3    H271282   5.790   2.436   4.209  0.6239 -1.1271  1.5124
16623TIP3   OH271283   4.056   6.156   5.098  0.1987  0.1246  0.1194
16623TIP3    H171284   4.056   6.251   5.102  0.0296  0.0959  1.1433
16623TIP3    H271285   3.967   6.131   5.125  0.2833 -0.3247 -0.0121
16624TIP3   OH271286   2.288   3.400  13.408 -0.1571 -0.0746  0.0966
16624TIP3    H171287   2.281   3.346  13.487 -0.2313 -0.5565 -0.2441
16624TIP3    H271288   2.301   3.338  13.337 -1.0521  0.3130 -0.4030
16625TIP3   OH271289   3.790   5.221   1.666 -0.2463 -0.3358  0.3151
16625TIP3    H171290   3.780   5.305   1.711  1.3089 -0.9485  1.8864
16625TIP3    H271291   3.756   5.236   1.579 -2.0419  1.3080  1.2673
16626TIP3   OH271292   1.442   6.007   5.120 -0.2621 -0.0783  0.0945
16626TIP3    H171293   1.439   6.093   5.077 -1.3465  1.5318  3.2693
16626TIP3    H271294   1.351   5.979   5.122 -0.0196 -0.8710 -0.0831
16627TIP3   OH271295   4.981   2.798   6.177  0.1447 -0.0200  0.6685
16627TIP3    H171296   4.987   2.716   6.226  0.3081  0.0941  0.8422
16627TIP3    H271297   4.932   2.856   6.234  0.7490  0.2644  0.9067
16628TIP3   OH271298   3.058   1.426  17.220 -0.5107 -0.3441 -0.4062
16628TIP3    H171299   3.136   1.435  17.274 -1.6390  0.0899  1.1993
16628TIP3    H271300   3.085   1.454  17.132  1.1619 -0.3896  0.0867
16629TIP3   OH271301   1.563   0.767  13.199  0.4262  0.2355 -0.0394
16629TIP3    H171302   1.481   0.778  13.151  0.2759 -2.2037 -0.3858
16629TIP3    H271303   1.538   0.726  13.281  1.4367 -1.8442 -0.7462
16630TIP3   OH271304   5.853   2.223  17.152 -0.3053 -0.4627  0.2739
16630TIP3    H171305   5.871   2.294  17.214  2.1571 -1.1855  0.4588
16630TIP3    H271306   5.851   2.265  17.067  0.1093  0.0078  0.4922
16631TIP3   OH271307   0.912   4.976   1.206  0.1138 -0.2826  0.7834
16631TIP3    H171308   0.987   5.024   1.242  0.9098  0.2962 -1.5783
16631TIP3    H271309   0.861   4.950   1.283  0.7596  2.5219  2.2144
16632TIP3   OH271310   3.944   4.853   1.865 -0.4685  0.1453  0.1766
16632TIP3    H171311   3.981   4.844   1.778  0.9610  0.1203  0.7737
16632TIP3    H271312   3.942   4.947   1.881  0.4163  0.1030  0.5841
16633TIP3   OH271313   6.258   4.999   2.922  0.4351 -0.2993 -0.4107
16633TIP3    H171314   6.346   5.033   2.931  0.3298 -0.1499  0.1006
16633TIP3    H271315   6.261   4.912   2.964  0.4370 -0.4595 -0.7410
16634TIP3   OH271316   4.447   0.213   1.380  0.0285  0.5343 -0.3073
16634TIP3    H171317   4.423   0.274   1.310 -1.1415 -0.8774 -1.1666
16634TIP3    H271318   4.367   0.200   1.430  0.6766  0.9531  0.8679
16635TIP3   OH271319   0.213   0.158  13.821 -0.1905 -0.2707 -0.0386
16635TIP3    H171320   0.214   0.088  13.756  1.5913  1.3305 -1.7825
16635TIP3    H271321   0.220   0.239  13.771 -1.6900  1.1800  1.9800
16636TIP3   OH271322   1.951   2.174   4.912  0.0463  0.3567 -0.0233
16636TIP3    H171323   1.974   2.217   4.830 -1.4574  0.8348 -0.2210
16636TIP3    H271324   1.877   2.225   4.946 -1.3519 -1.6748  0.0701
16637TIP3   OH271325   0.199   5.278   4.821 -0.3321  0.2595  0.1090
16637TIP3    H171326   0.240   5.200   4.784  0.0713  0.7153 -0.4211
16637TIP3    H271327   0.269   5.320   4.872 -0.3756  0.5818 -0.0915
16638TIP3   OH271328   1.510   0.122  12.409  0.1365  0.2580 -0.0454
16638TIP3    H171329   1.506   0.119  12.504  2.0818  1.8293  0.1179
16638TIP3    H271330   1.524   0.031  12.382 -4.3501 -0.8384  0.8773
16639TIP3   OH271331   4.878   0.490   4.288 -0.4870  0.3442  0.0517
16639TIP3    H171332   4.959   0.441   4.281 -0.2606  0.5560  1.0917
16639TIP3    H271333   4.863   0.525   4.200  0.4078  0.0863 -0.2049
16640TIP3   OH271334   1.962   4.501   1.009  0.2474 -0.1801  0.5563
16640TIP3    H171335   1.918   4.473   0.929 -0.6808  0.3003  0.8850
16640TIP3    H271336   1.940   4.594   1.017  1.4211  0.0953  0.6738
16641TIP3   OH271337   1.121   0.067   4.229  0.1288 -0.4414  0.3285
16641TIP3    H171338   1.200   0.019   4.205  0.6133 -0.0029  1.0250
16641TIP3    H271339   1.098   0.118   4.152  1.7510  1.0746  0.8263
16642TIP3   OH271340   1.931   3.829   2.041  0.2483  0.3302  0.2245
16642TIP3    H171341   1.962   3.869   1.960  1.1530 -0.0331  0.3962
16642TIP3    H271342   1.836   3.845   2.040 -0.2749 -2.4755 -2.4928
16643TIP3   OH271343   5.675   5.112   1.933 -0.5419  0.0376 -0.2246
16643TIP3    H171344   5.720   5.175   1.990 -0.5443  0.0658 -0.2542
16643TIP3    H271345   5.737   5.097   1.862 -0.3271 -0.3907  0.0525
16644TIP3   OH271346   3.772   6.316   5.982  0.0928  0.2929 -0.3643
16644TIP3    H171347   3.846   6.266   6.018  0.1933  1.1501  0.6172
16644TIP3    H271348   3.743   6.263   5.908  0.1522 -1.2726  0.7025
16645TIP3   OH271349   2.679   6.541   3.177 -0.4195  0.1808 -0.3166
16645TIP3    H171350   2.615   6.536   3.106 -0.5535  1.2058 -0.2698
16645TIP3    H271351   2.724   6.456   3.174  0.2868  0.6012 -2.2927
16646TIP3   OH271352   0.530   2.479  15.660 -0.0742  0.6091 -0.4378
16646TIP3    H171353   0.503   2.389  15.679  0.6322  0.2541 -1.1011
16646TIP3    H271354   0.542   2.481  15.565  0.7873  1.1571 -0.3216
16647TIP3   OH271355   4.977   5.447  13.471  0.0782  0.3710 -0.2961
16647TIP3    H171356   4.935   5.401  13.544 -0.0946 -0.4765 -0.9134
16647TIP3    H271357   4.904   5.478  13.418  0.2085 -1.7495 -1.7668
16648TIP3   OH271358   2.019   2.870   2.573 -0.2607 -0.1193  0.8427
16648TIP3    H171359   2.032   2.828   2.658 -0.2338  1.9409  1.8851
16648TIP3    H271360   1.926   2.861   2.555 -0.3689 -0.0287  1.3664
16649TIP3   OH271361   6.025   3.888  14.274 -0.7860 -0.1444 -0.0003
16649TIP3    H171362   6.062   3.808  14.237 -0.2175  0.1429 -0.0567
16649TIP3    H271363   6.032   3.953  14.203  1.7612  0.8448  1.0828
16650TIP3   OH271364   2.796   3.863   3.920 -0.1576  0.0043 -0.0059
16650TIP3    H171365   2.816   3.770   3.920  1.5443  0.3378 -1.0528
16650TIP3    H271366   2.879   3.905   3.896  0.1745  2.0462  4.3017
16651TIP3   OH271367   0.644   4.434  10.647  0.5332  0.1290  0.1985
16651TIP3    H171368   0.589   4.394  10.714  0.1096  1.3906  0.6276
16651TIP3    H271369   0.582   4.472  10.584  0.9215  0.3785 -0.0412
16652TIP3   OH271370   4.161   2.705  16.933  0.4439  0.3486 -0.1774
16652TIP3    H171371   4.225   2.644  16.970 -0.2499 -0.2382  0.0587
16652TIP3    H271372   4.202   2.791  16.941  0.6439  0.1300  1.1950
16653TIP3   OH271373   1.330   0.039   4.482 -0.3706  0.1583 -0.4294
16653TIP3    H171374   1.390   0.084   4.424 -2.5523  1.6990 -1.5742
16653TIP3    H271375   1.338  -0.053   4.459  1.3812  0.3568 -0.6743
16654TIP3   OH271376   4.129   4.402  16.741  0.0845 -0.3546 -0.0342
16654TIP3    H171377   4.136   4.311  16.771  0.4543 -0.5113 -0.5942
16654TIP3    H271378   4.038   4.427  16.760 -0.1229 -0.9617 -0.2288
16655TIP3   OH271379   2.565   4.956   1.080 -0.6343  0.0665  0.4182
16655TIP3    H171380   2.500   4.989   1.017 -0.6881  0.0284  0.4538
16655TIP3    H271381   2.603   5.036   1.118  0.2073  0.1066 -0.4809
16656TIP3   OH271382   3.049   0.411   6.145  0.7150 -0.0617 -0.3653
16656TIP3    H171383   2.990   0.482   6.170 -0.0912 -0.3316 -1.4841
16656TIP3    H271384   2.992   0.339   6.119  1.5225 -1.2008  0.8750
16657TIP3   OH271385   2.735   5.268  12.951 -0.5019 -0.1699  0.2635
16657TIP3    H171386   2.825   5.296  12.931 -0.2117 -0.8338  0.5930
16657TIP3    H271387   2.695   5.344  12.992 -0.2659  0.3189 -0.3894
16658TIP3   OH271388   5.952   4.393   2.979 -0.0459  0.0631 -0.1466
16658TIP3    H171389   6.019   4.452   2.944 -0.9371  1.4912  0.5177
16658TIP3    H271390   5.958   4.403   3.074 -0.7496 -0.3043 -0.0608
16659TIP3   OH271391   0.438   4.292   3.332  0.2201 -0.1462  0.0236
16659TIP3    H171392   0.373   4.224   3.346  1.1415 -1.1427 -0.4576
16659TIP3    H271393   0.410   4.336   3.252  0.7827 -1.3502 -0.8514
16660TIP3   OH271394   5.303   3.034   4.578 -0.3892 -0.6181  0.3589
16660TIP3    H171395   5.246   2.964   4.545 -0.7053  0.2092 -0.8719
16660TIP3    H271396   5.331   3.081   4.500 -0.7992  1.1122  1.2208
16661TIP3   OH271397   4.963   1.348   4.753 -0.0893  0.5281 -0.4767
16661TIP3    H171398   5.044   1.395   4.729  0.0190 -0.4042 -2.0120
16661TIP3    H271399   4.945   1.291   4.678  0.5371 -2.9582  1.9026
16662TIP3   OH271400   3.793   3.734  14.279  0.0457  0.9323 -0.4440
16662TIP3    H171401   3.751   3.713  14.195 -0.7404  1.0158 -0.0764
16662TIP3    H271402   3.720   3.752  14.338  0.6458  2.1273 -0.0681
16663TIP3   OH271403   2.991   3.532   4.571  0.1169  0.2946 -0.1900
16663TIP3    H171404   3.014   3.571   4.656  1.1467  0.6963 -0.6335
16663TIP3    H271405   2.900   3.557   4.557  0.5072  1.8763 -0.0719
16664TIP3   OH271406   2.912   1.457   1.708  0.0467  0.3885  0.0352
16664TIP3    H171407   2.986   1.402   1.734  0.7314  1.6382  0.7720
16664TIP3    H271408   2.882   1.420   1.625  1.8695  0.2468 -0.5705
16665TIP3   OH271409   5.069   1.850   5.398 -0.4724  0.1312 -0.2431
16665TIP3    H171410   5.011   1.815   5.331  0.9930  0.3230 -1.6388
16665TIP3    H271411   5.070   1.944   5.383 -0.2003  0.1879  0.1049
16666TIP3   OH271412   6.193   3.805   0.635 -0.1985  0.1243  0.1526
16666TIP3    H171413   6.185   3.719   0.676  2.0113  0.2885  1.0278
16666TIP3    H271414   6.234   3.786   0.550 -1.7769  0.1040 -0.6139
16667TIP3   OH271415   4.863   3.818   5.173 -0.2521  0.1773  0.2300
16667TIP3    H171416   4.807   3.751   5.133  0.2825 -0.4584  0.5395
16667TIP3    H271417   4.890   3.873   5.099 -0.8259  0.1548 -0.0016
16668TIP3   OH271418   0.225   4.888  14.273  0.1878 -0.2274 -0.2150
16668TIP3    H171419   0.192   4.928  14.354  2.4090  2.3084 -0.4722
16668TIP3    H271420   0.263   4.805  14.301 -1.2220 -0.5137  0.9377
16669TIP3   OH271421   5.377   1.436   1.309 -0.1951 -0.2817 -0.0860
16669TIP3    H171422   5.288   1.401   1.317  1.0050 -3.5545 -0.2850
16669TIP3    H271423   5.374   1.518   1.359 -2.8039 -1.3100  1.6302
16670TIP3   OH271424   0.817   6.546  14.816 -0.0378  0.3313 -0.6656
16670TIP3    H171425   0.798   6.640  14.811  0.3092  0.5075  0.9646
16670TIP3    H271426   0.736   6.507  14.848  0.0564  0.1661 -0.6304
16671TIP3   OH271427   6.036   0.392  16.570  0.3378  0.3073 -0.6043
16671TIP3    H171428   6.002   0.461  16.512 -0.9703  1.4281  1.4573
16671TIP3    H271429   6.110   0.355  16.521  0.9645  3.0371 -1.8635
16672TIP3   OH271430   1.215   6.642  14.326 -0.1872 -0.5339  0.1804
16672TIP3    H171431   1.163   6.619  14.249 -0.1638  0.5233 -0.1616
16672TIP3    H271432   1.303   6.658  14.292 -0.2580  0.2881  0.3661
16673TIP3   OH271433   4.239   1.549  11.044  0.4970 -0.3804 -0.1058
16673TIP3    H171434   4.177   1.593  11.102 -0.6636 -2.7314  0.4716
16673TIP3    H271435   4.188   1.525  10.967  1.8916  2.1543 -1.8953
16674TIP3   OH271436   0.078   5.663  12.865  0.1822 -0.4641 -0.1393
16674TIP3    H171437   0.029   5.625  12.792  1.2304 -2.6359  0.2225
16674TIP3    H271438   0.160   5.693  12.826  1.0086 -2.1910  0.1934
16675TIP3   OH271439   5.268   1.693   3.785  0.6352  0.1109 -0.0974
16675TIP3    H171440   5.185   1.699   3.833  1.2427  0.1189  0.9619
16675TIP3    H271441   5.247   1.725   3.698  0.0660  2.3558  0.8197
16676TIP3   OH271442   1.090   1.747   5.104 -0.2196  0.5514  0.5265
16676TIP3    H171443   1.046   1.740   5.189 -1.4324 -1.4094 -0.2302
16676TIP3    H271444   1.183   1.744   5.126 -0.5043  0.6654  1.8339
16677TIP3   OH271445   6.352   4.190   3.156 -0.3254 -0.0854  0.2694
16677TIP3    H171446   6.334   4.277   3.192 -0.3312  0.9449 -2.0890
16677TIP3    H271447   6.440   4.169   3.186 -0.0562  1.0571  0.2993
16678TIP3   OH271448   6.439   2.110   5.948 -0.4140 -0.1196  0.3736
16678TIP3    H171449   6.466   2.108   5.856  0.1065 -0.2041  0.5278
16678TIP3    H271450   6.365   2.049   5.953 -1.3661  0.9737 -0.2809
16679TIP3   OH271451   1.258   2.534  15.326 -0.0969  0.1495 -0.0338
16679TIP3    H171452   1.352   2.515  15.328 -0.3493 -1.1294 -0.3214
16679TIP3    H271453   1.247   2.590  15.249  0.4095  0.2137 -0.0649
16680TIP3   OH271454   2.789   5.145  16.959  0.3010  0.0097  0.4750
16680TIP3    H171455   2.782   5.236  16.988 -1.9227 -0.0297  0.1261
16680TIP3    H271456   2.864   5.144  16.899  1.0401  1.3566  1.3548
16681TIP3   OH271457   0.896   3.907  16.919  0.1626  0.7411 -0.3338
16681TIP3    H171458   0.860   3.909  17.008 -0.4147 -0.2212 -0.5353
16681TIP3    H271459   0.858   3.828  16.880  1.7011  0.2670 -0.8896
16682TIP3   OH271460   4.405   2.785   2.265 -0.1897  0.5975  0.0389
16682TIP3    H171461   4.383   2.871   2.230 -0.1421  1.2444  1.5505
16682TIP3    H271462   4.392   2.794   2.359 -2.0963 -1.6055  0.0370
16683TIP3   OH271463   6.681   4.257   1.358  0.1431  0.1264 -0.1001
16683TIP3    H171464   6.606   4.227   1.409  0.0623  0.5004  0.0013
16683TIP3    H271465   6.643   4.311   1.289  0.3091  0.2232 -0.1169
16684TIP3   OH271466   3.218   3.350   1.520  0.0821  1.1529  0.1785
16684TIP3    H171467   3.250   3.424   1.468  0.2759  0.4836 -0.6443
16684TIP3    H271468   3.241   3.374   1.610  2.5179  0.8857 -0.3315
16685TIP3   OH271469   2.126   0.879  14.762 -0.1024  0.1983 -0.3479
16685TIP3    H171470   2.131   0.786  14.785 -0.3440 -0.2624 -2.0878
16685TIP3    H271471   2.216   0.910  14.765 -0.1058  0.0906  0.9661
16686TIP3   OH271472   6.681   5.003   5.293 -0.1548  0.0055  0.1846
16686TIP3    H171473   6.627   5.043   5.225 -1.5957 -2.5453 -0.1845
16686TIP3    H271474   6.624   4.996   5.369  0.4961 -0.1121  0.6694
16687TIP3   OH271475   0.955   1.361  15.024 -0.5320 -0.0483 -0.3026
16687TIP3    H171476   0.978   1.289  15.082  0.6397  1.0448  0.6331
16687TIP3    H271477   0.863   1.345  15.001 -1.0964 -0.4002  2.0290
16688TIP3   OH271478   2.532   2.882   1.438 -0.6567  0.7986 -0.0561
16688TIP3    H171479   2.572   2.824   1.503 -1.6025 -0.3230 -0.4609
16688TIP3    H271480   2.606   2.930   1.401  0.5021 -2.1084 -1.6457
16689TIP3   OH271481   2.907   5.064  14.278  0.1476  0.8021  0.6808
16689TIP3    H171482   2.918   5.121  14.202 -0.5497  0.2100  0.1288
16689TIP3    H271483   2.816   5.078  14.306 -0.8877 -1.9985 -1.0856
16690TIP3   OH271484   1.554   6.499  15.354  0.2115 -0.0363 -0.3065
16690TIP3    H171485   1.546   6.594  15.353  2.6677  0.2158  0.2758
16690TIP3    H271486   1.513   6.470  15.272 -1.5431  1.4037  0.0367
16691TIP3   OH271487   5.902   2.068   1.637  0.0504 -0.4150 -0.1714
16691TIP3    H171488   5.909   2.075   1.732 -2.0625 -3.9984  0.3307
16691TIP3    H271489   5.811   2.094   1.618  0.2359 -0.4276 -1.1047
16692TIP3   OH271490   4.911   1.076   2.544 -0.0221  0.2222 -0.4315
16692TIP3    H171491   4.834   1.041   2.499 -0.3847 -0.3526  0.6245
16692TIP3    H271492   4.973   1.095   2.473 -1.2571  1.0365 -1.3236
16693TIP3   OH271493   5.121   0.796  13.209  0.0491  0.0086 -0.1894
16693TIP3    H171494   5.132   0.876  13.261  0.1178 -1.9238  2.8747
16693TIP3    H271495   5.187   0.736  13.242 -0.3731 -1.5368 -2.0543
16694TIP3   OH271496   2.824   4.437   4.849  0.3585 -0.1033  0.3699
16694TIP3    H171497   2.856   4.525   4.828 -2.5403  1.3585  1.6981
16694TIP3    H271498   2.742   4.453   4.897 -0.7271 -3.5574 -0.2163
16695TIP3   OH271499   4.476   6.261  12.026 -0.3600 -0.0002 -0.1484
16695TIP3    H171500   4.464   6.166  12.032  1.3371 -0.1305  1.9866
16695TIP3    H271501   4.387   6.297  12.025 -1.0288 -1.5289  1.5142
16696TIP3   OH271502   4.503   2.990   3.767  0.1286  0.3344  0.5477
16696TIP3    H171503   4.431   2.967   3.825  1.0807 -0.3729  1.4668
16696TIP3    H271504   4.482   2.948   3.683 -0.3067 -0.2414  0.9462
16697TIP3   OH271505   4.088   1.044   2.289 -0.0700  0.0001  0.0570
16697TIP3    H171506   4.055   0.961   2.322 -0.4265  0.5947  1.2117
16697TIP3    H271507   4.031   1.110   2.329  1.3444  0.9160  0.5888
16698TIP3   OH271508   1.642   0.397  15.089 -0.4287 -0.1124 -0.4612
16698TIP3    H171509   1.654   0.375  15.181 -2.1529  2.2798  0.3710
16698TIP3    H271510   1.551   0.425  15.082 -0.4146 -0.5710 -2.9655
16699TIP3   OH271511   3.810   0.506   2.833  0.2616 -0.7879 -0.3264
16699TIP3    H171512   3.821   0.510   2.928 -2.0099 -1.4589  0.0099
16699TIP3    H271513   3.888   0.548   2.798  0.6702  0.3857  1.8568
16700TIP3   OH271514   3.192   1.538   4.045  0.4084 -0.5857 -0.8058
16700TIP3    H171515   3.156   1.481   3.977 -0.8464 -0.0172 -0.6159
16700TIP3    H271516   3.209   1.621   4.000 -1.2697  0.0826 -0.2351
16701TIP3   OH271517   5.458   5.095  13.561 -0.0539 -0.1900  0.2935
16701TIP3    H171518   5.505   5.104  13.478 -0.5100  0.4200  0.0914
16701TIP3    H271519   5.524   5.116  13.627 -0.0484  0.7610  0.0079
16702TIP3   OH271520   1.271   2.426  12.418 -0.0402  0.8248  0.3933
16702TIP3    H171521   1.193   2.376  12.440  1.1567 -1.2397  0.0702
16702TIP3    H271522   1.318   2.435  12.501  0.8303 -0.5248  0.0558
16703TIP3   OH271523   4.981   4.832   0.574  0.2690  0.5111  0.5614
16703TIP3    H171524   5.070   4.812   0.603 -0.2833 -2.1137  0.5118
16703TIP3    H271525   4.939   4.747   0.563 -1.5373  1.6477 -1.7415
16704TIP3   OH271526   1.987   1.981   5.090  0.1010  0.0622  0.0417
16704TIP3    H171527   1.973   2.045   5.021  0.2084 -0.5979 -0.5965
16704TIP3    H271528   2.075   1.999   5.122 -0.4949  1.3206  1.0178
16705TIP3   OH271529   3.202   1.640  14.234 -0.5301 -0.1472 -0.6111
16705TIP3    H171530   3.169   1.667  14.320  0.4898  0.0454 -0.2729
16705TIP3    H271531   3.174   1.548  14.227  1.2034 -0.8294  0.8713
16706TIP3   OH271532   2.519   3.805  13.629 -0.6613 -0.0214  0.1534
16706TIP3    H171533   2.553   3.733  13.575 -1.3831  0.4703 -0.9744
16706TIP3    H271534   2.570   3.881  13.603 -0.9588  0.2027  0.2240
16707TIP3   OH271535   3.141   1.246  12.712  0.0356 -0.4333  0.1731
16707TIP3    H171536   3.052   1.236  12.679  0.1972  0.0270 -0.4095
16707TIP3    H271537   3.185   1.163  12.691 -0.0870 -0.4368 -0.0619
16708TIP3   OH271538   3.032   1.188   0.381 -0.9645 -0.3902 -0.0584
16708TIP3    H171539   2.947   1.163   0.417 -0.9513 -0.1201  0.1667
16708TIP3    H271540   3.014   1.265   0.328 -0.7784 -0.0055  0.4267
16709TIP3   OH271541   3.080   6.439  12.574  0.5255  0.0075  0.5849
16709TIP3    H171542   3.158   6.408  12.527 -1.3982 -1.8874 -1.4900
16709TIP3    H271543   3.009   6.429  12.510 -1.6794  0.2793  2.9391
16710TIP3   OH271544   6.034   5.000   5.182 -0.1674 -0.3427  0.0609
16710TIP3    H171545   6.014   4.928   5.123 -3.6582  0.5202  0.0861
16710TIP3    H271546   6.094   5.055   5.133  0.8684 -2.1634 -0.7502
16711TIP3   OH271547   5.685   5.825   4.066 -0.0760  0.1103 -0.6726
16711TIP3    H171548   5.685   5.820   4.162  2.0986  0.3806 -0.6237
16711TIP3    H271549   5.735   5.749   4.038 -2.2369 -0.9707 -1.7111
16712TIP3   OH271550   4.431   0.519  15.760  0.0327  0.3505  0.2502
16712TIP3    H171551   4.458   0.427  15.757 -0.5718  0.1446  1.2272
16712TIP3    H271552   4.513   0.567  15.762  0.4529 -0.0217 -3.3907
16713TIP3   OH271553   3.378   2.450   6.277 -0.6222  0.1418  0.3118
16713TIP3    H171554   3.453   2.486   6.323  0.3619  0.8864 -1.8345
16713TIP3    H271555   3.305   2.506   6.303 -0.4663 -0.5554  2.3562
16714TIP3   OH271556   5.541   6.754  13.030  0.0270  0.6212  0.2533
16714TIP3    H171557   5.609   6.688  13.016 -1.1291 -0.3703 -0.8144
16714TIP3    H271558   5.557   6.787  13.118 -0.4385 -2.3593  1.4939
16715TIP3   OH271559   2.257   5.154  11.963 -0.1895 -0.2538  0.2890
16715TIP3    H171560   2.168   5.141  11.931 -0.4980 -0.4339  1.2097
16715TIP3    H271561   2.306   5.183  11.887 -1.2105  0.6293 -0.0373
16716TIP3   OH271562   2.991   5.615  12.845  0.0805  0.0897  0.2531
16716TIP3    H171563   3.048   5.647  12.776  0.5114 -1.8976 -0.3343
16716TIP3    H271564   2.902   5.624  12.810  0.3523 -1.7734 -0.9279
16717TIP3   OH271565   0.182   0.648  14.506  0.5910  0.4001 -0.3559
16717TIP3    H171566   0.230   0.694  14.437 -1.8826  0.8439 -1.8476
16717TIP3    H271567   0.091   0.678  14.496 -0.7073 -3.1845 -0.0141
16718TIP3   OH271568   4.345   6.463  15.039 -0.0833 -0.2933 -0.4326
16718TIP3    H171569   4.420   6.505  14.998  0.4371  0.9607  1.7293
16718TIP3    H271570   4.378   6.378  15.068  0.3514  0.0271  0.0146
16719TIP3   OH271571   3.905   2.183  10.319  0.3187 -0.0495 -1.0691
16719TIP3    H171572   3.827   2.218  10.362  1.0747  1.2093 -0.7060
16719TIP3    H271573   3.897   2.088  10.328 -0.0932  0.1438  0.8814
16720TIP3   OH271574   3.756   2.735  15.646  0.4236 -0.1076  0.5361
16720TIP3    H171575   3.788   2.760  15.732  0.1494 -0.6275  0.7889
16720TIP3    H271576   3.680   2.680  15.663  2.2014 -2.8599  0.0769
16721TIP3   OH271577   5.491   1.876  12.361  0.8153  0.2132 -0.4772
16721TIP3    H171578   5.496   1.960  12.315  2.6678 -0.9049 -2.4468
16721TIP3    H271579   5.581   1.860  12.391  0.3628 -0.8104  0.3645
16722TIP3   OH271580   6.254   5.010   1.223 -0.4530 -0.4428 -0.9934
16722TIP3    H171581   6.243   5.065   1.302 -1.6647 -0.7251 -0.9527
16722TIP3    H271582   6.304   5.065   1.163  0.1469 -0.0721 -0.1739
16723TIP3   OH271583   5.723   1.578   3.779  0.4109 -0.6250 -0.0633
16723TIP3    H171584   5.682   1.623   3.853  0.5281 -0.7318  0.0682
16723TIP3    H271585   5.719   1.485   3.802 -1.8231 -0.8872 -1.3381
16724TIP3   OH271586   2.303   4.508  12.778 -0.1228 -0.3169  0.8797
16724TIP3    H171587   2.344   4.498  12.864 -2.8126  0.7458  2.3101
16724TIP3    H271588   2.220   4.460  12.785 -0.5473  0.1063 -1.0086
16725TIP3   OH271589   6.700   3.741  13.778 -0.0299 -0.6134  0.0057
16725TIP3    H171590   6.775   3.796  13.801 -1.4311  1.2298  0.3430
16725TIP3    H271591   6.641   3.749  13.853 -1.3809 -0.5164 -1.0380
16726TIP3   OH271592   3.556   3.805   3.531  0.1904  0.1375 -0.2895
16726TIP3    H171593   3.581   3.745   3.602 -0.3525  0.1251 -0.1095
16726TIP3    H271594   3.596   3.766   3.453  1.3394  0.5001  0.0980
16727TIP3   OH271595   4.549   0.903   2.814  0.0841  0.4084  0.5612
16727TIP3    H171596   4.638   0.914   2.847  0.6350  0.8881 -1.0525
16727TIP3    H271597   4.558   0.846   2.738 -1.2803 -1.3693  1.7082
16728TIP3   OH271598   2.036   3.482   4.947  0.0416 -0.3182 -0.0327
16728TIP3    H171599   2.084   3.556   4.982  0.3961 -0.1999 -0.7623
16728TIP3    H271600   1.975   3.457   5.018  0.8581 -0.1953  0.7203
16729TIP3   OH271601   2.766   5.955  14.608 -0.3348 -0.2448 -0.3169
16729TIP3    H171602   2.707   6.029  14.607 -0.0566 -0.0234 -0.5370
16729TIP3    H271603   2.840   5.982  14.554 -1.1650 -1.4442 -2.1377
16730TIP3   OH271604   0.938   1.820  11.835 -0.1090  0.4761 -0.1851
16730TIP3    H171605   0.953   1.728  11.814  0.5516  0.0303  2.1226
16730TIP3    H271606   0.965   1.867  11.756  2.8244 -1.0941 -0.1915
16731TIP3   OH271607   3.805   1.007  15.307  0.4143 -0.1912  0.4138
16731TIP3    H171608   3.881   1.022  15.364  0.4326  1.1663  0.0651
16731TIP3    H271609   3.738   0.972  15.365  0.8099  0.0719  1.0387
16732TIP3   OH271610   0.261   1.410  15.986 -0.9546  0.1651 -0.2381
16732TIP3    H171611   0.280   1.504  15.987  0.5763 -0.1362  1.1357
16732TIP3    H271612   0.304   1.378  15.907 -1.2965  0.5595 -0.5932
16733TIP3   OH271613   1.333   3.899  15.045  0.0612 -0.0768 -0.0491
16733TIP3    H171614   1.260   3.959  15.029 -0.5733 -0.2560  2.0412
16733TIP3    H271615   1.328   3.836  14.973 -1.2411  0.4910 -0.4810
16734TIP3   OH271616   2.220   5.733   5.374  0.2313 -0.0109 -0.0621
16734TIP3    H171617   2.260   5.719   5.289 -0.7683  3.0350 -1.0958
16734TIP3    H271618   2.240   5.824   5.396 -2.3058  0.2511  1.4116
16735TIP3   OH271619   2.020   5.948   2.521 -0.1609  0.0352  0.3622
16735TIP3    H171620   1.969   5.874   2.488 -0.1977  0.3189 -0.2125
16735TIP3    H271621   2.067   5.912   2.596  2.0619 -1.3575 -1.6346
16736TIP3   OH271622   1.174   2.267   1.806 -0.7428 -0.2307  0.3621
16736TIP3    H171623   1.143   2.207   1.873  0.5043  0.4352  1.5651
16736TIP3    H271624   1.268   2.250   1.799 -0.5114  1.0398  0.1765
16737TIP3   OH271625   5.294   3.975  11.325 -0.7442  0.5620  0.7559
16737TIP3    H171626   5.251   3.898  11.362  0.5939 -0.4637  0.2022
16737TIP3    H271627   5.371   3.941  11.280 -1.0444  2.0406 -0.9475
16738TIP3   OH271628   4.105   5.263  14.688 -0.4847 -0.1259 -0.2275
16738TIP3    H171629   4.193   5.245  14.656 -0.0487  1.8143 -0.1952
16738TIP3    H271630   4.051   5.193  14.652  1.1018 -1.4565 -0.0687
16739TIP3   OH271631   1.505   0.456   0.572  0.4370  0.2354  0.0305
16739TIP3    H171632   1.476   0.369   0.600  2.7714 -0.2163  1.1624
16739TIP3    H271633   1.437   0.485   0.510 -1.5976 -1.3610  1.4435
16740TIP3   OH271634   1.384   4.490  15.239  0.0901  0.0038 -0.3190
16740TIP3    H171635   1.344   4.510  15.324  0.3903  1.4977 -0.5272
16740TIP3    H271636   1.433   4.409  15.255  1.8277  1.3598  1.4868
16741TIP3   OH271637   1.316   0.290   3.365 -0.1601  0.3183  0.4312
16741TIP3    H171638   1.325   0.363   3.427  1.4405  0.7404 -0.2576
16741TIP3    H271639   1.240   0.241   3.396  1.0080  0.1244  3.1458
16742TIP3   OH271640   6.747   0.397  12.460  0.0651 -0.0563 -0.1855
16742TIP3    H171641   6.777   0.310  12.487  1.1270 -0.5528 -2.8119
16742TIP3    H271642   6.655   0.385  12.437  0.5399 -0.7873 -1.7446
16743TIP3   OH271643   3.408   6.443  14.559 -0.6253 -0.4074 -0.0301
16743TIP3    H171644   3.503   6.454  14.553 -0.6163 -0.7496 -0.5468
16743TIP3    H271645   3.397   6.351  14.584 -0.8581 -0.7345 -1.3125
16744TIP3   OH271646   3.362   6.780  14.974  0.1813  0.9558 -0.4586
16744TIP3    H171647   3.332   6.727  15.048  0.6414  0.5991 -0.5220
16744TIP3    H271648   3.337   6.730  14.896  0.1933  1.0636 -0.5308
16745TIP3   OH271649   2.377   5.864  11.811 -0.1174  0.4794  0.0150
16745TIP3    H171650   2.343   5.851  11.900  2.7378 -1.6141  0.8890
16745TIP3    H271651   2.346   5.950  11.785  0.9662  2.1750  4.0283
16746TIP3   OH271652   1.565   4.894  16.911 -0.1621  0.0332  0.3412
16746TIP3    H171653   1.531   4.832  16.846 -1.5181  0.5932  0.5065
16746TIP3    H271654   1.512   4.973  16.900  1.9035  1.4016 -0.2487
16747TIP3   OH271655   1.356   2.196  12.605  0.3309  0.0937  0.0247
16747TIP3    H171656   1.262   2.199  12.586  0.3913 -0.1197 -0.3074
16747TIP3    H271657   1.398   2.193  12.519  0.5111 -3.6993  0.1626
16748TIP3   OH271658   5.440   4.466  12.298  0.2394  0.4661 -0.1943
16748TIP3    H171659   5.447   4.476  12.203 -1.2947  1.6845 -0.2075
16748TIP3    H271660   5.354   4.426  12.311  0.1384  0.9663  0.7152
16749TIP3   OH271661   0.510   0.280  14.883 -0.0878  0.1508 -1.0362
16749TIP3    H171662   0.449   0.329  14.938  0.2663 -0.0688 -0.4468
16749TIP3    H271663   0.491   0.310  14.794 -0.6582  0.5100 -0.7973
16750TIP3   OH271664   1.398   1.165  17.216  0.1606  0.1803  0.2919
16750TIP3    H171665   1.421   1.075  17.239  0.8829  0.6929  1.5891
16750TIP3    H271666   1.303   1.169  17.225 -0.0249 -0.8087 -1.0668
16751TIP3   OH271667   4.382   2.003  14.472 -0.4347 -0.4870  0.2634
16751TIP3    H171668   4.471   2.025  14.445 -0.1056 -2.7211 -0.6611
16751TIP3    H271669   4.328   2.030  14.398 -0.3477 -0.4815  0.2013
16752TIP3   OH271670   2.900   2.515  12.202  0.3030  0.4508 -0.1269
16752TIP3    H171671   2.883   2.447  12.137 -0.7225  1.1363 -0.5807
16752TIP3    H271672   2.824   2.513  12.260 -0.6518  2.4837 -1.2547
16753TIP3   OH271673   5.176   5.159  14.188  0.0645 -0.5703  0.0010
16753TIP3    H171674   5.209   5.213  14.116 -0.9535  0.4458  0.2927
16753TIP3    H271675   5.111   5.103  14.147 -0.6386  0.1272  0.1580
16754TIP3   OH271676   0.325   6.277   1.668 -0.4294  0.2816 -0.1261
16754TIP3    H171677   0.259   6.323   1.616 -1.0433  0.5650  0.8732
16754TIP3    H271678   0.356   6.207   1.611 -1.8115 -0.0275 -0.5324
16755TIP3   OH271679   2.488   1.381   2.867 -0.8657 -0.6670 -0.2059
16755TIP3    H171680   2.583   1.373   2.875 -1.0083 -2.1440  0.0765
16755TIP3    H271681   2.472   1.380   2.772 -0.4433  1.6402 -0.3241
16756TIP3   OH271682   6.743   2.878  13.524 -0.2084 -0.6510  0.3585
16756TIP3    H171683   6.818   2.820  13.512  0.6464  0.4587  0.3257
16756TIP3    H271684   6.779   2.966  13.522 -1.3101 -0.1349  1.7733
16757TIP3   OH271685   0.908   4.306   1.719  0.2250 -0.1509 -0.3973
16757TIP3    H171686   0.920   4.400   1.733 -0.0571 -0.2038  0.2070
16757TIP3    H271687   0.981   4.266   1.767  0.6256 -0.2158 -1.0610
16758TIP3   OH271688   1.984   3.434   0.441 -0.0559  0.1610 -0.4512
16758TIP3    H171689   1.897   3.472   0.431 -0.3707 -0.3223  0.4569
16758TIP3    H271690   1.994   3.419   0.535  0.3451 -1.3482 -0.7150
16759TIP3   OH271691   6.485   4.241   1.000  0.6026  0.5021  0.1347
16759TIP3    H171692   6.525   4.236   0.914  0.6798  0.8096  0.1522
16759TIP3    H271693   6.554   4.212   1.060  0.6636  0.6268  0.1254
16760TIP3   OH271694   5.241   3.343  15.748  0.4517 -0.2687  0.1241
16760TIP3    H171695   5.286   3.349  15.832  2.3694 -3.0815 -0.6099
16760TIP3    H271696   5.249   3.251  15.723 -1.9321  0.0726 -2.1616
16761TIP3   OH271697   2.396   5.195   2.605  0.2401  0.1473  0.4695
16761TIP3    H171698   2.396   5.290   2.601  1.4022  0.1862  1.3177
16761TIP3    H271699   2.483   5.169   2.573  0.4729 -0.5589  1.6688
16762TIP3   OH271700   4.362   5.643   4.491  0.2836 -0.4853 -0.2692
16762TIP3    H171701   4.273   5.664   4.521  0.5153  0.0567  0.0427
16762TIP3    H271702   4.410   5.621   4.571  0.5350 -0.3781 -0.3878
16763TIP3   OH271703   4.829   5.426   6.001  0.3598 -0.0400  0.1366
16763TIP3    H171704   4.785   5.449   6.082 -0.0834  0.1214 -0.1486
16763TIP3    H271705   4.917   5.399   6.028  0.4364  0.6622  0.6029
16764TIP3   OH271706   5.948   1.135   3.287 -0.1995 -0.5526  0.3805
16764TIP3    H171707   5.876   1.189   3.319 -0.5390 -0.3756 -0.6680
16764TIP3    H271708   5.995   1.191   3.225  0.0967 -1.0910  0.1137
16765TIP3   OH271709   1.441   3.261   4.323 -0.3257  0.0331  0.1849
16765TIP3    H171710   1.371   3.315   4.286 -0.7774 -0.2343  0.6419
16765TIP3    H271711   1.516   3.277   4.267 -1.0894 -0.6030 -1.0273
16766TIP3   OH271712   5.197   2.113   1.490 -0.4253 -0.5076 -0.2474
16766TIP3    H171713   5.140   2.163   1.431  0.1585  0.0616 -0.3297
16766TIP3    H271714   5.248   2.056   1.432  0.5580  0.4637 -0.3417
16767TIP3   OH271715   5.315   4.927  16.097 -0.0450  0.5931 -0.6331
16767TIP3    H171716   5.351   4.841  16.073 -1.1775 -0.2248  0.5062
16767TIP3    H271717   5.328   4.981  16.019  1.3143 -0.4090 -1.1247
16768TIP3   OH271718   2.374   4.932  15.580  0.1074  0.1384  0.0013
16768TIP3    H171719   2.344   4.881  15.504  1.7846  0.6630 -1.0535
16768TIP3    H271720   2.299   4.935  15.638 -0.8550 -1.2830 -1.1190
16769TIP3   OH271721   1.130   0.002   2.866  0.3551  0.2236 -0.2871
16769TIP3    H171722   1.186   0.079   2.858 -0.4851  0.8014 -0.6206
16769TIP3    H271723   1.054   0.033   2.914 -0.4354 -0.1638 -1.2877
16770TIP3   OH271724   0.889   0.312  16.299  0.3309 -0.7047  0.3774
16770TIP3    H171725   0.965   0.355  16.260  1.1448 -1.6263  0.9383
16770TIP3    H271726   0.872   0.237  16.242 -0.6349 -0.0864 -0.1774
16771TIP3   OH271727   5.785   3.615  11.552 -0.5416 -0.0582  0.0181
16771TIP3    H171728   5.748   3.665  11.625  0.6692 -0.6087  1.0318
16771TIP3    H271729   5.852   3.672  11.515 -0.0126 -0.4398  0.3878
16772TIP3   OH271730   1.731   4.084  14.710  0.2647  0.0055  0.4827
16772TIP3    H171731   1.770   4.170  14.692 -0.5301  0.2490 -0.0915
16772TIP3    H271732   1.752   4.032  14.632  0.8680 -0.3708  0.8920
16773TIP3   OH271733   0.776   5.132   4.146  0.0620 -0.6011  0.1773
16773TIP3    H171734   0.753   5.191   4.217 -0.5227  1.0188 -1.3357
16773TIP3    H271735   0.848   5.080   4.181  0.6233  1.0379  1.5111
16774TIP3   OH271736   4.052   2.135   0.694  0.7071 -0.3182  0.2171
16774TIP3    H171737   4.115   2.136   0.622 -0.3802 -1.6167 -0.7921
16774TIP3    H271738   3.976   2.090   0.658 -1.0695  1.8256  1.1945
16775TIP3   OH271739   0.154   3.959   0.253  0.2231  0.2099 -0.2112
16775TIP3    H171740   0.217   3.899   0.214  0.2843 -0.2479  0.5819
16775TIP3    H271741   0.138   3.924   0.341  0.4482  1.4708  0.3574
16776TIP3   OH271742   1.599   2.504  14.721  0.2711  0.3248  0.0397
16776TIP3    H171743   1.563   2.548  14.644 -0.2886  0.1888  0.2246
16776TIP3    H271744   1.606   2.412  14.695 -0.6695  0.1398  0.4200
16777TIP3   OH271745   1.605   5.486   1.743 -0.0714 -0.9965 -0.3697
16777TIP3    H171746   1.628   5.451   1.657 -1.4457  1.1072 -1.6250
16777TIP3    H271747   1.679   5.541   1.767 -0.2940 -0.4897 -0.8397
16778TIP3   OH271748   4.841   2.471   2.244 -0.0612  0.7583  0.2343
16778TIP3    H171749   4.808   2.487   2.332  0.9163 -1.2107  1.0096
16778TIP3    H271750   4.772   2.421   2.201  0.1625  0.2414  0.4675
16779TIP3   OH271751   2.134   3.996   0.102  0.1798  0.1125 -0.2388
16779TIP3    H171752   2.131   3.912   0.147 -0.4807  0.2612  0.0030
16779TIP3    H271753   2.198   4.047   0.151 -1.4835  0.7275  1.3640
16780TIP3   OH271754   6.317   5.823   5.004  0.5302  0.7126  0.5825
16780TIP3    H171755   6.272   5.891   4.954  1.6003  1.3938  0.5467
16780TIP3    H271756   6.366   5.773   4.939 -0.8666 -0.6116  0.4974
16781TIP3   OH271757   3.570   1.717   2.454  0.5150 -0.2022  0.0127
16781TIP3    H171758   3.588   1.805   2.419  0.1055  0.1771  0.7371
16781TIP3    H271759   3.593   1.723   2.547  3.2449 -1.6939 -0.5056
16782TIP3   OH271760   5.515   4.909  11.832  0.1553  0.2049  0.2099
16782TIP3    H171761   5.419   4.917  11.831  0.2037  0.7563 -0.1033
16782TIP3    H271762   5.541   4.948  11.916  0.4224  3.9141 -1.4998
16783TIP3   OH271763   2.263   3.700  16.995 -0.0048 -0.0321  0.6105
16783TIP3    H171764   2.311   3.745  16.926  1.0253 -1.2531  0.5199
16783TIP3    H271765   2.246   3.767  17.061 -0.0755  0.8934 -0.3439
16784TIP3   OH271766   2.035   5.327  13.595  0.2443  0.3084 -0.2687
16784TIP3    H171767   1.982   5.310  13.517 -1.7384 -0.3826  1.1750
16784TIP3    H271768   2.063   5.240  13.624  0.4403  0.5083  0.1397
16785TIP3   OH271769   4.642   6.290   5.811 -0.1499 -0.0443 -0.5093
16785TIP3    H171770   4.583   6.215   5.805 -1.9836  1.3726 -0.8163
16785TIP3    H271771   4.609   6.351   5.745  0.9905  1.2481  0.0974
16786TIP3   OH271772   1.005   3.101   1.032 -0.2013 -0.1147 -0.3664
16786TIP3    H171773   1.100   3.089   1.039 -0.0382  1.0089 -0.4674
16786TIP3    H271774   0.972   3.016   1.005  0.5485 -1.1182  1.7148
16787TIP3   OH271775   4.985   2.918  12.173 -0.0489  0.1258  0.0172
16787TIP3    H171776   4.915   2.862  12.138 -0.9305  0.1737  1.6438
16787TIP3    H271777   5.062   2.895  12.122 -0.6516 -1.8245 -0.0429
16788TIP3   OH271778   2.259   0.476  13.566 -0.5500  0.2460 -0.2786
16788TIP3    H171779   2.316   0.509  13.636  2.2873 -1.3041 -1.7792
16788TIP3    H271780   2.183   0.534  13.567 -0.9053 -0.1064  4.5026
16789TIP3   OH271781   3.265   0.677   3.518  0.0459  0.3344 -0.1960
16789TIP3    H171782   3.207   0.737   3.471 -2.1350 -2.3676 -1.1157
16789TIP3    H271783   3.216   0.595   3.523  3.4147 -1.8002 -0.1438
16790TIP3   OH271784   0.103   5.799  13.301  0.6410 -0.3974  0.6704
16790TIP3    H171785   0.056   5.770  13.223 -1.2920 -0.1315  1.6920
16790TIP3    H271786   0.176   5.851  13.268 -1.0211  0.9585 -0.9140
16791TIP3   OH271787   3.909   2.400   0.919  0.2006 -0.1185  0.0214
16791TIP3    H171788   3.889   2.461   0.848 -0.4635  0.8215  0.9928
16791TIP3    H271789   3.824   2.368   0.948  0.3671  0.4787  1.2165
16792TIP3   OH271790   2.557   3.880   1.991 -0.1798  0.3716 -0.3168
16792TIP3    H171791   2.486   3.830   1.952 -0.2744 -0.4279  0.8380
16792TIP3    H271792   2.527   3.898   2.080  1.7328 -1.4497  0.7530
16793TIP3   OH271793   0.814   0.427   0.414  0.8218 -0.3848 -0.4121
16793TIP3    H171794   0.878   0.427   0.343  1.5698  0.9974  0.2310
16793TIP3    H271795   0.790   0.335   0.426  0.5684 -0.6126 -2.5462
16794TIP3   OH271796   3.586   0.191  11.341  0.1060 -0.1852  0.1538
16794TIP3    H171797   3.495   0.190  11.370  0.1656 -0.6552  0.3309
16794TIP3    H271798   3.582   0.212  11.248 -0.1566  0.1986  0.2484
16795TIP3   OH271799   1.516   2.564  13.502  0.2839 -0.3280 -0.2073
16795TIP3    H171800   1.497   2.493  13.564  0.0271  0.1060  0.2214
16795TIP3    H271801   1.581   2.618  13.547  0.9647 -0.6521 -0.8042
16796TIP3   OH271802   2.524   3.535   0.202 -0.1513  0.9280  0.4765
16796TIP3    H171803   2.571   3.590   0.265 -0.1660  1.4924  0.0026
16796TIP3    H271804   2.434   3.567   0.205 -0.4629 -0.0137  1.2298
16797TIP3   OH271805   5.344   3.818   1.466  0.0679 -0.3412 -0.4287
16797TIP3    H171806   5.370   3.726   1.465  0.4664 -0.2324 -0.2308
16797TIP3    H271807   5.315   3.835   1.376  0.4062 -0.5485 -0.5810
16798TIP3   OH271808   3.746   4.804  15.075 -0.1673 -0.2395  0.4129
16798TIP3    H171809   3.655   4.827  15.056  0.2372  1.8117  0.7999
16798TIP3    H271810   3.745   4.709  15.087 -2.2105 -0.2716  0.2115
16799TIP3   OH271811   2.570   6.341  15.548  0.1124  0.3786  0.5889
16799TIP3    H171812   2.544   6.433  15.539 -0.7188  0.1098  0.1440
16799TIP3    H271813   2.525   6.311  15.627 -0.2433  0.1500  0.3037
16800TIP3   OH271814   5.521   4.910  13.150 -0.2071  0.5278  0.0819
16800TIP3    H171815   5.562   4.941  13.069 -1.7678 -0.2329 -1.0098
16800TIP3    H271816   5.467   4.983  13.179  0.5401  0.8893  0.5788
16801TIP3   OH271817   5.994   0.771   2.135 -0.9125 -0.2806 -0.1495
16801TIP3    H171818   5.920   0.775   2.195 -0.9713  0.4144 -0.2698
16801TIP3    H271819   6.050   0.702   2.171 -0.3459  0.9475  1.4216
16802TIP3   OH271820   1.660   6.351  15.919 -0.4163  0.3423 -0.1789
16802TIP3    H171821   1.747   6.344  15.957 -0.4681  0.6065 -0.0100
16802TIP3    H271822   1.631   6.261  15.906 -0.7080  0.2503  1.1063
16803TIP3   OH271823   1.853   0.553  12.851  0.0730 -0.2457 -0.2708
16803TIP3    H171824   1.790   0.554  12.923 -0.0788 -0.2828 -0.4030
16803TIP3    H271825   1.801   0.577  12.774  0.7822  2.4586  0.0583
16804TIP3   OH271826   1.353   5.414   1.891 -0.3570  0.1861  1.0120
16804TIP3    H171827   1.408   5.354   1.942 -0.2976 -1.3260 -0.7688
16804TIP3    H271828   1.399   5.422   1.807 -0.9356  1.8816  0.8501
16805TIP3   OH271829   2.746   0.223   5.597 -0.5233  0.4847 -0.0229
16805TIP3    H171830   2.781   0.216   5.508 -0.8335 -0.4289 -0.0774
16805TIP3    H271831   2.800   0.165   5.649 -0.7522  0.5260  0.2638
16806TIP3   OH271832   3.341   4.634   0.038  0.0159  0.0912 -0.3416
16806TIP3    H171833   3.289   4.554   0.053  0.7468 -0.8338 -2.5304
16806TIP3    H271834   3.320   4.690   0.113 -0.8029 -1.9994  1.0520
16807TIP3   OH271835   1.508   2.699   2.938 -0.0288  0.3784  0.0971
16807TIP3    H171836   1.479   2.609   2.952  0.5460  0.3111  0.9268
16807TIP3    H271837   1.604   2.692   2.932  0.0626  0.9916  0.7263
16808TIP3   OH271838   5.955   5.238  13.574 -0.8917 -0.4119 -0.0797
16808TIP3    H171839   6.040   5.248  13.616 -0.5979  0.9253 -0.9558
16808TIP3    H271840   5.917   5.325  13.575 -1.7143 -0.7542 -0.7998
16809TIP3   OH271841   2.044   1.489   3.718  0.0188 -0.0528  0.5382
16809TIP3    H171842   2.049   1.545   3.796 -0.4204  0.8374 -0.0674
16809TIP3    H271843   1.999   1.410   3.749 -0.3631  0.3898  1.1311
16810TIP3   OH271844   0.818   5.651   3.602  0.0046 -0.3925  0.0877
16810TIP3    H171845   0.809   5.567   3.647 -0.3820 -0.0223  0.7224
16810TIP3    H271846   0.738   5.699   3.626  0.1730  0.1091 -0.3595
16811TIP3   OH271847   2.556   1.118  11.845 -0.6221 -0.5947  0.0623
16811TIP3    H171848   2.574   1.110  11.752 -1.2206 -0.4625 -0.0677
16811TIP3    H271849   2.516   1.205  11.855  0.3694 -0.1972  0.5917
16812TIP3   OH271850   5.530   0.714   2.701  0.2249 -0.2749 -0.7675
16812TIP3    H171851   5.449   0.726   2.651  0.4654 -1.2253 -1.3860
16812TIP3    H271852   5.594   0.770   2.657  0.3912 -0.9730 -1.4165
16813TIP3   OH271853   2.229   5.480  13.453 -0.0150  0.4912  0.1306
16813TIP3    H171854   2.164   5.431  13.503 -0.4725  0.1646 -0.7822
16813TIP3    H271855   2.298   5.499  13.517  1.2659 -3.2923  0.0175
16814TIP3   OH271856   6.470   3.620   4.018 -0.3510  0.2764 -0.5257
16814TIP3    H171857   6.527   3.560   4.066 -1.7277 -0.8025 -0.2277
16814TIP3    H271858   6.491   3.603   3.926  0.9824  1.0641 -0.3863
16815TIP3   OH271859   3.172   5.723   6.498 -0.5963 -0.3300 -0.4432
16815TIP3    H171860   3.115   5.737   6.573  0.4508  1.1890  0.0924
16815TIP3    H271861   3.141   5.641   6.459 -2.9946  0.3533 -0.0521
16816TIP3   OH271862   6.745   2.771  14.214 -0.4189  0.4037 -0.4742
16816TIP3    H171863   6.807   2.761  14.286 -2.2302 -2.1273  0.8353
16816TIP3    H271864   6.798   2.762  14.135  1.0441 -0.8393  0.6146
16817TIP3   OH271865   6.667   3.443   5.595  0.0066  0.4206 -0.6496
16817TIP3    H171866   6.683   3.381   5.666 -2.4575  0.1990 -0.2432
16817TIP3    H271867   6.732   3.512   5.608 -1.5469  1.3278  2.9610
16818TIP3   OH271868   1.818   0.729   3.393 -0.3871 -0.1701  0.3301
16818TIP3    H171869   1.856   0.662   3.336  0.6845 -0.7251  1.6521
16818TIP3    H271870   1.735   0.692   3.421  0.0267 -0.8072  0.7516
16819TIP3   OH271871   2.370   2.345  15.994 -0.0395 -0.6636 -0.3383
16819TIP3    H171872   2.436   2.299  15.942  0.4598 -0.9979  0.5907
16819TIP3    H271873   2.382   2.437  15.970  2.0083 -0.5016  1.1787
16820TIP3   OH271874   5.447   6.502  15.379  0.0003  0.1618 -0.4785
16820TIP3    H171875   5.398   6.571  15.425  0.4118  1.7178 -2.3176
16820TIP3    H271876   5.380   6.455  15.329 -0.2543 -0.6686  0.6325
16821TIP3   OH271877   2.578   4.030   6.115 -0.3525  0.1503  0.0226
16821TIP3    H171878   2.592   4.000   6.026  1.2277  0.5177  0.1349
16821TIP3    H271879   2.498   4.081   6.112  1.5573  3.1602 -1.9211
16822TIP3   OH271880   2.222   5.358  10.521  0.0925 -0.3664  0.6466
16822TIP3    H171881   2.295   5.297  10.509 -0.4671 -1.7477  3.6613
16822TIP3    H271882   2.148   5.302  10.543 -1.4367  1.1599 -0.5081
16823TIP3   OH271883   2.725   1.471  12.838 -0.1205 -0.1912 -0.3289
16823TIP3    H171884   2.816   1.461  12.810  0.0673 -0.4891  0.3747
16823TIP3    H271885   2.689   1.538  12.779  0.9164  0.8768  0.2328
16824TIP3   OH271886   0.004   1.276  12.514  0.5993  0.3295 -0.3779
16824TIP3    H171887  -0.078   1.268  12.466 -0.3740  0.4323  1.2275
16824TIP3    H271888   0.001   1.364  12.552  1.0731  0.0369  0.3574
16825TIP3   OH271889   3.412   3.606   2.037 -0.1933 -0.0865  0.0357
16825TIP3    H171890   3.489   3.649   2.001 -0.4603  0.2895 -0.0901
16825TIP3    H271891   3.446   3.532   2.087  0.2017 -0.3479 -0.6228
16826TIP3   OH271892   6.429   3.888   4.668 -0.4491 -0.5980  0.2528
16826TIP3    H171893   6.519   3.882   4.637 -0.5066 -0.5472  0.0741
16826TIP3    H271894   6.378   3.911   4.590 -0.5915 -0.4410  0.3906
16827TIP3   OH271895   6.539   0.079   2.108  0.0929  0.2225  0.0891
16827TIP3    H171896   6.607   0.112   2.049  1.6745 -2.5911  0.2474
16827TIP3    H271897   6.564   0.112   2.195 -0.6248  1.9490 -0.3421
16828TIP3   OH271898   4.122   2.574  12.915  0.1933 -0.2151 -0.1751
16828TIP3    H171899   4.119   2.514  12.990  0.7847  0.3180  0.2866
16828TIP3    H271900   4.030   2.592  12.895  0.0295  0.2062  0.8912
16829TIP3   OH271901   1.770   3.514  15.154 -0.0141 -0.3258 -0.3843
16829TIP3    H171902   1.715   3.576  15.202 -0.6874 -1.8186  0.8058
16829TIP3    H271903   1.711   3.443  15.130  0.9661 -0.9980 -0.8366
16830TIP3   OH271904   1.228   2.028  12.231  0.9382 -0.0207 -0.2945
16830TIP3    H171905   1.185   1.952  12.194 -0.6521  0.2569  0.9348
16830TIP3    H271906   1.162   2.097  12.229  1.8369  0.8723  0.1143
16831TIP3   OH271907   2.268   6.367  12.933 -0.5671  0.4691 -0.2673
16831TIP3    H171908   2.307   6.453  12.919 -2.1278  1.4472  1.1862
16831TIP3    H271909   2.198   6.382  12.997  0.1219 -2.1301  1.1938
16832TIP3   OH271910   2.457   5.688  11.625 -0.0098  0.0304  0.1176
16832TIP3    H171911   2.536   5.732  11.592  0.2340 -0.2669  0.3097
16832TIP3    H271912   2.433   5.738  11.703 -0.7119  0.8731 -0.6159
16833TIP3   OH271913   0.365   2.467  14.417  0.1876 -1.1811  0.0720
16833TIP3    H171914   0.438   2.417  14.456 -0.9773 -3.3830 -0.4980
16833TIP3    H271915   0.302   2.400  14.391 -0.8106  0.5279 -2.0143
16834TIP3   OH271916   5.662   0.854  16.105 -0.7994  0.5530  0.1179
16834TIP3    H171917   5.717   0.786  16.143 -2.1565 -0.1938  0.7885
16834TIP3    H271918   5.665   0.926  16.168  0.4764  1.0496 -0.4960
16835TIP3   OH271919   0.121   6.460  12.236 -0.2943 -0.5322  0.5222
16835TIP3    H171920   0.096   6.536  12.289 -0.2833 -1.9814  2.6901
16835TIP3    H271921   0.204   6.486  12.195  0.3079  0.2217  2.1544
16836TIP3   OH271922   0.444   4.125   0.459 -0.4354  0.6089  0.2105
16836TIP3    H171923   0.383   4.139   0.531  1.2612  0.1768  1.7790
16836TIP3    H271924   0.491   4.045   0.483  0.1400  0.4596 -1.3874
16837TIP3   OH271925   5.959   4.119   2.915 -0.1688 -0.2394  0.3125
16837TIP3    H171926   5.997   4.106   2.828  0.9340  0.2254  0.7011
16837TIP3    H271927   5.941   4.213   2.918 -0.8443 -0.3734  0.3314
16838TIP3   OH271928   0.166   3.363   0.916  0.5289  0.3474 -0.1803
16838TIP3    H171929   0.207   3.313   0.987  1.7209  1.5970  0.0431
16838TIP3    H271930   0.100   3.416   0.960  0.0785 -0.1476 -0.2536
16839TIP3   OH271931   4.275   4.813   3.825 -0.6718 -0.7528 -0.1423
16839TIP3    H171932   4.269   4.809   3.921  1.6391  0.4933  0.0948
16839TIP3    H271933   4.344   4.877   3.808  0.1401 -2.2175 -2.6245
16840TIP3   OH271934   6.504   2.224  15.501  0.0635 -0.4613  0.3759
16840TIP3    H171935   6.430   2.197  15.555 -1.5095 -1.1725 -2.0530
16840TIP3    H271936   6.546   2.293  15.552 -1.5711 -0.8389  2.3290
16841TIP3   OH271937   0.315   0.387  15.311 -0.2964  0.0700 -0.4503
16841TIP3    H171938   0.362   0.349  15.386 -0.1664 -0.4522 -0.7952
16841TIP3    H271939   0.360   0.352  15.234 -1.5316 -0.7890 -0.7899
16842TIP3   OH271940   6.057   5.478  10.663 -0.1226  0.1785 -0.0668
16842TIP3    H171941   6.084   5.406  10.720 -1.7571  0.8497  1.6208
16842TIP3    H271942   6.102   5.555  10.698  0.2700  0.2870 -0.8038
16843TIP3   OH271943   6.251   3.174   6.805  0.7591  0.1019  0.4901
16843TIP3    H171944   6.302   3.194   6.727 -1.4795  1.2364 -0.7311
16843TIP3    H271945   6.213   3.088   6.788  2.2241 -0.7527  1.4077
16844TIP3   OH271946   1.524   3.341   5.831 -0.4001 -0.7401 -0.0823
16844TIP3    H171947   1.546   3.353   5.739  0.0567 -1.3633 -0.0525
16844TIP3    H271948   1.569   3.261   5.857 -1.6206 -1.3071  0.3323
16845TIP3   OH271949   6.655   2.539   1.328 -0.1962 -0.4004 -0.2132
16845TIP3    H171950   6.685   2.481   1.257  0.2684 -1.0615  0.5153
16845TIP3    H271951   6.566   2.511   1.346 -0.1761 -0.4996 -0.2623
16846TIP3   OH271952   0.141   5.782  16.469  0.1080  0.6967 -0.2563
16846TIP3    H171953   0.216   5.781  16.528 -1.8576  0.9304  2.3647
16846TIP3    H271954   0.150   5.702  16.416  2.0030  0.5754  0.2253
16847TIP3   OH271955   1.109   6.001   3.733 -0.0083 -0.2750  0.1355
16847TIP3    H171956   1.045   6.020   3.665 -0.0035 -2.1409 -0.4162
16847TIP3    H271957   1.057   5.993   3.813 -0.3937 -1.0470 -0.1838
16848TIP3   OH271958   3.058   1.892   4.826 -0.2150  0.2244 -0.1682
16848TIP3    H171959   3.094   1.981   4.823  0.8666 -0.1826  0.4271
16848TIP3    H271960   3.094   1.849   4.748  2.4008 -0.8368  1.5494
16849TIP3   OH271961   0.256   3.876  16.697 -0.1932 -0.2696 -0.2347
16849TIP3    H171962   0.303   3.950  16.660  1.2050 -0.7966  0.4304
16849TIP3    H271963   0.215   3.833  16.622  1.9244 -0.8629 -1.0891
16850TIP3   OH271964   2.787   0.301  14.098  0.2086  0.1269  0.2970
16850TIP3    H171965   2.820   0.215  14.123 -1.5740 -0.5227  0.5051
16850TIP3    H271966   2.796   0.304  14.003  0.3707 -0.2529  0.2999
16851TIP3   OH271967   2.370   5.393  15.864 -0.1556  0.1717  0.3792
16851TIP3    H171968   2.284   5.367  15.830 -0.5390  0.2227  1.2872
16851TIP3    H271969   2.428   5.323  15.836 -0.6560 -0.2778  0.4393
16852TIP3   OH271970   6.359   6.680  15.702  0.4850  0.3021  0.3601
16852TIP3    H171971   6.409   6.654  15.780  0.7602  0.4164  0.2210
16852TIP3    H271972   6.287   6.733  15.736  1.7146  1.9864  0.3600
16853TIP3   OH271973   5.567   2.232   0.130 -0.4027  0.1871 -0.2666
16853TIP3    H171974   5.537   2.303   0.074  0.9384 -1.0786 -2.7054
16853TIP3    H271975   5.627   2.273   0.191 -0.9782  1.4229 -0.5133
16854TIP3   OH271976   1.422   6.535   2.164  0.5659  0.5898 -0.1943
16854TIP3    H171977   1.456   6.599   2.101  2.2444  0.6304  0.7216
16854TIP3    H271978   1.445   6.571   2.250 -0.1434 -0.3263  0.3946
16855TIP3   OH271979   2.504   1.936  14.938  0.0745  0.0537  0.1300
16855TIP3    H171980   2.433   1.996  14.962  0.0432 -0.3892  1.2053
16855TIP3    H271981   2.582   1.975  14.978  0.0980 -0.4736  0.6114
16856TIP3   OH271982   4.383   0.653   1.093 -0.3503 -0.5917 -0.0769
16856TIP3    H171983   4.327   0.682   1.021 -0.4422  0.5218  0.4370
16856TIP3    H271984   4.461   0.618   1.051 -0.0866  0.7405 -0.6841
16857TIP3   OH271985   2.230   3.525  16.193  0.2277 -0.7608 -0.6213
16857TIP3    H171986   2.308   3.511  16.248  1.2268  1.3016 -1.4861
16857TIP3    H271987   2.261   3.578  16.120 -1.7602 -0.8962 -1.5938
16858TIP3   OH271988   0.858   4.635   2.700 -0.5058 -0.5869 -0.1524
16858TIP3    H171989   0.851   4.729   2.691 -1.1090 -0.5746  0.4014
16858TIP3    H271990   0.789   4.599   2.645 -0.3134 -0.7052 -0.3195
16859TIP3   OH271991   1.014   2.517   4.070 -0.2774 -0.0145  0.1015
16859TIP3    H171992   0.947   2.483   4.011  0.0196 -0.3877 -0.0185
16859TIP3    H271993   1.078   2.446   4.080  0.2320  0.4226  0.0185
16860TIP3   OH271994   6.748   0.321   5.658  0.4507  0.1137  1.2142
16860TIP3    H171995   6.691   0.245   5.646 -0.0228  0.3820  1.7732
16860TIP3    H271996   6.688   0.395   5.665  0.8142  0.2218  3.2176
16861TIP3   OH271997   1.119   3.164   2.274  0.3390  0.2555  0.1001
16861TIP3    H171998   1.120   3.252   2.237 -0.0823  0.2710  0.1233
16861TIP3    H271999   1.197   3.122   2.238  1.3194  1.0963  1.1940
16862TIP3   OH272000   0.470   0.603  10.922  0.1270 -0.2313  0.3582
16862TIP3    H172001   0.417   0.584  10.845 -0.5262 -0.2181  0.8060
16862TIP3    H272002   0.521   0.680  10.897  2.9476 -2.6037 -1.5367
16863TIP3   OH272003   2.856   4.035  14.819 -0.3704 -0.3247  0.1119
16863TIP3    H172004   2.849   3.942  14.798  0.2401 -0.5434  0.8532
16863TIP3    H272005   2.816   4.042  14.906  1.3781 -0.2437  0.9299
16864TIP3   OH272006   3.781   3.329   1.820 -0.0749 -0.4107  0.1756
16864TIP3    H172007   3.834   3.349   1.743 -0.5223  0.1270  0.0091
16864TIP3    H272008   3.829   3.368   1.893 -1.5009  2.3215 -0.2681
16865TIP3   OH272009   1.202   0.823  15.749  0.5049 -0.0974 -0.0548
16865TIP3    H172010   1.277   0.882  15.747  0.4693 -0.0745 -0.8273
16865TIP3    H272011   1.241   0.735  15.741  0.4398 -0.0749 -0.6371
16866TIP3   OH272012   4.473   5.276  13.808  0.4516 -0.2299  0.6623
16866TIP3    H172013   4.543   5.280  13.743  0.9957 -0.8705  1.2003
16866TIP3    H272014   4.484   5.355  13.861 -0.8059  0.9813 -0.8268
16867TIP3   OH272015   3.672   4.863   5.180  0.1567  0.5801 -0.1764
16867TIP3    H172016   3.755   4.903   5.156  0.5901  0.1020  0.5102
16867TIP3    H272017   3.695   4.777   5.215 -0.8300 -0.7138 -2.5450
16868TIP3   OH272018   0.171   1.036   2.286 -0.0027 -0.2817  0.4440
16868TIP3    H172019   0.139   1.101   2.223 -0.1381 -1.3729 -0.6313
16868TIP3    H272020   0.210   0.968   2.232  2.3827  0.0755  1.6667
16869TIP3   OH272021   4.352   0.815   1.897  0.4768 -0.1859 -0.4581
16869TIP3    H172022   4.370   0.868   1.819  1.3265  0.8385  0.4251
16869TIP3    H272023   4.434   0.768   1.914 -0.0294 -1.2060 -0.7765
16870TIP3   OH272024   1.745   4.279  11.565 -0.5191 -0.5715  0.4789
16870TIP3    H172025   1.821   4.236  11.526  0.6107  1.6664  0.1358
16870TIP3    H272026   1.707   4.330  11.494 -0.6047  0.6209  1.3492
16871TIP3   OH272027   5.987   3.344  14.002 -0.4853  0.4798  0.0783
16871TIP3    H172028   5.971   3.269  13.944 -1.0115  1.6301 -1.3022
16871TIP3    H272029   5.921   3.335  14.071 -2.0513  0.9021 -1.3199
16872TIP3   OH272030   0.404   0.835   2.506 -0.0960 -0.1710  0.0661
16872TIP3    H172031   0.433   0.914   2.461 -1.9083  0.1903 -0.4958
16872TIP3    H272032   0.461   0.766   2.471 -0.3760  0.3901 -1.5643
16873TIP3   OH272033   1.131   5.151   0.252 -0.0144 -0.4884 -0.8199
16873TIP3    H172034   1.206   5.183   0.302 -0.4600 -0.4336 -0.1673
16873TIP3    H272035   1.057   5.203   0.285 -0.4060 -0.8325 -1.1525
16874TIP3   OH272036   4.002   3.543  12.908  0.4105  0.7449 -0.3376
16874TIP3    H172037   3.938   3.549  12.979 -0.7188 -0.0672 -1.2825
16874TIP3    H272038   4.014   3.449  12.894  0.9716  0.8982 -0.9268
16875TIP3   OH272039   2.450   2.997   0.848  0.0437 -0.0103  0.4737
16875TIP3    H172040   2.384   3.050   0.804 -0.3185 -0.4420  0.4918
16875TIP3    H272041   2.463   2.922   0.790  0.7586  0.2387  0.3088
16876TIP3   OH272042   1.097   0.910  12.805  0.3390  0.0190 -0.7765
16876TIP3    H172043   1.045   0.986  12.832 -0.4241 -0.5891 -0.5254
16876TIP3    H272044   1.155   0.944  12.736 -1.8451  0.2371 -2.5372
16877TIP3   OH272045   1.723   2.055   1.720  0.4949 -0.2393  0.4540
16877TIP3    H172046   1.715   2.069   1.815 -0.5649 -0.7602  0.4555
16877TIP3    H272047   1.771   1.973   1.712  0.9795  0.0349  0.5325
16878TIP3   OH272048   1.036   2.441   0.918 -0.0551  0.0792 -0.4218
16878TIP3    H172049   0.989   2.423   0.837  0.0414 -0.9912 -0.2536
16878TIP3    H272050   0.975   2.415   0.987 -0.2737  1.3157 -0.1315
16879TIP3   OH272051   1.698   3.808   0.965  0.1441  0.5482 -0.7161
16879TIP3    H172052   1.761   3.803   0.893  1.2785 -0.0678  0.2912
16879TIP3    H272053   1.737   3.754   1.034  0.1315  2.8357  1.1475
16880TIP3   OH272054   3.181   0.700  17.232  0.8839 -0.0952 -0.2807
16880TIP3    H172055   3.119   0.744  17.173 -0.6287 -1.8069 -0.0018
16880TIP3    H272056   3.151   0.725  17.319 -0.2537 -1.9631 -0.1013
16881TIP3   OH272057   4.801   6.373   3.473  0.1496 -0.0397  0.2426
16881TIP3    H172058   4.871   6.362   3.409 -0.7060 -1.5126 -0.4527
16881TIP3    H272059   4.722   6.385   3.420 -0.1225  1.7488  1.0208
16882TIP3   OH272060   5.195   5.865  17.227 -0.5067 -0.5394 -0.5902
16882TIP3    H172061   5.276   5.899  17.265 -0.8599 -0.4362  0.0711
16882TIP3    H272062   5.197   5.771  17.246 -0.4330 -0.5729 -0.7702
16883TIP3   OH272063   1.056   1.358   5.183  0.3644 -0.1414  0.9958
16883TIP3    H172064   1.015   1.337   5.267 -1.5774  1.0635  0.3757
16883TIP3    H272065   1.067   1.453   5.186 -2.2382  0.2809 -1.1948
16884TIP3   OH272066   1.541   0.283  15.959 -0.2760 -0.0130  0.3337
16884TIP3    H172067   1.600   0.347  15.919  1.9424 -1.3681  1.3464
16884TIP3    H272068   1.538   0.210  15.897 -0.5431 -0.1512  0.5044
16885TIP3   OH272069   4.364   4.801  13.977  0.5956 -0.0667  0.0162
16885TIP3    H172070   4.349   4.799  13.882 -3.1708  1.7060  0.4821
16885TIP3    H272071   4.408   4.884  13.993  0.1809  0.1685 -0.0578
16886TIP3   OH272072   0.352   6.639   3.896  0.0290  0.1642  0.3099
16886TIP3    H172073   0.431   6.691   3.906 -0.6019  1.1227  0.4593
16886TIP3    H272074   0.344   6.591   3.979  0.0669  0.6210  0.5825
16887TIP3   OH272075   2.262   1.528   1.644 -0.1527  0.6644 -0.3574
16887TIP3    H172076   2.167   1.516   1.637 -0.0576  1.0329 -2.6708
16887TIP3    H272077   2.297   1.439   1.651 -0.5594  0.4229 -1.2927
16888TIP3   OH272078   2.595   0.930  15.640 -0.2992 -0.0494 -0.1440
16888TIP3    H172079   2.674   0.964  15.681 -0.7072  0.4369  0.2474
16888TIP3    H272080   2.541   0.899  15.713 -1.2320  1.2511 -0.2573
16889TIP3   OH272081   0.664   3.197  15.980  0.2872 -0.2721  0.1968
16889TIP3    H172082   0.649   3.282  15.938  2.2193 -0.6909 -1.4475
16889TIP3    H272083   0.733   3.214  16.044  1.1059 -0.6853 -0.5546
16890TIP3   OH272084   0.861   0.797   2.649  0.2950  0.4525  0.0008
16890TIP3    H172085   0.830   0.885   2.671 -0.0892  0.0189  1.2668
16890TIP3    H272086   0.839   0.745   2.726  1.7062 -0.4663 -0.2045
16891TIP3   OH272087   6.108   5.340   1.186  0.4968  0.0469  0.2090
16891TIP3    H172088   6.177   5.341   1.252  1.4523  4.8221 -0.6517
16891TIP3    H272089   6.032   5.378   1.231  0.2958  0.5918 -0.5732
16892TIP3   OH272090   2.383   1.100   1.999  0.0998  0.4108 -0.8957
16892TIP3    H172091   2.455   1.061   2.048 -0.9553  1.2559  1.4300
16892TIP3    H272092   2.311   1.038   2.007  0.3464 -0.1025 -2.6017
16893TIP3   OH272093   3.330   2.503  16.007  0.2126 -0.2316  0.2499
16893TIP3    H172094   3.255   2.554  15.978 -0.4329 -1.3812 -0.1578
16893TIP3    H272095   3.380   2.562  16.063 -1.4852  0.2737  1.2808
16894TIP3   OH272096   5.010   0.852   3.086 -0.0794  0.0898  0.1671
16894TIP3    H172097   4.953   0.791   3.132  0.4203 -0.6182 -0.1355
16894TIP3    H272098   5.082   0.869   3.148  0.1315 -0.1647 -0.0060
16895TIP3   OH272099   6.680   1.765   6.373  0.3939  0.6034 -0.2312
16895TIP3    H172100   6.744   1.718   6.427  0.9137  1.9816  0.3734
16895TIP3    H272101   6.600   1.765   6.425  0.9666  2.1616  0.6896
16896TIP3   OH272102   2.027   0.567   0.767 -0.9908 -0.6197 -0.1372
16896TIP3    H172103   2.021   0.492   0.827 -0.8685 -0.9146 -0.4902
16896TIP3    H272104   1.947   0.562   0.715 -0.4825 -1.1425 -0.8918
16897TIP3   OH272105   6.781   4.320   5.531 -0.8632 -0.0814 -0.2654
16897TIP3    H172106   6.828   4.401   5.507  1.7148 -1.1475  1.0342
16897TIP3    H272107   6.715   4.349   5.593  0.8809  0.8818  1.1833
16898TIP3   OH272108   3.135   1.142   4.168 -0.0926  0.2560  0.1470
16898TIP3    H172109   3.078   1.127   4.243  1.7926 -0.1739  1.5425
16898TIP3    H272110   3.192   1.214   4.195 -0.1473  0.8748 -1.3249
16899TIP3   OH272111   4.327   3.636   4.949 -0.3116 -0.0138 -0.4981
16899TIP3    H172112   4.341   3.561   5.007  2.2945  1.7204  1.2402
16899TIP3    H272113   4.412   3.681   4.948 -1.3800  2.0312 -2.7748
16900TIP3   OH272114   2.228   6.038  15.253 -0.6712 -0.2381  0.4357
16900TIP3    H172115   2.138   6.070  15.259 -0.4419  0.5706 -0.3646
16900TIP3    H272116   2.226   5.973  15.183 -0.4691  0.3759 -0.1461
16901TIP3   OH272117   3.973   4.197  13.031 -0.2981  0.1143 -0.0767
16901TIP3    H172118   3.889   4.159  13.007 -1.4575  3.2759 -1.2348
16901TIP3    H272119   4.007   4.234  12.950  1.7451 -0.2025  0.5988
16902TIP3   OH272120   3.558   1.008  12.605  0.6158  0.2676 -0.1241
16902TIP3    H172121   3.524   1.098  12.611  0.6110  0.2583 -0.0193
16902TIP3    H272122   3.524   0.976  12.521  0.9689  0.5106 -0.3671
16903TIP3   OH272123   5.648   4.366  12.442  0.1611 -0.0340 -0.1815
16903TIP3    H172124   5.699   4.351  12.363  0.6708  0.2076  0.1021
16903TIP3    H272125   5.565   4.403  12.411  0.5485  0.5129 -0.5629
16904TIP3   OH272126   0.214   1.674   2.198 -0.1609 -0.1770 -0.2552
16904TIP3    H172127   0.167   1.723   2.130  0.6564 -0.0431 -0.7262
16904TIP3    H272128   0.170   1.589   2.202 -0.6616  0.0744 -0.4553
16905TIP3   OH272129   1.514   4.689  12.749  0.2672  0.5904  0.4463
16905TIP3    H172130   1.515   4.597  12.775  0.3476  0.7745  1.0966
16905TIP3    H272131   1.431   4.723  12.784 -0.5929  0.3369 -1.2924
16906TIP3   OH272132   6.122   0.921   1.000  0.4191 -0.6621  0.3884
16906TIP3    H172133   6.172   0.839   0.999  0.4268 -0.6598  0.5932
16906TIP3    H272134   6.104   0.937   1.093  2.2526  0.7114  0.5285
16907TIP3   OH272135   6.370   3.991  14.174  0.0492 -0.0026 -0.4170
16907TIP3    H172136   6.331   3.907  14.152 -0.1101 -0.3991  1.2965
16907TIP3    H272137   6.300   4.055  14.158 -0.6262 -0.4741  0.5861
16908TIP3   OH272138   4.517   5.618  16.213  0.2494 -0.3466 -0.5098
16908TIP3    H172139   4.477   5.533  16.192  0.0404  0.4329 -3.5124
16908TIP3    H272140   4.606   5.596  16.240 -0.2317 -1.6172  0.1221
16909TIP3   OH272141   5.215   4.857   5.386 -0.4436 -0.0870 -0.8094
16909TIP3    H172142   5.198   4.812   5.469  0.6938  0.5278 -0.2406
16909TIP3    H272143   5.269   4.796   5.336  0.2588  0.2189 -0.4334
16910TIP3   OH272144   1.720   3.950  13.932  0.3332 -0.2940 -0.2841
16910TIP3    H172145   1.755   3.929  13.846  2.5463 -1.8578  0.9399
16910TIP3    H272146   1.726   3.868  13.982  0.1104  0.8395  1.6784
16911TIP3   OH272147   3.191   3.592  16.047  0.1888  0.0916 -0.2595
16911TIP3    H172148   3.143   3.614  15.968 -1.5946 -0.7274  0.5545
16911TIP3    H272149   3.237   3.511  16.025 -1.3530 -0.8549 -0.0636
16912TIP3   OH272150   5.187   5.538  17.189  0.0734  0.1692 -0.0536
16912TIP3    H172151   5.266   5.577  17.151 -0.8099  0.6680 -1.3844
16912TIP3    H272152   5.214   5.448  17.212  1.0947  0.4247 -0.2407
16913TIP3   OH272153   1.525   2.092   4.454 -0.0613  0.1715  0.0041
16913TIP3    H172154   1.535   2.097   4.549  0.1550 -1.3248  0.0693
16913TIP3    H272155   1.604   2.133   4.419  1.2078 -1.8029  0.4892
16914TIP3   OH272156   5.567   1.944   2.618  0.1180  0.3273 -0.4431
16914TIP3    H172157   5.580   1.987   2.534 -1.4141 -0.8291 -1.2947
16914TIP3    H272158   5.473   1.933   2.626  0.2016  0.9874  1.7314
16915TIP3   OH272159   4.856   5.229  14.134 -0.3136 -0.1893 -0.1930
16915TIP3    H172160   4.892   5.143  14.110  0.8158  0.2944 -0.2720
16915TIP3    H272161   4.766   5.227  14.103 -0.2588 -1.3049 -0.3109
16916TIP3   OH272162   4.333   5.988  10.757 -0.2615  0.4490  0.2246
16916TIP3    H172163   4.364   6.005  10.668 -1.2388  0.4529 -0.1235
16916TIP3    H272164   4.254   5.935  10.745  1.1910 -2.0612  1.1943
16917TIP3   OH272165   3.874   3.658   6.487 -0.0852 -0.3092  1.1833
16917TIP3    H172166   3.814   3.712   6.539 -0.0393  1.1301 -0.2115
16917TIP3    H272167   3.949   3.644   6.544 -0.2303  0.8608  1.6767
16918TIP3   OH272168   5.111   2.050  14.185 -0.3303  0.1774 -0.2037
16918TIP3    H172169   5.045   1.998  14.140  0.3065 -1.3645  0.6270
16918TIP3    H272170   5.191   2.037  14.134  0.1291 -0.6964  0.7183
16919TIP3   OH272171   0.290   4.593   5.020  0.4862  0.0813  0.1204
16919TIP3    H172172   0.218   4.561   5.075 -0.0964  0.4872 -0.3911
16919TIP3    H272173   0.289   4.688   5.033  2.5698 -0.1254  2.0694
16920TIP3   OH272174   3.904   2.841   2.957  0.0494  0.6156 -0.0901
16920TIP3    H172175   3.961   2.768   2.933 -0.6538 -0.0983  0.3660
16920TIP3    H272176   3.891   2.889   2.876 -0.3010 -0.3569 -0.6261
16921TIP3   OH272177   5.122   0.060  16.238  0.6952  0.6238  0.0219
16921TIP3    H172178   5.116   0.081  16.331 -0.3827 -0.4970  0.2188
16921TIP3    H272179   5.166   0.136  16.199  0.8009  1.2737  1.3743
16922TIP3   OH272180   1.597   5.197   1.740 -0.4167 -0.1414  0.4026
16922TIP3    H172181   1.516   5.227   1.699 -0.2961 -0.2048  0.1161
16922TIP3    H272182   1.639   5.278   1.771 -0.5283 -0.0976  0.4384
16923TIP3   OH272183   0.186   1.260  12.221 -0.6760 -0.9020 -0.5804
16923TIP3    H172184   0.210   1.261  12.314 -1.1269 -1.0282 -0.4577
16923TIP3    H272185   0.257   1.306  12.177 -1.0381  0.1881 -0.0310
16924TIP3   OH272186   4.589   2.640   0.566 -0.2977  0.6001 -0.6762
16924TIP3    H172187   4.501   2.607   0.585  0.3135 -0.5319  0.2833
16924TIP3    H272188   4.583   2.735   0.578 -0.3515  0.1395  3.7612
16925TIP3   OH272189   4.501   1.049  14.448  0.2622  0.1150 -0.2375
16925TIP3    H172190   4.580   1.005  14.477  0.2531  1.4590  1.9539
16925TIP3    H272191   4.432   1.015  14.505 -0.2709  0.8057 -0.4565
16926TIP3   OH272192   1.763   2.265  14.275  0.3529  0.2730  0.0530
16926TIP3    H172193   1.698   2.258  14.205  0.1238 -2.6602  0.4758
16926TIP3    H272194   1.833   2.206  14.249  0.7290 -0.0844  1.8042
16927TIP3   OH272195   5.384   1.617  10.978  0.6612 -0.2512 -0.1013
16927TIP3    H172196   5.372   1.700  10.933  1.1453 -1.1382 -1.9189
16927TIP3    H272197   5.457   1.632  11.038  1.3885  0.3588 -1.1319
16928TIP3   OH272198   1.225   3.762  16.584  0.6412  0.6423  0.0287
16928TIP3    H172199   1.271   3.810  16.516  0.2598  1.3740  0.2817
16928TIP3    H272200   1.143   3.809  16.596 -0.2775 -0.7822 -0.5796
16929TIP3   OH272201   2.066   6.346   2.276 -0.4545 -0.0256 -0.2547
16929TIP3    H172202   2.139   6.289   2.253 -0.7261 -0.7385  0.6486
16929TIP3    H272203   2.048   6.326   2.367 -0.1608  1.9371  0.2553
16930TIP3   OH272204   5.255   0.865   3.208 -0.1377  0.1281 -1.1417
16930TIP3    H172205   5.307   0.832   3.134 -0.2213 -1.2274 -0.5962
16930TIP3    H272206   5.307   0.843   3.285 -1.1280 -0.4581 -0.6473
16931TIP3   OH272207   3.825   5.158   3.171  0.5822 -0.0941  0.0477
16931TIP3    H172208   3.737   5.122   3.160  0.9318 -1.1261  0.5933
16931TIP3    H272209   3.815   5.222   3.242 -0.0451  0.9484 -0.9508
16932TIP3   OH272210   0.793   2.824  16.699  0.0443  0.0757  0.2347
16932TIP3    H172211   0.760   2.740  16.730 -0.0304  0.5112  1.3592
16932TIP3    H272212   0.871   2.840  16.752 -0.1430  0.8848  0.2695
16933TIP3   OH272213   3.702   5.579  16.196 -0.6984  0.2124  0.3279
16933TIP3    H172214   3.651   5.657  16.174 -2.3736 -0.6779  0.9214
16933TIP3    H272215   3.721   5.538  16.112 -1.2286  0.3959  0.1173
16934TIP3   OH272216   2.165   4.891   2.292 -0.3812  0.8001 -0.1158
16934TIP3    H172217   2.126   4.838   2.223  1.3461  0.2700 -0.6959
16934TIP3    H272218   2.135   4.849   2.373  0.8732 -1.0046 -0.5674
16935TIP3   OH272219   1.734   1.321   4.700 -0.2806 -0.2310  0.3963
16935TIP3    H172220   1.810   1.303   4.644  0.1569  3.5174 -0.3911
16935TIP3    H272221   1.760   1.291   4.786  1.2096 -1.0681 -0.3255
16936TIP3   OH272222   4.070   6.782  13.187 -0.2630  0.5985  0.0301
16936TIP3    H172223   4.070   6.873  13.217  0.7000  0.4427  0.5214
16936TIP3    H272224   4.162   6.763  13.171 -0.7366  0.7180 -3.1589
16937TIP3   OH272225   4.223   2.716  12.314  0.2324 -0.2292  0.2249
16937TIP3    H172226   4.231   2.681  12.403 -0.8423 -0.0288  0.4176
16937TIP3    H272227   4.240   2.809  12.323  0.0421 -0.1946  0.2448
16938TIP3   OH272228   2.308   1.628   0.783  0.2041 -0.1206  0.1239
16938TIP3    H172229   2.280   1.589   0.866  0.8005  0.2825  0.5167
16938TIP3    H272230   2.398   1.656   0.798  0.6170 -0.8128 -0.9266
16939TIP3   OH272231   3.850   1.289  11.885  0.0988 -0.2788 -0.0529
16939TIP3    H172232   3.933   1.334  11.898 -0.2668  0.5277 -0.4522
16939TIP3    H272233   3.838   1.289  11.790  0.5461 -2.0529 -0.1365
16940TIP3   OH272234   5.440   3.121   6.774  0.0931  0.0209  0.5104
16940TIP3    H172235   5.429   3.184   6.845  1.8020 -0.4340  1.2046
16940TIP3    H272236   5.535   3.115   6.762 -0.1088 -1.3294 -0.5386
16941TIP3   OH272237   3.589   0.131  10.670 -0.0004  1.0036 -0.4221
16941TIP3    H172238   3.683   0.148  10.673 -0.1576  1.6583  1.7408
16941TIP3    H272239   3.552   0.205  10.623  0.4405  1.3173 -0.2751
16942TIP3   OH272240   0.918   2.434   0.661  0.0766 -0.0955 -0.2169
16942TIP3    H172241   0.899   2.527   0.647 -0.6830 -0.5468 -2.3644
16942TIP3    H272242   1.012   2.426   0.644  0.5065  0.5929  1.7714
16943TIP3   OH272243   2.119   0.736  15.734 -0.3999  0.5244  0.2001
16943TIP3    H172244   2.029   0.732  15.701 -0.0161  0.5391 -0.8779
16943TIP3    H272245   2.140   0.647  15.760 -0.0879  0.1479 -1.3090
16944TIP3   OH272246   1.280   2.227   5.687 -0.4977 -0.4451  0.5126
16944TIP3    H172247   1.316   2.140   5.701  0.0766 -0.3897 -0.6062
16944TIP3    H272248   1.240   2.224   5.600 -1.3129  0.1275  0.8604
16945TIP3   OH272249   5.005   5.380  15.832 -0.0119  0.3309 -0.5151
16945TIP3    H172250   4.980   5.425  15.752  0.3650  0.3496 -0.6215
16945TIP3    H272251   5.097   5.358  15.820 -0.2680 -0.7201 -0.5862
16946TIP3   OH272252   4.468   4.873   7.110  0.4853  0.1690 -0.4506
16946TIP3    H172253   4.547   4.846   7.155  0.4452 -1.3311 -1.2265
16946TIP3    H272254   4.488   4.862   7.017 -1.2245 -2.0587 -0.6138
16947TIP3   OH272255   2.478   4.115   2.522  0.5376  0.5231 -0.0712
16947TIP3    H172256   2.432   4.119   2.606  1.5272 -0.6455  0.5504
16947TIP3    H272257   2.433   4.178   2.467 -0.9314  0.3835  0.9455
16948TIP3   OH272258   3.032   1.842   3.368 -0.1118  0.6236 -0.3066
16948TIP3    H172259   2.979   1.763   3.356  0.0064  0.7162 -1.4362
16948TIP3    H272260   3.102   1.815   3.428 -0.3527  0.0042 -0.2995
16949TIP3   OH272261   4.045   2.972   5.362 -0.0704  0.7916 -0.6054
16949TIP3    H172262   4.082   2.897   5.408 -0.5505  1.6917  1.2892
16949TIP3    H272263   3.979   2.935   5.303 -0.3881 -0.2603  0.4094
16950TIP3   OH272264   6.362   1.715   4.741  0.9136  0.3799  0.6642
16950TIP3    H172265   6.368   1.788   4.680 -1.3864  0.2977  0.3220
16950TIP3    H272266   6.414   1.744   4.817  2.8485  0.9369 -0.8201
16951TIP3   OH272267   5.825   5.082   4.350  0.1504 -0.1928  0.0669
16951TIP3    H172268   5.852   5.174   4.348  0.6111 -0.2728  1.9563
16951TIP3    H272269   5.907   5.033   4.338  0.3609 -0.3800  2.0893
16952TIP3   OH272270   0.523   1.588   2.858  0.3968  0.7409 -0.2049
16952TIP3    H172271   0.530   1.650   2.931  1.4805 -0.2158  0.5172
16952TIP3    H272272   0.434   1.599   2.826 -0.2639  0.8205  1.5904
16953TIP3   OH272273   0.944   2.257   3.954  0.6862 -0.0192  0.0491
16953TIP3    H172274   0.926   2.180   4.008 -0.9019  0.7257  0.6066
16953TIP3    H272275   0.906   2.235   3.869  0.4291  0.0572  0.1437
16954TIP3   OH272276   3.207   1.531   4.490 -0.1030  0.2518 -0.2409
16954TIP3    H172277   3.230   1.440   4.504  2.5935  0.9172 -0.0404
16954TIP3    H272278   3.125   1.528   4.442 -0.9611 -2.2400  1.2598
16955TIP3   OH272279   6.071   4.720  15.014  0.5422  0.3269 -0.2750
16955TIP3    H172280   6.132   4.788  14.985  1.7763 -0.9202 -0.6795
16955TIP3    H272281   6.119   4.672  15.081 -1.4717  1.7735  2.2841
16956TIP3   OH272282   4.268   1.465  16.280 -0.0321 -0.4523 -0.3882
16956TIP3    H172283   4.238   1.393  16.335 -1.8845 -1.1578 -2.2471
16956TIP3    H272284   4.346   1.499  16.325  0.2232 -2.8692  1.1046
16957TIP3   OH272285   3.187   2.290  16.205 -0.1560  0.3171 -0.2796
16957TIP3    H172286   3.169   2.212  16.257 -1.4191  1.0665  0.4260
16957TIP3    H272287   3.272   2.273  16.164 -0.2567 -1.2626  0.1603
16958TIP3   OH272288   0.918   6.072  11.068  0.0243 -0.1428 -0.1027
16958TIP3    H172289   0.970   6.153  11.064 -1.3937  0.7571 -0.9381
16958TIP3    H272290   0.871   6.078  11.151 -0.6645  0.2648 -0.5198
16959TIP3   OH272291   3.830   2.153  13.536 -0.3892 -1.1960  0.5935
16959TIP3    H172292   3.761   2.206  13.498 -0.5323 -0.6073  1.6598
16959TIP3    H272293   3.906   2.166  13.478  0.5573  2.7295  2.5684
16960TIP3   OH272294   6.426   2.777  14.518 -0.0502 -0.0010 -0.7732
16960TIP3    H172295   6.368   2.749  14.447  0.4482 -1.0175 -0.7960
16960TIP3    H272296   6.492   2.707  14.524 -0.0162  0.1362  0.6152
16961TIP3   OH272297   1.883   0.110  15.683 -0.5455 -0.2595 -0.1300
16961TIP3    H172298   1.957   0.110  15.744 -0.9640 -0.2466  0.3778
16961TIP3    H272299   1.903   0.181  15.622  0.7916 -1.4609 -1.1330
16962TIP3   OH272300   2.711   4.944  15.807 -0.2417 -0.2444  0.3533
16962TIP3    H172301   2.717   4.945  15.712 -1.5515 -1.5332  0.2377
16962TIP3    H272302   2.631   4.993  15.826  1.3242  2.1476  0.9389
16963TIP3   OH272303   3.343   4.219  11.012  0.1223 -0.8752  0.1094
16963TIP3    H172304   3.294   4.187  10.936 -0.6374 -0.0157  0.2342
16963TIP3    H272305   3.339   4.314  11.005  1.0585 -0.7961  0.5890
16964TIP3   OH272306   5.388   2.394  11.072 -0.2910  0.2044  0.6876
16964TIP3    H172307   5.442   2.326  11.112  0.6856  0.3608 -0.3452
16964TIP3    H272308   5.410   2.391  10.979 -0.8562  1.3706  0.5046
16965TIP3   OH272309   3.737   1.523  12.363  0.5538 -0.2841  0.5726
16965TIP3    H172310   3.820   1.570  12.366  0.9318 -0.8521 -0.5202
16965TIP3    H272311   3.679   1.573  12.419  1.4021  0.5943  0.6796
16966TIP3   OH272312   5.922   0.306  10.872  0.1430  0.0883 -0.3061
16966TIP3    H172313   5.949   0.322  10.781  0.9633  0.3398 -0.0200
16966TIP3    H272314   5.852   0.242  10.865 -0.7733  1.1533 -1.2219
16967TIP3   OH272315   0.649   3.321   5.136  0.3401 -0.2664  0.1994
16967TIP3    H172316   0.571   3.352   5.183  1.0195  1.3717  0.2605
16967TIP3    H272317   0.648   3.226   5.149 -2.7963 -0.5388 -1.5606
16968TIP3   OH272318   5.928   4.579   4.546 -0.6656  0.4666  0.0460
16968TIP3    H172319   5.978   4.499   4.538  1.4625  1.4003  3.0262
16968TIP3    H272320   5.865   4.576   4.474 -0.1419 -3.4682 -0.3403
16969TIP3   OH272321   5.625   0.540  14.951 -0.9302 -0.8580  0.9984
16969TIP3    H172322   5.541   0.507  14.983 -1.2293 -1.2548 -0.1894
16969TIP3    H272323   5.668   0.463  14.912 -1.1964 -0.0922 -0.8690
16970TIP3   OH272324   5.961   5.620   1.062 -0.7726  0.5835 -0.2488
16970TIP3    H172325   5.944   5.712   1.042 -0.1394  1.4202  2.7116
16970TIP3    H272326   5.892   5.595   1.123  0.5498 -0.0945  1.0224
16971TIP3   OH272327   6.300   2.151   4.836  0.2024 -0.4379 -0.3058
16971TIP3    H172328   6.377   2.208   4.843  0.5036 -0.8693 -0.0833
16971TIP3    H272329   6.226   2.212   4.830  0.4396 -0.0234  0.8973
16972TIP3   OH272330   1.223   2.053   0.770  0.0060 -0.1085 -0.7859
16972TIP3    H172331   1.299   2.056   0.712  1.8483  0.3319  1.6082
16972TIP3    H272332   1.253   2.004   0.846 -1.7101  1.2138  0.7753
16973TIP3   OH272333   1.227   3.343   5.338 -0.2872  0.0088  0.0125
16973TIP3    H172334   1.150   3.393   5.311 -0.3524 -1.2459 -2.1968
16973TIP3    H272335   1.240   3.367   5.430 -2.7177  0.9796  0.1307
16974TIP3   OH272336   4.974   5.079   1.176 -0.1076 -0.0678  0.5050
16974TIP3    H172337   4.993   5.047   1.088  0.8124 -0.8094  0.9562
16974TIP3    H272338   4.879   5.072   1.184 -0.2278  0.2908 -0.5289
16975TIP3   OH272339   0.194   2.248  13.325  0.0032  0.2752 -0.0447
16975TIP3    H172340   0.128   2.215  13.264 -1.6258 -0.1789  1.9074
16975TIP3    H272341   0.269   2.268  13.270 -0.9588 -1.3411 -2.0327
16976TIP3   OH272342   5.282   2.209   0.010 -0.3002  0.4627 -0.4136
16976TIP3    H172343   5.306   2.186  -0.080  0.9490 -1.1527  0.3052
16976TIP3    H272344   5.202   2.160   0.026  1.3852 -2.1232  0.5022
16977TIP3   OH272345   4.501   0.095  11.813 -0.0351 -0.1131 -0.3066
16977TIP3    H172346   4.570   0.028  11.808  0.5805  0.3908  1.2591
16977TIP3    H272347   4.520   0.154  11.740  1.0502 -0.1033 -0.0260
16978TIP3   OH272348   0.039   5.119   5.541 -0.0859 -0.5938 -0.0340
16978TIP3    H172349  -0.017   5.156   5.473 -0.5268 -1.6821 -0.2735
16978TIP3    H272350   0.062   5.032   5.509 -0.2836 -1.1073  1.1965
16979TIP3   OH272351   3.663   6.441  15.335  0.0875  0.6568 -0.4922
16979TIP3    H172352   3.751   6.406  15.319 -0.0106 -0.5462  1.3551
16979TIP3    H272353   3.673   6.494  15.414 -1.0767 -0.4920  0.4461
16980TIP3   OH272354   0.120   3.457  13.107 -0.2446  0.6551 -0.5516
16980TIP3    H172355   0.069   3.463  13.026 -1.0058 -0.2629 -0.1608
16980TIP3    H272356   0.057   3.476  13.177 -0.0377 -0.4028 -0.0657
16981TIP3   OH272357   3.848   0.365  12.792  0.5782  0.0925  0.3733
16981TIP3    H172358   3.922   0.387  12.849  0.8350 -1.4465  0.6410
16981TIP3    H272359   3.848   0.434  12.726  0.5168  1.6957  2.0003
16982TIP3   OH272360   1.614   1.227   2.152  0.2460 -0.3304  0.4708
16982TIP3    H172361   1.577   1.167   2.217 -1.0656  0.9618  0.9396
16982TIP3    H272362   1.703   1.245   2.184  0.0045 -0.5930  1.3069
16983TIP3   OH272363   5.448   1.235  12.947  0.1760 -0.3744  0.2160
16983TIP3    H172364   5.357   1.244  12.919 -0.3540 -2.0464  1.3475
16983TIP3    H272365   5.446   1.168  13.015  2.3251 -0.7887 -0.0896
16984TIP3   OH272366   3.722   0.819   1.235  0.2860  0.3799  0.2590
16984TIP3    H172367   3.808   0.811   1.194  0.9687  1.3406  1.4607
16984TIP3    H272368   3.669   0.751   1.193  1.7475 -0.5087 -0.1934
16985TIP3   OH272369   0.500   6.449   6.492  0.7947  0.0986  0.3840
16985TIP3    H172370   0.410   6.417   6.501  0.1465  1.5606 -0.6146
16985TIP3    H272371   0.536   6.398   6.418 -0.1900  1.5236 -1.1161
16986TIP3   OH272372   6.616   1.880   4.648 -0.2669  0.1149 -0.4693
16986TIP3    H172373   6.585   1.803   4.695 -1.8947  1.8539  1.3880
16986TIP3    H272374   6.711   1.868   4.642 -0.0452 -0.3168  3.0198
16987TIP3   OH272375   2.099   6.042   3.023  0.0912 -0.0263  0.2328
16987TIP3    H172376   2.102   6.106   3.094  2.2325  1.9174 -1.5066
16987TIP3    H272377   2.166   5.978   3.045  0.2870  0.1996  0.2962
16988TIP3   OH272378   5.400   1.542   5.725  0.7408 -0.4158  0.7619
16988TIP3    H172379   5.375   1.558   5.634  2.1830 -0.1482  0.4107
16988TIP3    H272380   5.436   1.454   5.726  0.0541 -0.7031  1.2269
16989TIP3   OH272381   1.069   1.086   2.610 -0.0436  0.6203  0.0324
16989TIP3    H172382   1.140   1.100   2.673 -0.5982 -0.3120  0.8813
16989TIP3    H272383   0.998   1.048   2.662 -1.6271  2.6664 -0.5459
16990TIP3   OH272384   4.611   0.628   3.718 -0.4583 -0.5808 -0.6426
16990TIP3    H172385   4.562   0.643   3.638 -0.2444 -2.0277 -1.0543
16990TIP3    H272386   4.683   0.691   3.714 -2.5974  2.0662  0.2996
16991TIP3   OH272387   4.978   3.821  16.994 -0.4116  0.2283  0.2080
16991TIP3    H172388   5.018   3.882  16.932 -1.0864  2.2700  1.7396
16991TIP3    H272389   4.932   3.757  16.938  1.9428 -0.0801 -1.4623
16992TIP3   OH272390   1.478   1.811   3.705  0.4264 -0.4960 -0.4378
16992TIP3    H172391   1.408   1.747   3.714  0.3351 -0.7194 -2.4387
16992TIP3    H272392   1.436   1.888   3.667  0.9638 -0.0741 -0.1853
16993TIP3   OH272393   3.054   3.109   0.583  0.0781  0.9071 -0.2373
16993TIP3    H172394   2.977   3.146   0.540 -0.1453 -0.8456 -1.3992
16993TIP3    H272395   3.077   3.033   0.530 -0.1788 -1.3028  2.7133
16994TIP3   OH272396   0.988   4.849   1.809  0.4129  0.4119 -0.2560
16994TIP3    H172397   0.946   4.763   1.800 -0.2692  0.8286 -1.1772
16994TIP3    H272398   0.935   4.907   1.753  0.2739  1.6439  1.1278
16995TIP3   OH272399   0.377   5.392  12.135 -0.3506  0.0595  0.0147
16995TIP3    H172400   0.429   5.317  12.164 -1.7577 -1.1788 -0.5806
16995TIP3    H272401   0.406   5.465  12.190  3.0615 -0.2208 -1.2792
16996TIP3   OH272402   6.463   1.811  12.807 -0.9607 -0.4561  0.2816
16996TIP3    H172403   6.414   1.826  12.726  2.0333  0.2063 -1.4882
16996TIP3    H272404   6.491   1.719  12.801 -1.1811 -0.5582  0.8114
16997TIP3   OH272405   4.553   6.263  15.322  0.4017 -0.6616  0.4391
16997TIP3    H172406   4.467   6.254  15.362 -0.5939 -0.1211 -1.4671
16997TIP3    H272407   4.564   6.185  15.268 -0.8658  1.2633 -2.7735
16998TIP3   OH272408   4.735   4.421   3.969  0.1136 -0.4660  0.4217
16998TIP3    H172409   4.661   4.361   3.970 -0.1885 -0.0871  1.2271
16998TIP3    H272410   4.760   4.429   4.061  0.3791  0.3614  0.2795
16999TIP3   OH272411   6.404   6.153   1.888 -0.1443  0.9736  0.0726
16999TIP3    H172412   6.472   6.093   1.860 -0.1718  1.4219 -0.9909
16999TIP3    H272413   6.339   6.150   1.818 -0.4229  1.7978  0.2822
17000TIP3   OH272414   5.268   2.424   3.609  0.3112 -0.0990  0.0621
17000TIP3    H172415   5.188   2.373   3.619  0.2018 -0.4031 -2.2658
17000TIP3    H272416   5.276   2.440   3.516  1.8068  1.8396  0.4914
17001TIP3   OH272417   2.217   3.058   3.220 -0.7090 -0.5347 -0.9193
17001TIP3    H172418   2.274   3.039   3.145 -0.1182  0.8033 -0.8086
17001TIP3    H272419   2.231   3.151   3.238 -1.1027 -0.7717  0.6397
17002TIP3   OH272420   1.886   4.664   0.249  0.3988 -0.5314 -0.0543
17002TIP3    H172421   1.920   4.594   0.194 -0.1230 -1.5095  0.8384
17002TIP3    H272422   1.900   4.744   0.199  0.7007 -1.3152 -1.2235
17003TIP3   OH272423   6.673   0.423   5.004  0.7867  0.0388  0.1761
17003TIP3    H172424   6.583   0.457   4.999  1.2040  1.1133 -0.1235
17003TIP3    H272425   6.719   0.485   5.061  1.3626 -0.4523  0.2452
17004TIP3   OH272426   4.693   6.465   2.283  0.2498 -0.2706 -0.3409
17004TIP3    H172427   4.655   6.514   2.356  0.5676 -1.5126  0.6810
17004TIP3    H272428   4.741   6.530   2.232 -0.3614  0.6886  0.2927
17005TIP3   OH272429   2.124   0.930  10.804 -0.0544 -0.0418 -0.6664
17005TIP3    H172430   2.176   1.006  10.779 -0.3420 -0.3071 -2.0837
17005TIP3    H272431   2.066   0.914  10.730 -0.0643 -1.5830 -0.3580
17006TIP3   OH272432   2.773   3.999   0.311 -0.3098 -0.0924 -0.0984
17006TIP3    H172433   2.778   3.941   0.388 -1.6484 -1.4464 -1.0083
17006TIP3    H272434   2.858   4.043   0.310  0.6090 -1.7589  0.8421
17007TIP3   OH272435   3.611   4.548  12.552 -0.6210  0.5121  0.2857
17007TIP3    H172436   3.699   4.586  12.555  0.0811 -1.0957  0.6378
17007TIP3    H272437   3.579   4.569  12.464  1.0499 -0.9356 -0.6861
17008TIP3   OH272438   2.689   3.503   0.519  0.2234  0.1164  0.4297
17008TIP3    H172439   2.682   3.586   0.567 -0.8037 -0.1017  0.6782
17008TIP3    H272440   2.658   3.437   0.581 -1.8528 -0.0721 -0.7787
17009TIP3   OH272441   3.242   3.770  14.390  0.3599 -0.2974  0.0661
17009TIP3    H172442   3.196   3.735  14.313  0.8262  0.4790 -0.5758
17009TIP3    H272443   3.304   3.833  14.354 -0.6627  1.4031  1.2207
17010TIP3   OH272444   6.291   1.099  17.168  0.2414 -0.2060 -0.3495
17010TIP3    H172445   6.322   1.107  17.078  0.3405  1.2450 -0.1991
17010TIP3    H272446   6.341   1.165  17.216 -1.5946  0.7432  0.2822
17011TIP3   OH272447   2.371   2.228  15.439 -0.2885 -0.0315  0.3242
17011TIP3    H172448   2.295   2.217  15.382  0.0086  1.1849 -0.3233
17011TIP3    H272449   2.334   2.233  15.528 -0.6965 -2.6443  0.3490
17012TIP3   OH272450   1.859   4.931  11.370  0.0573  0.5169 -0.0744
17012TIP3    H172451   1.950   4.947  11.346  0.4903 -0.9169  0.5147
17012TIP3    H272452   1.818   4.897  11.291  0.4966 -0.5103  0.1246
17013TIP3   OH272453   1.691   1.392   5.818  0.2109  1.1438  0.6804
17013TIP3    H172454   1.741   1.328   5.868 -0.9665  1.6135  2.4963
17013TIP3    H272455   1.706   1.475   5.863 -0.7825  1.5988  0.1900
17014TIP3   OH272456   3.839   0.842  12.072  0.0988 -0.1595  0.7364
17014TIP3    H172457   3.932   0.833  12.051 -0.0754 -1.3623  0.4077
17014TIP3    H272458   3.822   0.936  12.069  1.1536  0.0146  0.1125
17015TIP3   OH272459   3.575   5.160  14.780  0.0572 -0.4673 -0.4797
17015TIP3    H172460   3.561   5.247  14.741 -2.5673 -0.7158 -0.1817
17015TIP3    H272461   3.626   5.178  14.860  0.3189  0.6937 -0.8938
17016TIP3   OH272462   3.473   3.982   3.282 -0.1817 -0.0906 -0.1304
17016TIP3    H172463   3.391   3.937   3.260  0.0951 -0.3820 -0.5890
17016TIP3    H272464   3.540   3.930   3.238  0.0515  1.3400 -1.4922
17017TIP3   OH272465   2.949   4.065  13.286 -0.1413 -0.4009 -0.5671
17017TIP3    H172466   2.993   4.139  13.243 -1.5138  1.8785  1.8119
17017TIP3    H272467   3.020   4.006  13.311  1.0290  0.3136 -2.0965
17018TIP3   OH272468   3.826   0.672   0.460  0.7300  0.9381  0.6762
17018TIP3    H172469   3.776   0.720   0.394  1.1481  1.1246  0.4948
17018TIP3    H272470   3.818   0.726   0.540  0.4211  0.8319  0.7175
17019TIP3   OH272471   0.641   5.463   5.592  0.0981  0.3204  0.9883
17019TIP3    H172472   0.686   5.535   5.548  1.3332 -0.7905  0.4125
17019TIP3    H272473   0.557   5.500   5.617 -0.1323  1.3448 -1.1827
17020TIP3   OH272474   6.013   0.770  10.929  0.1383  0.0328 -0.0657
17020TIP3    H172475   6.032   0.856  10.892  0.6248 -0.6970 -1.5651
17020TIP3    H272476   6.097   0.723  10.925  0.0073 -0.3288  1.2473
17021TIP3   OH272477   1.789   0.483   4.478 -0.0484  0.0269  0.8651
17021TIP3    H172478   1.839   0.422   4.532 -0.7385  0.2574  1.7808
17021TIP3    H272479   1.698   0.455   4.489 -0.1947  0.0564 -0.2110
17022TIP3   OH272480   2.697   1.028  17.232 -0.5420  0.4831 -0.2950
17022TIP3    H172481   2.700   0.942  17.191 -2.0247  0.0640  0.4457
17022TIP3    H272482   2.760   1.080  17.182  1.7877 -1.5240  0.4483
17023TIP3   OH272483   6.611   1.048  14.443 -0.0780  0.4042 -0.3345
17023TIP3    H172484   6.572   1.130  14.413 -1.7468  0.6835  2.4062
17023TIP3    H272485   6.620   1.059  14.537  0.6470 -2.1778 -0.0729
17024TIP3   OH272486   0.860   3.074   0.611 -0.3343 -0.1003  0.5290
17024TIP3    H172487   0.873   3.157   0.657  0.9225  0.8180 -1.4392
17024TIP3    H272488   0.898   3.009   0.670  0.2724  0.9235  1.3036
17025TIP3   OH272489   6.419   0.149   3.826 -0.6045 -0.0265 -0.6256
17025TIP3    H172490   6.507   0.149   3.863 -1.3219 -0.1522  1.0912
17025TIP3    H272491   6.429   0.100   3.743  0.6689 -1.1958  0.1850
17026TIP3   OH272492   1.671   2.959  13.798 -0.2071  0.7022  0.6432
17026TIP3    H172493   1.670   3.033  13.859  0.4478 -0.1235  1.6853
17026TIP3    H272494   1.581   2.927  13.797 -0.5968  1.7860 -0.1714
17027TIP3   OH272495   1.816   4.306   3.137  0.7208  0.0873  0.1828
17027TIP3    H172496   1.754   4.242   3.100  0.6012  0.7004 -0.6915
17027TIP3    H272497   1.788   4.315   3.228  0.9489 -1.3608  0.4103
17028TIP3   OH272498   2.757   4.983   0.819 -0.1770  0.2191  0.3026
17028TIP3    H172499   2.731   4.921   0.886 -0.6590 -2.0427 -1.9210
17028TIP3    H272500   2.703   4.961   0.743  1.5207  1.6316 -1.3679
17029TIP3   OH272501   6.014   0.751  15.299 -0.2890 -0.0136 -0.3811
17029TIP3    H172502   5.956   0.728  15.226 -0.3662  1.2648 -0.7339
17029TIP3    H272503   6.091   0.789  15.257  0.7164 -1.4788  0.0989
17030TIP3   OH272504   1.681   0.207   1.390  0.0757 -0.0466 -0.0767
17030TIP3    H172505   1.736   0.255   1.452  2.0955 -2.2308 -0.1154
17030TIP3    H272506   1.711   0.236   1.304 -0.9427  1.0220 -0.0884
17031TIP3   OH272507   4.626   0.164   0.424  0.4599  0.3941  0.3195
17031TIP3    H172508   4.599   0.231   0.361  0.3311 -1.8381 -2.0554
17031TIP3    H272509   4.719   0.150   0.405  0.3970 -0.3497  0.5730
17032TIP3   OH272510   5.277   2.305  10.399  0.3364  0.0122 -0.7624
17032TIP3    H172511   5.244   2.378  10.348  0.0631  0.3048 -0.1763
17032TIP3    H272512   5.322   2.346  10.473 -0.5133 -0.4122  0.0067
17033TIP3   OH272513   5.877   2.914   0.100  0.2497 -0.2014 -0.2739
17033TIP3    H172514   5.855   2.856   0.027 -2.7420  1.2117 -0.5381
17033TIP3    H272515   5.881   3.001   0.061  2.2953  0.1338  0.5940
17034TIP3   OH272516   3.710   2.323  16.825  0.2507 -0.3915 -0.2494
17034TIP3    H172517   3.792   2.312  16.871  0.1791 -3.5458 -0.7758
17034TIP3    H272518   3.643   2.291  16.886 -0.2066 -1.0853 -1.0929
17035TIP3   OH272519   3.482   0.971  15.242 -0.0653 -0.4684 -0.3214
17035TIP3    H172520   3.466   0.882  15.210 -1.8285 -0.0523 -0.6857
17035TIP3    H272521   3.466   0.965  15.337  0.8305 -0.7611 -0.1906
17036TIP3   OH272522   1.650   1.071   1.622  0.0752 -0.2526 -0.2841
17036TIP3    H172523   1.643   0.976   1.631  3.0086 -0.5944 -1.2405
17036TIP3    H272524   1.640   1.087   1.529  0.5856  0.2656 -0.2544
17037TIP3   OH272525   2.476   2.570  11.158 -0.2522 -0.2309 -0.3966
17037TIP3    H172526   2.421   2.564  11.080 -0.0547 -0.8647 -0.4852
17037TIP3    H272527   2.476   2.482  11.195 -1.0510  0.2565  0.8049
17038TIP3   OH272528   0.036   5.572   5.736  0.3327 -0.2943  0.1283
17038TIP3    H172529   0.082   5.553   5.654  2.0539  0.6823  0.8532
17038TIP3    H272530   0.023   5.487   5.777  1.6671 -0.5694 -0.0033
17039TIP3   OH272531   0.970   6.228  16.878  0.3637  0.2682  0.6397
17039TIP3    H172532   0.938   6.145  16.914 -0.4101  0.0052 -0.6214
17039TIP3    H272533   1.064   6.226  16.892  1.1859 -3.3730 -4.4412
17040TIP3   OH272534   5.116   5.888  16.936 -0.5533  0.1656  0.2012
17040TIP3    H172535   5.176   5.852  17.002  0.1120  0.6284 -0.1471
17040TIP3    H272536   5.069   5.958  16.981 -2.0168 -1.2796  0.9463
17041TIP3   OH272537   0.889   5.992   2.531 -0.1172  0.0569 -0.4134
17041TIP3    H172538   0.916   6.029   2.615  2.6463 -0.4961 -1.0321
17041TIP3    H272539   0.805   5.950   2.550  0.2034  0.3923  1.9389
17042TIP3   OH272540   5.094   1.142   3.414  0.0387  0.4818  0.2279
17042TIP3    H172541   5.135   1.061   3.447  0.6511  1.0243  0.8048
17042TIP3    H272542   5.158   1.210   3.432 -0.5935  1.1434 -0.0181
17043TIP3   OH272543   1.061   5.721  15.357 -0.1104  0.3148  0.0875
17043TIP3    H172544   0.995   5.787  15.338 -0.3220  0.2504  0.5904
17043TIP3    H272545   1.089   5.739  15.447  0.7898  0.5426 -0.2319
17044TIP3   OH272546   6.127   2.921   0.311 -0.3026 -0.0341 -0.9209
17044TIP3    H172547   6.129   3.016   0.300 -0.8576  0.3254  1.7386
17044TIP3    H272548   6.062   2.906   0.380  1.2957 -2.1842  0.1797
17045TIP3   OH272549   0.932   3.777  13.500  0.3309  0.2133 -0.1472
17045TIP3    H172550   0.848   3.737  13.520  0.2505  0.2321 -0.4358
17045TIP3    H272551   0.983   3.770  13.581  0.4469 -0.8004 -0.3014
17046TIP3   OH272552   1.814   4.265  16.344  0.2909 -0.6376 -0.4983
17046TIP3    H172553   1.858   4.343  16.378  0.9277 -0.9021 -0.7190
17046TIP3    H272554   1.727   4.267  16.385  0.2911  0.2069 -0.5345
17047TIP3   OH272555   4.259   4.139   3.065  0.3026 -0.7961  0.1604
17047TIP3    H172556   4.251   4.063   3.121  0.3610 -0.8469  0.1004
17047TIP3    H272557   4.228   4.109   2.979  3.3160 -1.6714 -0.6891
17048TIP3   OH272558   1.926   6.667  14.809 -0.0214  0.3979  0.1110
17048TIP3    H172559   1.923   6.579  14.770  0.5798  0.2942  0.3021
17048TIP3    H272560   1.973   6.655  14.891 -0.3181  0.8239  0.3411
17049TIP3   OH272561   4.380   3.690   6.012 -0.5125 -0.0464 -0.1548
17049TIP3    H172562   4.441   3.670   6.083  1.4382  1.9597 -1.2153
17049TIP3    H272563   4.298   3.647   6.039  1.3579 -2.9254  1.1966
17050TIP3   OH272564   6.786   0.279   3.782 -0.6798 -0.0314 -0.1077
17050TIP3    H172565   6.780   0.187   3.808 -0.0986  0.3020  1.2691
17050TIP3    H272566   6.866   0.310   3.823 -0.3821  0.8569 -1.3480
17051TIP3   OH272567   2.853   0.483   2.114  0.5288  0.0416  0.7232
17051TIP3    H172568   2.844   0.487   2.019 -1.3672 -0.2327  0.8703
17051TIP3    H272569   2.817   0.566   2.145 -0.6087 -0.6541  1.3019
17052TIP3   OH272570   3.538   2.616   1.816  0.2718 -0.6484  0.0149
17052TIP3    H172571   3.623   2.573   1.810  1.1169  0.2431  3.9785
17052TIP3    H272572   3.475   2.544   1.824  0.7644 -1.2862 -1.7173
17053TIP3   OH272573   3.417   0.406   1.007  0.2192 -0.2287  0.3528
17053TIP3    H172574   3.332   0.361   1.012 -0.0417  0.2933  0.7747
17053TIP3    H272575   3.471   0.350   0.952 -0.1458 -0.9860  0.7527
17054TIP3   OH272576   6.570   0.280  10.916  0.0298  0.3100 -0.5295
17054TIP3    H172577   6.483   0.245  10.897 -0.5030  1.0727  0.4499
17054TIP3    H272578   6.584   0.260  11.009  0.4523  1.1293 -0.4121
17055TIP3   OH272579   5.548   4.561   2.321 -0.6826  0.0194 -0.2816
17055TIP3    H172580   5.513   4.613   2.249 -2.2292 -0.5830  0.0165
17055TIP3    H272581   5.494   4.482   2.323 -0.4684 -0.1109  1.3324
17056TIP3   OH272582   6.470   1.983  16.384  0.0073 -0.6406 -0.2732
17056TIP3    H172583   6.562   1.958  16.383  0.3197  0.4789 -0.3782
17056TIP3    H272584   6.460   2.033  16.465 -0.1899  0.3755 -0.9171
17057TIP3   OH272585   6.134   0.223  12.204 -0.0549 -0.3027 -0.0547
17057TIP3    H172586   6.161   0.183  12.121  0.5315 -2.2026  1.0264
17057TIP3    H272587   6.209   0.212  12.262 -0.3688  1.2473  0.6818
17058TIP3   OH272588   3.692   1.022  16.936  0.8015 -0.2824  0.2878
17058TIP3    H172589   3.646   1.026  16.852 -0.3015 -2.9130  0.7096
17058TIP3    H272590   3.681   1.109  16.974 -0.6310  0.2430 -1.2768
17059TIP3   OH272591   5.286   3.371   5.395  0.6306 -0.3495 -0.4245
17059TIP3    H172592   5.229   3.335   5.464 -0.9096 -1.0248 -2.0165
17059TIP3    H272593   5.342   3.298   5.371  1.3139 -0.0522  0.2438
17060TIP3   OH272594   2.113   5.979  12.508  0.3223  0.5967 -0.1131
17060TIP3    H172595   2.080   6.022  12.429  1.3267  1.6230  0.0125
17060TIP3    H272596   2.208   5.978  12.496  0.3061 -1.8767 -0.2471
17061TIP3   OH272597   3.841   4.645  16.589 -0.0960  0.1139 -0.0894
17061TIP3    H172598   3.903   4.575  16.610 -0.4674 -0.0064  0.6202
17061TIP3    H272599   3.757   4.612  16.620 -0.4170  0.5345 -0.5020
17062TIP3   OH272600   0.511   3.521  17.194  0.4652 -0.1107 -0.4074
17062TIP3    H172601   0.490   3.609  17.226  1.5612 -0.3148  0.9772
17062TIP3    H272602   0.589   3.496  17.245 -0.7130 -2.4764  0.3072
17063TIP3   OH272603   2.040   1.122   1.425  0.8770 -0.3562 -0.2725
17063TIP3    H172604   2.007   1.207   1.454  0.3147 -0.7034  0.1217
17063TIP3    H272605   2.012   1.115   1.334  1.3826  0.1088 -0.4637
17064TIP3   OH272606   4.174   3.620   5.454  0.4399  0.3423  0.5257
17064TIP3    H172607   4.095   3.566   5.452 -0.3109  1.4563 -0.6250
17064TIP3    H272608   4.142   3.709   5.468  1.5295  0.7505  0.4997
17065TIP3   OH272609   5.229   5.224  13.626 -0.0489 -0.2734  0.3121
17065TIP3    H172610   5.312   5.177  13.635  1.1845  1.6376 -0.6819
17065TIP3    H272611   5.252   5.306  13.581 -2.5763 -0.0168 -0.6429
17066TIP3   OH272612   3.787   1.519   5.985 -0.3489 -0.6442 -0.5612
17066TIP3    H172613   3.712   1.491   6.038  0.2581 -1.1096  0.0604
17066TIP3    H272614   3.842   1.441   5.978  2.0936  0.7139  2.4397
17067TIP3   OH272615   3.209   4.393  12.904  0.2247  0.4966 -0.6730
17067TIP3    H172616   3.146   4.370  12.973  0.7898  0.5867 -0.1265
17067TIP3    H272617   3.201   4.323  12.840  0.7335 -0.3412  0.1810
17068TIP3   OH272618   6.090   5.225  16.186  0.1774 -0.5034 -0.5911
17068TIP3    H172619   6.136   5.161  16.131  0.2456 -0.7322 -0.2700
17068TIP3    H272620   6.040   5.171  16.247 -0.0656 -0.2496 -0.5666
17069TIP3   OH272621   2.714   4.519   5.757  0.0341 -0.4386 -0.2808
17069TIP3    H172622   2.794   4.467   5.757 -0.5886 -1.4368 -1.0573
17069TIP3    H272623   2.643   4.454   5.762 -0.7360  0.3879 -0.2121
17070TIP3   OH272624   4.545   3.638  14.033 -0.1865  0.4742  0.2311
17070TIP3    H172625   4.601   3.706  13.996 -1.7130  1.1968 -0.8279
17070TIP3    H272626   4.592   3.608  14.110  0.6697  2.5178  0.5513
17071TIP3   OH272627   1.400   4.743   4.161  0.5452  0.3288  0.2323
17071TIP3    H172628   1.346   4.821   4.148  1.2927  0.6738 -0.8227
17071TIP3    H272629   1.464   4.768   4.227 -0.8117 -0.2043  1.7821
17072TIP3   OH272630   5.975   5.777  13.682 -0.0397 -0.2583 -0.6635
17072TIP3    H172631   6.025   5.724  13.620 -1.4054 -0.5074 -1.5779
17072TIP3    H272632   5.983   5.866  13.648 -0.1714 -0.2924 -0.7859
17073TIP3   OH272633   4.364   5.258   6.136 -0.4437  0.1861 -0.1379
17073TIP3    H172634   4.378   5.194   6.067  0.2981 -0.6329  0.7728
17073TIP3    H272635   4.399   5.217   6.215  0.2457  1.7925  0.4107
17074TIP3   OH272636   5.014   6.384  15.365  0.5161  0.0307  0.5148
17074TIP3    H172637   5.104   6.363  15.339 -0.3909 -2.2493 -0.8790
17074TIP3    H272638   4.982   6.440  15.294  1.3830  2.4368  1.9286
17075TIP3   OH272639   1.181   2.986   6.765 -0.1539  0.2663  0.2754
17075TIP3    H172640   1.123   2.912   6.782  1.1397 -0.9624 -0.5725
17075TIP3    H272641   1.160   3.013   6.675  2.2420 -1.7291 -0.9167
17076TIP3   OH272642   4.935   5.588   5.778  0.2954 -0.2562  0.1141
17076TIP3    H172643   4.933   5.529   5.702 -0.4316 -0.6335  0.4283
17076TIP3    H272644   4.891   5.539   5.847  1.3880 -0.1137  0.9305
17077TIP3   OH272645   4.080   1.224  14.524 -0.2227  0.4440  0.6103
17077TIP3    H172646   4.002   1.193  14.570  0.0003 -0.1494  0.5955
17077TIP3    H272647   4.049   1.297  14.470 -0.8966 -0.2198  0.0900
17078TIP3   OH272648   0.609   4.884  13.532 -0.2309  0.1648  0.6904
17078TIP3    H172649   0.565   4.803  13.560 -1.1388  0.6353  0.6589
17078TIP3    H272650   0.592   4.889  13.438 -0.0906  0.3366  0.6734
17079TIP3   OH272651   3.394   0.172   1.467 -0.1528 -0.1942  0.6614
17079TIP3    H172652   3.476   0.219   1.480 -0.5062  1.5334 -2.8131
17079TIP3    H272653   3.421   0.085   1.435  0.3170 -0.0546  0.6716
17080TIP3   OH272654   6.295   4.733  12.424  0.0416 -0.1105 -0.4602
17080TIP3    H172655   6.368   4.729  12.485 -0.0811 -0.8375 -0.3543
17080TIP3    H272656   6.220   4.759  12.478  0.0149 -0.3589 -0.3795
17081TIP3   OH272657   1.622   1.402   3.358 -0.2988 -0.4298  0.0497
17081TIP3    H172658   1.691   1.398   3.292 -0.1730 -2.6038  0.2753
17081TIP3    H272659   1.661   1.452   3.430  1.0163 -1.5856  0.1556
17082TIP3   OH272660   0.803   4.301  16.872 -0.1937 -0.3057  0.2660
17082TIP3    H172661   0.757   4.380  16.844 -0.6803 -0.6760  0.0007
17082TIP3    H272662   0.787   4.238  16.802  0.6561 -0.4663  0.2131
17083TIP3   OH272663   0.075   5.698  17.166 -0.3420 -0.2079 -0.1524
17083TIP3    H172664   0.067   5.622  17.223  1.9315  2.0322  3.3029
17083TIP3    H272665   0.164   5.692  17.130  0.5708  1.7030  1.6299
17084TIP3   OH272666   5.561   5.273   5.548 -0.0989  0.9419  0.4216
17084TIP3    H172667   5.555   5.192   5.497 -0.1024  2.7869 -2.6919
17084TIP3    H272668   5.649   5.307   5.529 -0.7849  2.6145  0.1428
17085TIP3   OH272669   2.493   6.462   3.949 -0.2418 -0.4812  0.6363
17085TIP3    H172670   2.405   6.425   3.962  0.4593 -2.8966 -1.1065
17085TIP3    H272671   2.525   6.481   4.037 -0.7660 -3.8347  1.6159
17086TIP3   OH272672   4.434   3.361   3.055 -0.1800 -0.6623  0.3505
17086TIP3    H172673   4.389   3.403   3.127 -0.6175 -0.6036  0.0417
17086TIP3    H272674   4.367   3.347   2.989 -0.1776 -2.3771  0.6785
17087TIP3   OH272675   0.378   0.465   5.834  0.3536 -0.2518  0.1261
17087TIP3    H172676   0.375   0.515   5.916  2.3143  0.6867 -0.3374
17087TIP3    H272677   0.393   0.374   5.862  0.1864 -0.0571  0.8501
17088TIP3   OH272678   2.632   4.563  14.516 -0.5184  0.2616  0.0884
17088TIP3    H172679   2.623   4.649  14.558  0.3445  0.3722  0.0663
17088TIP3    H272680   2.618   4.581  14.423 -1.1628  0.2344  0.1782
17089TIP3   OH272681   2.070   4.633  15.331 -0.2289 -0.1365  0.2626
17089TIP3    H172682   2.119   4.618  15.250 -0.1148  1.3030  0.0532
17089TIP3    H272683   2.003   4.564  15.332  0.2744 -0.6440 -0.6527
17090TIP3   OH272684   0.647   5.094   3.609  0.1125 -0.1258  0.2232
17090TIP3    H172685   0.600   5.010   3.603  1.7489 -1.0916  0.5890
17090TIP3    H272686   0.647   5.114   3.703  2.0346 -1.0889  0.4523
17091TIP3   OH272687   4.958   2.028   6.085  0.7479 -0.6917  0.0073
17091TIP3    H172688   4.894   2.043   6.015  0.5076 -0.9449  0.1711
17091TIP3    H272689   5.019   1.965   6.048 -0.8189 -2.7918  0.9045
17092TIP3   OH272690   6.482   2.920  14.210  0.6534 -0.0905  0.7061
17092TIP3    H172691   6.429   2.845  14.236  3.0304 -1.8710  0.5770
17092TIP3    H272692   6.572   2.889  14.216  1.7178  2.8862  1.0302
17093TIP3   OH272693   1.776   2.493  13.014 -0.5411 -0.1735 -0.1754
17093TIP3    H172694   1.689   2.505  12.976 -1.1339 -0.8741  0.9308
17093TIP3    H272695   1.764   2.514  13.107  0.5204 -0.0620 -0.0586
17094TIP3   OH272696   3.762   1.512  16.567  0.1545  0.4644 -0.1064
17094TIP3    H172697   3.686   1.551  16.523 -0.1120  0.5224  0.4001
17094TIP3    H272698   3.774   1.565  16.646  1.2988  1.0368 -0.6532
17095TIP3   OH272699   4.312   3.783  11.436  0.1574  0.1241  0.0692
17095TIP3    H172700   4.270   3.868  11.450  0.6652  0.2183  1.0711
17095TIP3    H272701   4.246   3.732  11.389 -0.4790  0.7925  0.2098
17096TIP3   OH272702   6.306   1.009  13.633  0.2321  0.4970 -0.2128
17096TIP3    H172703   6.327   1.080  13.572  1.5573 -1.2006 -1.7895
17096TIP3    H272704   6.247   0.952  13.583  0.5745 -0.4231  0.4293
17097TIP3   OH272705   5.212   4.425  13.136 -0.6403 -0.1041 -1.1456
17097TIP3    H172706   5.219   4.458  13.047 -1.5861  0.7687 -0.9068
17097TIP3    H272707   5.147   4.355  13.132 -1.7567  0.9078 -0.8844
17098TIP3   OH272708   1.478   4.951  12.034  0.3501 -0.0088 -0.6659
17098TIP3    H172709   1.552   4.900  12.067  1.5285  1.4517 -1.0024
17098TIP3    H272710   1.503   5.042  12.049 -1.0201  0.5276 -1.5517
17099TIP3   OH272711   6.634   1.299   4.945 -0.4064  0.6618  0.5348
17099TIP3    H172712   6.591   1.376   4.908 -0.2469  0.4335 -0.1179
17099TIP3    H272713   6.673   1.331   5.027 -0.3993  1.2551  0.2987
17100TIP3   OH272714   6.532   1.058   5.770  0.1262  0.4877 -0.2744
17100TIP3    H172715   6.621   1.039   5.801  0.7588 -0.2227 -2.4243
17100TIP3    H272716   6.478   1.054   5.849  1.4326 -2.7931  0.5532
17101TIP3   OH272717   0.083   3.016  15.412  0.9027 -0.4817  0.1061
17101TIP3    H172718   0.148   3.086  15.404  0.6646 -0.2800 -0.0637
17101TIP3    H272719   0.000   3.057  15.387  0.5980 -0.5711  0.9847
17102TIP3   OH272720   2.705   4.904  13.831  0.3595 -0.8455 -0.0291
17102TIP3    H172721   2.734   4.978  13.777  1.0715 -1.6919 -0.8173
17102TIP3    H272722   2.611   4.899  13.815  0.4350 -0.5971 -0.5799
17103TIP3   OH272723   4.182   3.284  15.953  0.6078 -0.0013 -0.4517
17103TIP3    H172724   4.229   3.351  16.002 -1.3482  1.4163 -0.4487
17103TIP3    H272725   4.093   3.319  15.943 -0.0575 -1.9426 -1.7242
17104TIP3   OH272726   4.556   0.589  14.736 -0.3411 -0.2741  0.2786
17104TIP3    H172727   4.498   0.557  14.668 -0.0098 -3.0229  1.2062
17104TIP3    H272728   4.626   0.635  14.689  0.1338 -2.5104 -1.3082
17105TIP3   OH272729   0.756   3.972  11.731  0.0434 -0.0727  0.0964
17105TIP3    H172730   0.828   3.965  11.668 -0.4515  0.3875 -0.5204
17105TIP3    H272731   0.678   3.945  11.683  0.1900 -3.2765  1.5360
17106TIP3   OH272732   2.375   1.336  14.251  0.2240 -0.0509  0.2658
17106TIP3    H172733   2.394   1.275  14.322  1.7161 -0.1804 -0.2304
17106TIP3    H272734   2.457   1.383  14.237  0.0618 -0.2847 -1.6275
17107TIP3   OH272735   4.001   3.101   2.380 -0.0337  0.2922 -0.3171
17107TIP3    H172736   3.932   3.164   2.400  0.2567  0.9891 -1.4623
17107TIP3    H272737   4.057   3.102   2.457 -0.7084  0.5221  0.1752
17108TIP3   OH272738   1.588   5.141  14.761  0.5018  0.8777  0.1792
17108TIP3    H172739   1.543   5.098  14.834  1.3840  1.4408  1.0568
17108TIP3    H272740   1.574   5.234  14.776 -1.8360  0.9623 -1.9926
17109TIP3   OH272741   1.366   5.019   1.392 -0.1407  0.4271  0.4475
17109TIP3    H172742   1.315   4.973   1.458 -0.7537  0.4660  0.0098
17109TIP3    H272743   1.353   4.967   1.312  0.4767  0.4549  0.3280
17110TIP3   OH272744   4.264   1.324  13.071  0.0467  0.0824  0.4749
17110TIP3    H172745   4.253   1.386  12.998  0.9631 -0.2875  0.0109
17110TIP3    H272746   4.175   1.297  13.093 -0.1160 -2.0509 -2.4564
17111TIP3   OH272747   4.841   2.297  11.114 -0.0184 -0.6741 -0.4010
17111TIP3    H172748   4.883   2.273  11.031 -0.6290 -1.2955 -0.5322
17111TIP3    H272749   4.886   2.244  11.179 -1.4182 -2.2391 -0.7008
17112TIP3   OH272750   1.076   0.116  16.832 -0.0039 -0.0764  0.0572
17112TIP3    H172751   1.029   0.052  16.885  0.4766  1.1331  1.9960
17112TIP3    H272752   1.045   0.100  16.742 -2.1298 -1.0113  0.9166
17113TIP3   OH272753   2.118   3.304   5.687 -0.0378 -0.0756 -0.0599
17113TIP3    H172754   2.037   3.350   5.710 -0.1947 -1.0557  1.3697
17113TIP3    H272755   2.180   3.330   5.755  0.2150 -1.0427  0.0754
17114TIP3   OH272756   1.069   6.717  10.754 -0.0274  0.2312 -0.1680
17114TIP3    H172757   1.012   6.777  10.705  0.1045  0.9405  0.5603
17114TIP3    H272758   1.154   6.760  10.757  0.1752 -0.1759  0.0188
17115TIP3   OH272759   3.461   5.010   2.812  0.0735 -0.1290  0.1693
17115TIP3    H172760   3.492   4.943   2.874 -0.8497 -0.5379  0.1893
17115TIP3    H272761   3.457   4.966   2.728  1.6810  0.5254 -0.2863
17116TIP3   OH272762   5.503   5.323  15.001  0.1989 -0.4651 -0.4292
17116TIP3    H172763   5.420   5.284  15.028  0.2165 -1.2952 -1.5430
17116TIP3    H272764   5.564   5.303  15.072 -0.8455  1.2736  1.0293
17117TIP3   OH272765   2.045   4.158   1.466 -0.4589  0.1069  0.4288
17117TIP3    H172766   1.955   4.126   1.468 -0.5877  0.4333 -0.0331
17117TIP3    H272767   2.038   4.246   1.429  0.0568  0.1094  0.3381
17118TIP3   OH272768   1.391   2.582   3.901  0.1606  0.4483  0.0121
17118TIP3    H172769   1.473   2.589   3.949  0.4478  4.1188 -0.8652
17118TIP3    H272770   1.404   2.510   3.839  2.3339  0.3645  0.5495
17119TIP3   OH272771   6.524   1.406  14.764  0.1164 -0.1678  0.0645
17119TIP3    H172772   6.446   1.382  14.815 -0.4645 -1.2953 -1.3465
17119TIP3    H272773   6.506   1.495  14.734 -1.5385 -1.1366 -1.9344
17120TIP3   OH272774   1.431   0.705   5.281 -0.8542  0.0420  0.5352
17120TIP3    H172775   1.388   0.682   5.363  0.0865  1.3494  1.4283
17120TIP3    H272776   1.378   0.665   5.213 -2.3009 -0.0898  1.7257
17121TIP3   OH272777   6.089   5.234  13.976 -0.1124 -0.4236  0.5089
17121TIP3    H172778   6.008   5.202  14.015 -0.2787  0.5265  0.9546
17121TIP3    H272779   6.126   5.158  13.931 -1.1613 -0.9006  0.4465
17122TIP3   OH272780   3.885   5.699   4.174 -0.8942  0.0387 -0.1307
17122TIP3    H172781   3.906   5.614   4.211  1.2613  0.9614  0.8393
17122TIP3    H272782   3.939   5.705   4.095 -1.2303  0.3947 -0.3338
17123TIP3   OH272783   0.203   0.593   5.653  0.0466  0.3070  0.3328
17123TIP3    H172784   0.259   0.663   5.618 -0.0111 -0.1645 -0.6926
17123TIP3    H272785   0.262   0.542   5.709  0.4139  0.3647 -0.0001
17124TIP3   OH272786   3.226   5.811   5.549 -0.3202 -0.1256  0.2379
17124TIP3    H172787   3.263   5.888   5.505  1.4230 -0.6075  0.8179
17124TIP3    H272788   3.248   5.823   5.641  0.1216 -1.4138  0.3068
17125TIP3   OH272789   0.727   0.824   1.051 -0.6490 -0.3248  0.0129
17125TIP3    H172790   0.761   0.839   0.963  0.6576 -2.0510  0.2060
17125TIP3    H272791   0.723   0.729   1.060 -2.9267 -0.1668  1.0195
17126TIP3   OH272792   0.730   1.442   4.414  0.2008  0.1688 -0.0937
17126TIP3    H172793   0.752   1.450   4.321  1.3814 -0.7462  0.1087
17126TIP3    H272794   0.782   1.510   4.457  0.6311 -0.2627  0.0632
17127TIP3   OH272795   5.194   0.641   0.326 -0.1896 -0.7952 -0.4693
17127TIP3    H172796   5.238   0.630   0.410 -1.1222 -0.0332  0.1320
17127TIP3    H272797   5.102   0.618   0.344 -1.1993  2.9956 -0.3156
17128TIP3   OH272798   2.115   6.669   1.902 -0.3167  0.3527  0.5421
17128TIP3    H172799   2.203   6.700   1.882  0.0101 -1.3173 -0.6349
17128TIP3    H272800   2.126   6.615   1.980 -0.0544 -1.0656 -0.4680
17129TIP3   OH272801   0.169   0.123   6.396 -0.1171  0.2278 -0.0877
17129TIP3    H172802   0.141   0.168   6.476  0.1083  1.6478 -0.7941
17129TIP3    H272803   0.247   0.074   6.421 -0.3301  0.2816  0.6748
17130TIP3   OH272804   6.299   6.658   5.321 -0.0847 -0.5431 -0.2764
17130TIP3    H172805   6.381   6.691   5.360 -0.3974 -0.1047  0.0158
17130TIP3    H272806   6.234   6.724   5.344 -0.3450 -0.4479 -1.2659
17131TIP3   OH272807   3.860   6.466   1.949  0.6997  0.5457 -0.3233
17131TIP3    H172808   3.764   6.463   1.954  0.6965  0.8748 -0.2040
17131TIP3    H272809   3.878   6.517   1.870  0.7825  1.6275  0.3921
17132TIP3   OH272810   3.063   0.748  13.379 -0.6550  0.6247  0.5717
17132TIP3    H172811   3.103   0.834  13.392 -0.0775  0.3035  0.9669
17132TIP3    H272812   3.113   0.709  13.306 -2.1063  1.3388 -0.8378
17133TIP3   OH272813   0.750   3.051   2.393 -0.5844 -0.1810 -0.0829
17133TIP3    H172814   0.678   3.029   2.452 -0.6729 -1.8049 -0.7552
17133TIP3    H272815   0.823   3.074   2.450 -0.2130 -3.1600  0.7350
17134TIP3   OH272816   2.299   2.551   1.498  0.2081  0.5558  1.0801
17134TIP3    H172817   2.266   2.462   1.510 -1.4653  1.0999  0.6935
17134TIP3    H272818   2.328   2.577   1.586 -1.1220  0.3270  1.6031
17135TIP3   OH272819   4.178   3.285  10.784  0.1418  0.1572 -0.2886
17135TIP3    H172820   4.206   3.337  10.709  1.7028 -0.3654 -0.0825
17135TIP3    H272821   4.189   3.194  10.756  0.4602 -0.0418  0.4718
17136TIP3   OH272822   3.245   3.864   5.034  0.2091  0.4352  0.4501
17136TIP3    H172823   3.213   3.953   5.017 -0.1891  0.0258 -1.0381
17136TIP3    H272824   3.181   3.808   4.991  0.9336 -0.5421  0.6392
17137TIP3   OH272825   1.376   5.032   0.767 -0.1668  0.5906 -0.1220
17137TIP3    H172826   1.325   4.952   0.779  1.2553 -0.1202  1.3725
17137TIP3    H272827   1.368   5.051   0.673  0.1279 -1.7376 -0.6531
17138TIP3   OH272828   4.050   6.037   2.256 -0.2743  0.0965 -0.3030
17138TIP3    H172829   3.993   6.087   2.197  0.7366 -0.0841 -1.4335
17138TIP3    H272830   4.116   6.100   2.285 -1.4646  0.4997  1.5977
17139TIP3   OH272831   0.361   1.860   4.549  0.0468 -0.9347 -0.2630
17139TIP3    H172832   0.432   1.880   4.609  2.1415 -1.5839 -2.4422
17139TIP3    H272833   0.367   1.927   4.481 -1.2328 -1.1810 -0.6370
17140TIP3   OH272834   1.683   3.362   4.233 -0.6371  0.0165 -0.1973
17140TIP3    H172835   1.657   3.410   4.155 -1.6514 -0.1205  0.0452
17140TIP3    H272836   1.777   3.380   4.243 -0.8505  1.3651 -0.5152
17141TIP3   OH272837   2.522   5.180  11.699  0.5699 -0.5007 -0.6573
17141TIP3    H172838   2.598   5.232  11.673 -0.9427  2.3530  0.3691
17141TIP3    H272839   2.451   5.212  11.644 -0.7849 -0.2023  1.2046
17142TIP3   OH272840   4.773   5.192   3.000 -0.0018  0.0472 -0.3470
17142TIP3    H172841   4.855   5.174   3.047 -0.4780  0.3635  0.6098
17142TIP3    H272842   4.706   5.143   3.047 -0.1938 -1.1986 -1.8497
17143TIP3   OH272843   6.738   4.618  15.064  0.0805  0.3288 -0.3725
17143TIP3    H172844   6.735   4.583  14.975  2.1594  0.0420 -0.3352
17143TIP3    H272845   6.829   4.640  15.079 -0.3699  1.0659  1.4350
17144TIP3   OH272846   2.154   4.532   4.925 -0.2195  0.3731 -0.0860
17144TIP3    H172847   2.207   4.557   5.001 -0.1858  0.0210  0.0069
17144TIP3    H272848   2.185   4.589   4.855  0.7296 -0.2688 -0.1978
17145TIP3   OH272849   4.904   2.446  15.814 -0.1149 -0.1304  0.0773
17145TIP3    H172850   4.836   2.398  15.863  0.1575 -0.6004 -0.0000
17145TIP3    H272851   4.917   2.527  15.863  0.1460 -0.5956  0.7778
17146TIP3   OH272852   5.336   0.531  11.019  1.0462  0.4134  0.3077
17146TIP3    H172853   5.398   0.569  11.081 -0.2332  0.9002  1.3152
17146TIP3    H272854   5.259   0.587  11.024  0.4034 -0.3532 -0.7005
17147TIP3   OH272855   2.269   0.806   3.283 -0.2003 -0.5765 -0.4055
17147TIP3    H172856   2.351   0.854   3.293 -0.7492  0.3587 -0.4006
17147TIP3    H272857   2.201   0.871   3.298 -0.9458 -1.6266  0.8743
17148TIP3   OH272858   6.283   0.876  14.406  0.9817 -0.1303  0.5457
17148TIP3    H172859   6.238   0.903  14.487 -1.7716  0.7721 -1.2016
17148TIP3    H272860   6.314   0.958  14.367 -1.3598 -0.0845 -1.3388
17149TIP3   OH272861   1.888   0.887  11.846  0.1725  0.6000 -0.4841
17149TIP3    H172862   1.930   0.879  11.760 -0.8393 -1.3382 -0.8429
17149TIP3    H272863   1.957   0.918  11.904  1.4034  0.0333 -1.6116
17150TIP3   OH272864   3.790   5.054  11.590  0.0119 -0.3755  0.5053
17150TIP3    H172865   3.709   5.086  11.551  0.4459  0.7842  0.5576
17150TIP3    H272866   3.793   5.093  11.677  0.0614 -1.3468  0.9533
17151TIP3   OH272867   5.549   5.795  14.862 -0.3439 -0.7697  0.1274
17151TIP3    H172868   5.627   5.832  14.820 -2.2633  0.1541 -2.7168
17151TIP3    H272869   5.557   5.701  14.849 -0.7263 -0.5255 -2.0676
17152TIP3   OH272870   4.309   1.682   2.946  0.0453  0.5243 -0.4229
17152TIP3    H172871   4.290   1.759   2.999 -0.9536 -1.9313  2.9446
17152TIP3    H272872   4.369   1.630   2.999 -0.1849 -1.5612 -2.1279
17153TIP3   OH272873   1.200   5.377  16.203  0.2252  0.2526  0.2316
17153TIP3    H172874   1.120   5.336  16.171  0.1689  1.8396 -1.7645
17153TIP3    H272875   1.170   5.452  16.254  0.4378  0.7500 -0.3750
17154TIP3   OH272876   3.575   4.595   3.174 -0.1969  0.5057 -0.2334
17154TIP3    H172877   3.602   4.677   3.216  0.2700 -0.6539  1.7998
17154TIP3    H272878   3.652   4.538   3.181 -1.1600 -0.7705  0.1132
17155TIP3   OH272879   3.430   0.644  12.961  0.7182 -0.3836  0.0563
17155TIP3    H172880   3.464   0.558  12.937  1.1919 -0.2653  0.2863
17155TIP3    H272881   3.416   0.689  12.878  0.5943 -0.6390 -0.0587
17156TIP3   OH272882   5.666   2.842   5.915  0.4534 -0.0605 -0.4557
17156TIP3    H172883   5.693   2.772   5.856 -0.8598 -0.7734 -0.2277
17156TIP3    H272884   5.618   2.798   5.985 -1.2758  1.1732 -0.8379
17157TIP3   OH272885   5.557   0.760  12.794 -0.2448  0.8537  0.4465
17157TIP3    H172886   5.506   0.839  12.809 -0.5419  1.0204 -1.3325
17157TIP3    H272887   5.579   0.762  12.701 -1.5192 -1.8738  0.0200
17158TIP3   OH272888   4.868   0.803  16.510  0.0480 -0.8295 -0.5635
17158TIP3    H172889   4.946   0.767  16.551 -0.6310 -1.6654  0.0239
17158TIP3    H272890   4.900   0.857  16.438  1.2020 -0.4574  0.2133
17159TIP3   OH272891   6.401   0.435  11.117  0.5747  0.4274 -0.2364
17159TIP3    H172892   6.310   0.411  11.096  1.5608 -0.3691 -4.0174
17159TIP3    H272893   6.425   0.498  11.048  2.6605  1.2495  1.1871
17160TIP3   OH272894   5.518   1.236   0.105 -0.4423 -0.8014 -0.4186
17160TIP3    H172895   5.568   1.157   0.126  1.2382  0.7219  1.5050
17160TIP3    H272896   5.581   1.293   0.061 -1.4463 -0.2362 -1.1468
17161TIP3   OH272897   1.277   1.654   2.088 -0.7849 -0.4400 -0.3150
17161TIP3    H172898   1.346   1.597   2.121 -0.2236 -1.1031 -2.5148
17161TIP3    H272899   1.198   1.625   2.133 -0.1050 -1.4826  0.2203
17162TIP3   OH272900   3.534   4.625  13.683 -0.0327 -0.0857 -0.0082
17162TIP3    H172901   3.577   4.545  13.650 -2.2222 -1.3983  0.2215
17162TIP3    H272902   3.605   4.676  13.721  1.6407 -1.2660 -1.4781
17163TIP3   OH272903   0.763   6.669  10.625  0.2009 -0.0551 -0.6868
17163TIP3    H172904   0.840   6.663  10.569  0.6714  2.0306 -0.3183
17163TIP3    H272905   0.777   6.603  10.693  1.0817 -0.5091 -1.3016
17164TIP3   OH272906   6.557   5.530   4.642  0.0474  0.1644  0.0615
17164TIP3    H172907   6.648   5.547   4.619  0.2262  2.5086  2.2188
17164TIP3    H272908   6.562   5.473   4.719 -0.3128 -0.1163 -0.1218
17165TIP3   OH272909   4.816   2.133   0.396  0.1923  0.2807  0.5246
17165TIP3    H172910   4.748   2.151   0.332 -1.1824  0.3847  1.9869
17165TIP3    H272911   4.875   2.071   0.352 -1.0705 -0.1372 -0.5989
17166TIP3   OH272912   0.313   5.563  11.419 -0.0366  0.1148  0.3967
17166TIP3    H172913   0.292   5.655  11.407  0.8453 -0.0045 -2.4408
17166TIP3    H272914   0.382   5.545  11.356  1.1530 -2.0574  2.2319
17167TIP3   OH272915   1.491   2.795  11.967  0.9138 -0.0845  0.0187
17167TIP3    H172916   1.430   2.863  11.939  1.3609 -0.1343 -1.1059
17167TIP3    H272917   1.557   2.842  12.019  0.6937  0.1785  0.0619
17168TIP3   OH272918   0.621   1.915  10.587 -0.1897 -0.2259 -0.4366
17168TIP3    H172919   0.633   1.995  10.535  0.6053  1.0999  1.7304
17168TIP3    H272920   0.540   1.929  10.635 -0.4541 -1.0558 -0.6373
17169TIP3   OH272921   5.023   6.555  13.746 -0.3069  0.7020  0.1679
17169TIP3    H172922   4.973   6.534  13.668 -0.3504  0.5197  0.2455
17169TIP3    H272923   5.100   6.499  13.741 -0.3169  0.6793  0.2636
17170TIP3   OH272924   1.930   5.127  16.915 -0.2727 -0.0925  0.2731
17170TIP3    H172925   2.011   5.164  16.882  0.5548 -1.5698  0.5858
17170TIP3    H272926   1.861   5.185  16.883  0.8553  0.7988 -0.5401
17171TIP3   OH272927   4.905   5.046  14.957  0.2339  0.0701  0.5357
17171TIP3    H172928   4.907   5.060  15.052 -2.0423  0.1850  0.6025
17171TIP3    H272929   4.901   5.134  14.920 -2.8576 -0.0200  0.5237
17172TIP3   OH272930   3.181   3.253  16.889 -0.5106 -0.3954 -0.0527
17172TIP3    H172931   3.208   3.312  16.819 -2.9629  0.2015 -0.5574
17172TIP3    H272932   3.233   3.280  16.965 -0.0015  0.9477 -0.8602
17173TIP3   OH272933   1.679   1.289   6.457  0.2587 -0.7746 -0.3206
17173TIP3    H172934   1.593   1.258   6.428  0.3500 -1.9061  0.5685
17173TIP3    H272935   1.708   1.223   6.521  1.5005 -0.0656 -0.1331
17174TIP3   OH272936   5.509   6.233   1.095  0.7814 -0.7262  0.0687
17174TIP3    H172937   5.501   6.258   1.187 -1.0316 -0.0469 -0.2464
17174TIP3    H272938   5.460   6.151   1.088  0.3352 -0.4250 -0.4152
17175TIP3   OH272939   6.670   4.709   0.010  0.7565  0.1596 -0.1261
17175TIP3    H172940   6.715   4.646  -0.046 -0.5826  0.6107 -1.7499
17175TIP3    H272941   6.599   4.659   0.050  0.8309  0.1757  0.0225
17176TIP3   OH272942   2.378   3.996  11.339  0.0853 -0.5649  0.4227
17176TIP3    H172943   2.387   4.091  11.347  0.0420 -0.2806 -2.1677
17176TIP3    H272944   2.283   3.981  11.346 -0.0969 -0.1742 -0.9436
17177TIP3   OH272945   3.841   6.399  14.773 -0.5008 -0.1358  0.2200
17177TIP3    H172946   3.867   6.491  14.764  1.2884 -0.6213  0.2050
17177TIP3    H272947   3.868   6.375  14.861  0.7585 -1.1601 -0.4274
17178TIP3   OH272948   3.567   6.698  14.303 -0.5379 -0.3559  0.2279
17178TIP3    H172949   3.620   6.651  14.367  0.4324  0.8907  0.3671
17178TIP3    H272950   3.548   6.633  14.235  0.0926 -1.1582  0.8100
17179TIP3   OH272951   5.898   1.510  16.991 -0.2490  0.1852  0.6842
17179TIP3    H172952   5.860   1.535  16.906 -1.5128 -2.7803  0.3229
17179TIP3    H272953   5.928   1.420  16.978  1.8106  0.5496  2.6963
17180TIP3   OH272954   6.728   5.225   4.804  0.3300  0.1816 -0.3375
17180TIP3    H172955   6.815   5.257   4.826  0.1289 -1.3919  3.1752
17180TIP3    H272956   6.730   5.132   4.827 -1.8675 -0.1869 -1.4934
17181TIP3   OH272957   4.947   4.418   1.964 -0.1654  0.0229 -0.3025
17181TIP3    H172958   4.859   4.454   1.948 -0.6754 -1.4216 -0.8110
17181TIP3    H272959   4.935   4.360   2.039  0.0616 -1.2328 -1.2236
17182TIP3   OH272960   3.264   4.782   0.280 -0.6703  0.1951 -0.7342
17182TIP3    H172961   3.325   4.749   0.346 -1.1585 -0.1966 -0.4767
17182TIP3    H272962   3.254   4.875   0.301 -0.0322  0.2958 -0.8793
17183TIP3   OH272963   2.373   0.715   2.623  0.4259  0.0218  0.0761
17183TIP3    H172964   2.438   0.784   2.640 -0.4023  1.2125 -1.5339
17183TIP3    H272965   2.350   0.726   2.531 -3.0933  0.5253  0.9417
17184TIP3   OH272966   2.479   6.423   3.464 -0.2742  0.0269  0.2313
17184TIP3    H172967   2.406   6.399   3.521  1.0299 -3.3015  0.6073
17184TIP3    H272968   2.533   6.345   3.460  3.0136  2.2221 -0.4989
17185TIP3   OH272969   4.345   0.904  15.984 -0.7550  0.5309 -0.0653
17185TIP3    H172970   4.307   0.902  16.072 -0.6899 -1.7010 -0.0563
17185TIP3    H272971   4.309   0.827  15.940  3.5026 -1.5979 -0.1214
17186TIP3   OH272972   1.179   1.123  11.805  0.0101  0.2481 -0.6017
17186TIP3    H172973   1.167   1.159  11.717 -0.3131  1.0075 -0.2481
17186TIP3    H272974   1.101   1.069  11.819 -0.2607  0.6565 -0.5231
17187TIP3   OH272975   4.771   1.309   0.763  0.2980 -0.0667  0.0322
17187TIP3    H172976   4.682   1.281   0.783  0.0965  0.8544  0.4479
17187TIP3    H272977   4.797   1.254   0.689 -0.8281  0.0558 -0.4683
17188TIP3   OH272978   0.231   2.147  10.928 -0.2288 -0.4057  0.6817
17188TIP3    H172979   0.310   2.113  10.971  0.7340 -1.7828 -2.0313
17188TIP3    H272980   0.241   2.242  10.930 -0.5007 -0.4080  3.9431
17189TIP3   OH272981   4.504   5.841  13.160 -0.3672  0.3822 -0.1480
17189TIP3    H172982   4.499   5.882  13.074  1.1664 -0.7971 -0.8187
17189TIP3    H272983   4.566   5.894  13.210 -2.3522  1.9227  0.7442
17190TIP3   OH272984   1.043   4.686  15.425  0.3072  0.3148 -0.2648
17190TIP3    H172985   1.084   4.605  15.453 -0.0323  0.0548 -0.5192
17190TIP3    H272986   1.009   4.667  15.337 -0.1632  0.5920 -0.1419
17191TIP3   OH272987   1.153   5.180  13.898  0.3308 -0.1116 -0.2314
17191TIP3    H172988   1.099   5.167  13.976  0.1207 -0.6760 -0.4695
17191TIP3    H272989   1.233   5.221  13.931  0.5584 -1.0382  0.3867
17192TIP3   OH272990   2.233   2.047   5.179  0.6099  0.3245 -0.3573
17192TIP3    H172991   2.319   2.005   5.190  0.4387  0.4154  1.4891
17192TIP3    H272992   2.252   2.141   5.178  0.4406  0.3999  1.3086
17193TIP3   OH272993   4.309   3.609  15.653 -0.2923 -0.2451  0.0062
17193TIP3    H172994   4.378   3.641  15.710  0.2918 -1.6547  0.1076
17193TIP3    H272995   4.228   3.627  15.701  0.0100  1.1408  0.0155
17194TIP3   OH272996   4.208   6.530  11.596  0.1066 -0.1494  0.5698
17194TIP3    H172997   4.147   6.486  11.537 -0.0996  2.5203 -1.2574
17194TIP3    H272998   4.155   6.553  11.672 -0.5745 -0.1351  0.0970
17195TIP3   OH272999   1.819   6.090   0.323  0.5362 -0.0647  0.2621
17195TIP3    H173000   1.856   6.058   0.406 -0.0972 -1.0694  0.1644
17195TIP3    H273001   1.725   6.075   0.331  0.2354  1.6947  0.1587
17196TIP3   OH273002   0.105   1.609  15.124  0.4535  0.7735 -0.0225
17196TIP3    H173003   0.140   1.528  15.086  2.3154  1.1641  0.8083
17196TIP3    H273004   0.069   1.656  15.050  2.0421  0.5098 -0.9946
17197TIP3   OH273005   6.324   5.408   4.455 -0.0151  0.4409  0.1701
17197TIP3    H173006   6.266   5.453   4.516  0.0150  0.3067  0.2990
17197TIP3    H273007   6.412   5.428   4.486  0.0179  1.0907 -0.3474
17198TIP3   OH273008   1.872   2.947  13.091  0.6925 -0.0395  0.1392
17198TIP3    H173009   1.946   2.914  13.142 -0.0353  0.7958  1.7680
17198TIP3    H273010   1.900   2.937  13.000  2.0461 -1.4873  0.6779
17199TIP3   OH273011   1.122   4.412  12.796  0.4907 -0.3092 -0.5261
17199TIP3    H173012   1.152   4.477  12.859 -1.2890 -0.4050  0.4637
17199TIP3    H273013   1.182   4.338  12.805  0.0124 -0.4771  1.3356
17200TIP3   OH273014   2.407   6.382   1.883 -0.0296 -0.3889 -0.1684
17200TIP3    H173015   2.450   6.461   1.916  0.6330 -0.8803  0.1558
17200TIP3    H273016   2.479   6.321   1.864 -0.5103 -0.7847 -0.7699
17201TIP3   OH273017   0.629   3.537  12.299 -0.3642  0.0574  0.2335
17201TIP3    H173018   0.549   3.536  12.352 -0.4124  1.3446  0.2187
17201TIP3    H273019   0.626   3.455  12.249 -0.7716 -0.7421  1.5422
17202TIP3   OH273020   2.184   1.837  13.303  0.5368  0.0269 -0.1736
17202TIP3    H173021   2.133   1.912  13.273 -2.3895 -1.8553 -0.0842
17202TIP3    H273022   2.209   1.792  13.222 -0.1368 -0.4568 -0.1106
17203TIP3   OH273023   3.740   4.143   6.177 -0.4390 -0.6586 -0.1331
17203TIP3    H173024   3.735   4.185   6.262 -0.0853 -1.1594  0.1365
17203TIP3    H273025   3.831   4.152   6.150 -0.8044  0.5760 -1.0159
17204TIP3   OH273026   1.224   2.478   5.186  1.0623 -0.0604 -0.2062
17204TIP3    H173027   1.210   2.571   5.165  0.4135  0.1036  0.9427
17204TIP3    H273028   1.319   2.467   5.184  1.1793  0.8253  0.4933
17205TIP3   OH273029   4.564   5.765   6.330  0.3323 -0.5688  0.5556
17205TIP3    H173030   4.585   5.691   6.387  2.3796  0.7105  1.4911
17205TIP3    H273031   4.473   5.749   6.303 -0.6529 -1.2497  4.0497
17206TIP3   OH273032   0.287   5.718  10.952 -0.5198  0.0031  0.6548
17206TIP3    H173033   0.377   5.705  10.984 -0.3087  0.2108  0.1414
17206TIP3    H273034   0.250   5.630  10.949 -0.4582 -0.0478  1.2255
17207TIP3   OH273035   2.708   2.604   4.895  0.3568 -0.1840  0.1602
17207TIP3    H173036   2.628   2.604   4.947  0.5129  3.3272  0.4782
17207TIP3    H273037   2.775   2.570   4.953 -0.1199  0.6439  1.2011
17208TIP3   OH273038   1.241   2.023  10.985 -0.6457 -0.4196  0.4103
17208TIP3    H173039   1.261   1.929  10.981 -0.6577 -0.3737 -0.9088
17208TIP3    H273040   1.325   2.065  11.004 -0.8801 -0.7920  2.3326
17209TIP3   OH273041   2.541   3.326   4.911  0.2654  0.6793 -0.0432
17209TIP3    H173042   2.446   3.342   4.910  0.2724  0.7643  0.6531
17209TIP3    H273043   2.551   3.241   4.868 -0.3234 -0.3493  1.8204
17210TIP3   OH273044   4.283   5.742   0.369 -0.2506  0.3796 -0.0132
17210TIP3    H173045   4.346   5.685   0.325  0.6066  1.4340 -0.1766
17210TIP3    H273046   4.248   5.798   0.299  0.0533  1.0931  0.4048
17211TIP3   OH273047   0.036   3.530  16.195  0.6931 -0.4161  0.0059
17211TIP3    H173048  -0.012   3.478  16.130  1.1699  1.2005 -1.6790
17211TIP3    H273049   0.086   3.466  16.246  0.0170 -1.7317 -0.9685
17212TIP3   OH273050   6.654   5.322   4.020 -0.0058  0.2273  0.0903
17212TIP3    H173051   6.652   5.417   4.033 -0.4917  0.0378  1.4880
17212TIP3    H273052   6.592   5.307   3.949  0.5907  1.0296 -0.6063
17213TIP3   OH273053   0.071   1.412   0.136 -0.9995 -0.1143  0.3885
17213TIP3    H173054   0.077   1.473   0.209 -1.7847 -0.2941  0.6083
17213TIP3    H273055   0.078   1.325   0.177 -0.7177 -0.2016  0.1647
17214TIP3   OH273056   4.754   6.354  13.795  0.5196 -0.6250  0.2134
17214TIP3    H173057   4.797   6.307  13.723  2.1889  1.0790  0.0745
17214TIP3    H273058   4.805   6.332  13.873 -0.3372 -1.1978  0.6229
17215TIP3   OH273059   2.823   4.723   4.893 -0.5128  0.8872  0.6666
17215TIP3    H173060   2.816   4.726   4.988 -0.1976  1.3335  0.6794
17215TIP3    H273061   2.735   4.743   4.861 -0.5812  0.8959  0.8632
17216TIP3   OH273062   2.410   1.051   0.567  0.5741 -0.6767  0.5522
17216TIP3    H173063   2.446   1.110   0.501  0.5360 -0.9092  0.3207
17216TIP3    H273064   2.324   1.026   0.533  0.1493 -0.0357  1.1603
17217TIP3   OH273065   2.591   0.858   5.711 -0.1817 -0.1815  0.0103
17217TIP3    H173066   2.628   0.773   5.687  2.4078  1.3567 -1.7792
17217TIP3    H273067   2.655   0.895   5.773 -0.4383  1.1224 -0.4865
17218TIP3   OH273068   0.312   4.660   6.010  0.4303 -0.6485  0.0197
17218TIP3    H173069   0.316   4.643   6.104 -0.4564 -2.3036 -0.2277
17218TIP3    H273070   0.219   4.676   5.993  0.8630  1.8445 -0.2297
17219TIP3   OH273071   6.025   3.234  11.408  0.2063 -0.2459 -0.6193
17219TIP3    H173072   5.936   3.205  11.387 -0.7283  0.6567  1.8985
17219TIP3    H273073   6.020   3.330  11.405  0.8439 -0.1711  0.3628
17220TIP3   OH273074   6.239   6.499  17.172 -0.3739 -0.6887 -0.2606
17220TIP3    H173075   6.189   6.436  17.224 -1.9694  0.1705 -0.7155
17220TIP3    H273076   6.228   6.582  17.217  1.8128 -0.7386  0.3949
17221TIP3   OH273077   6.693   0.136   3.530 -0.2938  0.2460 -0.3782
17221TIP3    H173078   6.762   0.077   3.498 -0.0971  0.2358  0.0645
17221TIP3    H273079   6.715   0.151   3.622  0.1227  1.6461 -0.6878
17222TIP3   OH273080   1.983   5.819  13.201  0.2950 -0.4224  0.2145
17222TIP3    H173081   2.032   5.750  13.157 -0.7957 -2.1716  1.6242
17222TIP3    H273082   1.967   5.784  13.289  0.3358  1.9406  1.2066
17223TIP3   OH273083   3.963   2.885  15.455  0.5483 -0.7690  0.2651
17223TIP3    H173084   3.873   2.902  15.426  0.2276 -2.4560  0.2065
17223TIP3    H273085   3.964   2.911  15.547  0.0077 -0.7084  0.2563
17224TIP3   OH273086   6.350   6.127  11.779 -0.2324 -0.0533 -0.1024
17224TIP3    H173087   6.427   6.072  11.766  0.9039  1.7583 -1.2320
17224TIP3    H273088   6.318   6.103  11.866  0.8712 -1.7069 -0.1358
17225TIP3   OH273089   2.479   0.428  12.997 -0.1064  0.8749 -0.5326
17225TIP3    H173090   2.524   0.400  13.076 -0.6899 -2.2792 -1.2516
17225TIP3    H273091   2.423   0.500  13.026  0.8810  0.8373  1.5771
17226TIP3   OH273092   6.214   0.016   2.852 -0.5154 -0.1045 -0.5221
17226TIP3    H173093   6.240  -0.023   2.936 -4.6989  0.2719  1.0797
17226TIP3    H273094   6.239  -0.050   2.787 -0.9182 -2.2993  1.4515
17227TIP3   OH273095   5.005   3.506   1.519  0.3239 -0.1641  0.2515
17227TIP3    H173096   5.036   3.416   1.507  1.9746  0.5129 -0.6878
17227TIP3    H273097   5.032   3.552   1.440 -2.1651  0.7417 -0.1129
17228TIP3   OH273098   0.353   4.304   0.284  0.8317  0.0388 -0.3750
17228TIP3    H173099   0.407   4.257   0.348 -1.5924  0.1587  1.8303
17228TIP3    H273100   0.365   4.396   0.305  2.2858  0.2621 -2.0126
17229TIP3   OH273101   1.442   3.649   4.532 -0.3863  0.1122 -0.3620
17229TIP3    H173102   1.458   3.698   4.612 -1.0746 -0.4061  0.0968
17229TIP3    H273103   1.367   3.592   4.552 -0.7264  0.1556 -1.4398
17230TIP3   OH273104   5.291   5.511   0.798  0.2065  0.1545  0.2022
17230TIP3    H173105   5.220   5.464   0.842  1.1316  0.2214  1.7979
17230TIP3    H273106   5.300   5.593   0.847  2.0740 -0.3070  0.6864
17231TIP3   OH273107   4.483   5.130  16.392  0.2142  0.0782  0.8545
17231TIP3    H173108   4.448   5.129  16.481  1.2285 -0.4958  1.2512
17231TIP3    H273109   4.443   5.054  16.350  0.4938 -0.2147  1.1176
17232TIP3   OH273110   2.393   2.553  15.114  0.2289 -0.5806  0.5538
17232TIP3    H173111   2.362   2.641  15.092  0.8066 -0.3291  0.7314
17232TIP3    H273112   2.325   2.517  15.171 -1.3144 -1.2613 -1.6260
17233TIP3   OH273113   2.444   1.606  13.053 -0.3086  0.2449  0.1428
17233TIP3    H173114   2.393   1.686  13.063 -1.4423 -0.8436  3.8762
17233TIP3    H273115   2.386   1.546  13.006 -1.3601  0.0509  1.6464
17234TIP3   OH273116   1.319   3.763   1.110 -0.3769 -0.3040  0.4190
17234TIP3    H173117   1.360   3.824   1.171  4.6615 -3.2199  0.2031
17234TIP3    H273118   1.347   3.793   1.023  1.9748 -2.6258  0.3021
17235TIP3   OH273119   3.716   5.334   1.410  0.6454  0.2910  0.1231
17235TIP3    H173120   3.807   5.306   1.395  0.0855 -1.2591 -0.4253
17235TIP3    H273121   3.666   5.294   1.339 -0.8297 -0.7630  1.7234
17236TIP3   OH273122   1.534   4.557  11.981 -0.3967  0.3123  0.1679
17236TIP3    H173123   1.465   4.623  11.978 -0.5094  0.1933  0.1614
17236TIP3    H273124   1.603   4.592  11.923 -0.1775  0.7359  0.6794
17237TIP3   OH273125   0.818   2.983  17.105  0.5420 -0.2792 -0.5526
17237TIP3    H173126   0.758   2.914  17.077  0.0953  0.3849 -1.2589
17237TIP3    H273127   0.879   2.993  17.032  1.6361 -1.0636  0.2284
17238TIP3   OH273128   3.874   1.209  13.710 -0.3986  0.0700 -0.5675
17238TIP3    H173129   3.853   1.135  13.766  2.4512 -0.7448 -0.5357
17238TIP3    H273130   3.965   1.195  13.684 -0.1580  2.9909 -1.4501
17239TIP3   OH273131   1.092   1.675  14.741 -0.0838 -0.6353  0.2282
17239TIP3    H173132   1.039   1.735  14.793 -0.9932 -0.4292 -0.9278
17239TIP3    H273133   1.029   1.629  14.685  0.7486 -1.7249  0.1680
17240TIP3   OH273134   5.365   4.938  12.262  0.3411  0.6698 -0.5265
17240TIP3    H173135   5.317   4.910  12.184  0.8550  1.3093 -1.0694
17240TIP3    H273136   5.337   4.876  12.330 -0.1637  0.1572 -1.1926
17241TIP3   OH273137   0.582   0.059   1.629 -0.0252 -0.9764 -0.2996
17241TIP3    H173138   0.572   0.021   1.541 -0.7517  2.1717 -1.6401
17241TIP3    H273139   0.647   0.128   1.618  0.5253 -1.1231  1.8506
17242TIP3   OH273140   6.027   4.381  14.021  0.2313  0.4171  0.2402
17242TIP3    H173141   5.962   4.450  14.007 -1.5437 -1.3951 -0.6542
17242TIP3    H273142   6.001   4.311  13.961  0.9254 -1.7804  2.4265
17243TIP3   OH273143   1.489   6.195   0.925 -0.4811  0.2181 -0.0808
17243TIP3    H173144   1.517   6.105   0.905 -0.4457 -0.1012  1.3413
17243TIP3    H273145   1.529   6.248   0.856  1.2793 -0.6006  0.2696
17244TIP3   OH273146   0.779   1.124  13.713 -0.0917  0.3203  0.0571
17244TIP3    H173147   0.795   1.041  13.757 -1.7198  0.0474  0.1774
17244TIP3    H273148   0.802   1.191  13.778  1.2592 -0.0172 -0.0545
17245TIP3   OH273149   3.684   3.197   4.805  0.4022 -0.7116 -0.0062
17245TIP3    H173150   3.593   3.221   4.790  0.2151 -0.9039  0.7914
17245TIP3    H273151   3.735   3.261   4.755 -0.1101  0.6712  1.2224
17246TIP3   OH273152   6.133   1.995   2.121  0.0208  0.0059  0.0996
17246TIP3    H173153   6.185   1.938   2.178 -1.2949  0.2290  1.5789
17246TIP3    H273154   6.163   2.083   2.144 -1.8419  0.2183  1.8865
17247TIP3   OH273155   0.251   4.271  16.769  0.4820 -0.1868 -0.1556
17247TIP3    H173156   0.192   4.313  16.707  2.8120  2.0711 -0.9186
17247TIP3    H273157   0.281   4.342  16.826  2.0440 -1.3807  0.5480
17248TIP3   OH273158   6.072   5.225   3.359  0.1283  0.0281  0.2740
17248TIP3    H173159   6.094   5.202   3.269  2.4310 -0.7531  1.0018
17248TIP3    H273160   6.123   5.305   3.377 -0.1002  0.0294  0.9538
17249TIP3   OH273161   0.356   2.790   5.000  0.1155 -0.0770 -0.2201
17249TIP3    H173162   0.414   2.741   4.941  0.6725 -0.8366  0.9222
17249TIP3    H273163   0.416   2.836   5.060 -0.3336  3.4796 -2.3561
17250TIP3   OH273164   1.850   4.294  13.030 -0.2252  0.4230  0.3627
17250TIP3    H173165   1.895   4.221  13.073  1.7660  0.9237 -0.8130
17250TIP3    H273166   1.760   4.263  13.020  0.3249 -1.4377  0.8779
17251TIP3   OH273167   0.904   5.181  16.976  0.3635 -0.0077 -0.2528
17251TIP3    H173168   0.891   5.124  16.900  0.3380  0.5674 -0.6828
17251TIP3    H273169   0.962   5.131  17.034 -0.6107 -0.9560 -0.0848
17252TIP3   OH273170   5.461   0.161  14.881 -0.2140 -0.1336  0.2238
17252TIP3    H173171   5.414   0.153  14.798  0.4737 -2.6192  0.0433
17252TIP3    H273172   5.403   0.121  14.945  0.5200 -0.8818  0.4301
17253TIP3   OH273173   0.267   1.149  11.885 -0.3265 -0.2699 -0.4320
17253TIP3    H173174   0.216   1.154  11.805  0.4573 -0.2033 -0.9378
17253TIP3    H273175   0.240   1.066  11.925 -0.1281 -0.7099 -1.1857
17254TIP3   OH273176   5.346   1.445  11.846  0.3551 -0.1482  0.3027
17254TIP3    H173177   5.379   1.383  11.911 -1.9152  0.6292  2.2891
17254TIP3    H273178   5.251   1.448  11.863  0.1670  2.4047 -1.0022
17255TIP3   OH273179   2.827   5.254   0.758 -0.1485 -0.3060  0.1398
17255TIP3    H173180   2.788   5.175   0.794  0.7048 -0.1451  1.4488
17255TIP3    H273181   2.772   5.277   0.683 -1.2471 -1.3085  0.6409
17256TIP3   OH273182   1.884   6.113   3.429 -0.3353 -0.1847 -0.6782
17256TIP3    H173183   1.939   6.182   3.391  0.8428 -0.7107  0.0275
17256TIP3    H273184   1.945   6.059   3.479 -1.5778 -0.5609  0.4567
17257TIP3   OH273185   5.666   0.753  14.773  0.5874 -0.6936  0.0996
17257TIP3    H173186   5.657   0.684  14.840 -0.6268 -1.3882 -0.7360
17257TIP3    H273187   5.581   0.753  14.728  0.2125  2.0480  0.7262
17258TIP3   OH273188   1.531   4.064   1.558  0.0686 -0.6492 -1.2026
17258TIP3    H173189   1.442   4.100   1.560  0.3409 -0.0150 -0.4280
17258TIP3    H273190   1.518   3.969   1.563 -0.4811 -0.4603  1.9436
17259TIP3   OH273191   5.197   4.954   1.524 -0.4955  0.0705  0.0865
17259TIP3    H173192   5.164   5.028   1.474  0.8913  0.3762 -0.4096
17259TIP3    H273193   5.273   4.924   1.474 -0.1582 -0.7369  1.0702
17260TIP3   OH273194   4.937   0.921  15.098  0.7092  0.2945 -0.3376
17260TIP3    H173195   4.874   0.907  15.168  0.6509 -0.4987 -0.5403
17260TIP3    H273196   5.010   0.967  15.139  0.4253  0.3362  0.1160
17261TIP3   OH273197   2.813   0.380   2.970  0.6168 -0.3979 -0.0294
17261TIP3    H173198   2.759   0.309   2.934 -0.4778 -0.0358  0.8476
17261TIP3    H273199   2.780   0.459   2.929 -0.8452  0.0555  1.9215
17262TIP3   OH273200   5.186   1.808   0.254  0.1221 -0.1751 -0.4025
17262TIP3    H173201   5.250   1.880   0.254 -1.5284  1.3307 -1.7466
17262TIP3    H273202   5.201   1.762   0.172 -1.6481  1.2582 -1.5716
17263TIP3   OH273203   3.712   3.508  14.734  0.7329  1.0283 -0.1916
17263TIP3    H173204   3.659   3.427  14.731  0.7617  1.0175 -0.4066
17263TIP3    H273205   3.657   3.570  14.781  0.7894  0.8254  0.1480
17264TIP3   OH273206   6.617   3.456   4.199  0.9531  0.1062  0.0380
17264TIP3    H173207   6.710   3.434   4.197  1.1437  0.6577  1.6316
17264TIP3    H273208   6.587   3.423   4.284 -0.6449 -1.3631 -1.0740
17265TIP3   OH273209   5.095   3.204  14.412 -0.1889 -0.6940  0.7008
17265TIP3    H173210   5.185   3.201  14.382  0.4640  0.6269  2.4347
17265TIP3    H273211   5.053   3.270  14.358  0.4882  0.3284  1.4089
17266TIP3   OH273212   4.353   3.170  14.251 -0.3731 -0.3198 -0.0803
17266TIP3    H173213   4.280   3.170  14.190  0.4846  2.8243 -1.2215
17266TIP3    H273214   4.411   3.239  14.219  1.9188 -1.1184  2.1754
17267TIP3   OH273215   0.526   1.549  12.332 -0.4360  0.5002 -0.5791
17267TIP3    H173216   0.445   1.596  12.311 -1.1117 -0.1811  0.4380
17267TIP3    H273217   0.533   1.555  12.427  2.1977  2.9451 -0.8511
17268TIP3   OH273218   3.280   0.084   6.130 -0.3603 -0.1551 -0.1558
17268TIP3    H173219   3.343   0.119   6.067 -0.1214 -1.2420 -0.5285
17268TIP3    H273220   3.278   0.149   6.200  1.2166 -0.1373 -0.1132
17269TIP3   OH273221   1.233   3.639   5.904  0.9211 -0.0598 -0.0883
17269TIP3    H173222   1.220   3.544   5.910  1.2919 -0.1268 -0.3783
17269TIP3    H273223   1.194   3.673   5.985  3.5626 -0.7538  1.5452
17270TIP3   OH273224   5.742   4.709   2.463  0.6714  0.5610 -0.1330
17270TIP3    H173225   5.805   4.658   2.412 -0.6046 -1.1001 -0.0972
17270TIP3    H273226   5.657   4.688   2.424 -0.1324  0.6963  1.4973
17271TIP3   OH273227   5.408   0.145   1.593  0.6330 -0.2018 -0.1326
17271TIP3    H173228   5.430   0.238   1.591  0.6765 -0.2438 -1.7550
17271TIP3    H273229   5.370   0.127   1.507 -1.2111 -1.2428  0.8521
17272TIP3   OH273230   5.285   6.124   4.928  0.5397  0.5193  0.5590
17272TIP3    H173231   5.229   6.095   4.856  0.8675 -1.1410  0.9559
17272TIP3    H273232   5.254   6.212   4.948  0.1627  0.8485 -1.3344
17273TIP3   OH273233   5.578   3.843  14.243  0.2068 -0.1349  0.4357
17273TIP3    H173234   5.584   3.749  14.227 -1.6215 -0.0393 -0.9430
17273TIP3    H273235   5.570   3.850  14.338  0.1504 -1.3922  0.5400
17274TIP3   OH273236   4.978   1.819  16.670  0.2671  0.1403  0.5215
17274TIP3    H173237   5.065   1.852  16.646  0.1169  0.5948  0.5919
17274TIP3    H273238   4.978   1.728  16.639  0.1398  0.6611 -1.0859
17275TIP3   OH273239   3.415   5.217   3.367  0.0180  0.2353  0.0216
17275TIP3    H173240   3.323   5.216   3.393  0.4172 -1.4251  1.3935
17275TIP3    H273241   3.414   5.193   3.274 -0.9409  0.4431 -0.0264
17276TIP3   OH273242   1.868   2.514   4.670 -0.4029  1.0757  0.3346
17276TIP3    H173243   1.866   2.583   4.736 -2.2052 -0.3438  1.8306
17276TIP3    H273244   1.800   2.539   4.607  0.1472  1.5619 -0.0655
17277TIP3   OH273245   5.458   0.284  13.698 -0.2484  0.1001 -0.1548
17277TIP3    H173246   5.520   0.306  13.628 -0.8246 -2.1770 -1.4446
17277TIP3    H273247   5.498   0.318  13.777  0.8705  1.9361 -1.4765
17278TIP3   OH273248   1.847   6.714  14.274  0.6213 -0.3172 -0.0214
17278TIP3    H173249   1.760   6.753  14.277  1.1866  0.8706  1.6343
17278TIP3    H273250   1.861   6.692  14.182  0.1804  3.1663 -0.9853
17279TIP3   OH273251   3.014   6.002   0.043 -0.1132 -0.6246  0.2609
17279TIP3    H173252   2.945   5.947   0.080 -0.7101  0.5463  0.8965
17279TIP3    H273253   3.096   5.962   0.074 -0.5402 -1.0678  0.8262
17280TIP3   OH273254   5.130   1.172  12.502  0.2286 -0.0457 -0.1266
17280TIP3    H173255   5.179   1.168  12.420 -0.5051 -1.0126 -0.5217
17280TIP3    H273256   5.158   1.095  12.551 -0.6218 -0.4134 -0.2060
17281TIP3   OH273257   3.841   0.017  15.956 -0.4919 -0.4630 -0.1922
17281TIP3    H173258   3.860   0.110  15.956 -2.4491 -0.0328 -0.4533
17281TIP3    H273259   3.859  -0.012  16.045  0.0554  0.1711 -0.0962
17282TIP3   OH273260   1.753   0.614   2.577  0.1723  0.3936 -0.3272
17282TIP3    H173261   1.848   0.619   2.570  0.2194 -1.0385 -0.7667
17282TIP3    H273262   1.736   0.530   2.620 -0.9424  0.1393 -1.2602
17283TIP3   OH273263   3.404   0.322  16.939  0.3428  0.2798  0.0251
17283TIP3    H173264   3.395   0.353  16.849  2.9593  1.5022  0.1487
17283TIP3    H273265   3.341   0.374  16.988  0.8449  1.5736 -0.6715
17284TIP3   OH273266   2.465   5.932   0.741 -0.3135 -0.2689 -0.0183
17284TIP3    H173267   2.531   5.910   0.807  1.1750  1.9124 -0.7009
17284TIP3    H273268   2.514   5.937   0.659 -1.3324  1.2496 -0.5597
17285TIP3   OH273269   5.212   0.591   2.211  0.3833  0.6456  0.0084
17285TIP3    H173270   5.232   0.676   2.172  0.0067  0.5802 -0.3279
17285TIP3    H273271   5.146   0.610   2.278 -0.7748  0.4248 -1.0510
17286TIP3   OH273272   6.575   5.613  11.296  1.0047  0.1005  0.4046
17286TIP3    H173273   6.656   5.606  11.245  0.6116 -0.8258 -0.0955
17286TIP3    H273274   6.584   5.547  11.365  0.6786 -0.0117  0.3433
17287TIP3   OH273275   0.113   4.635   1.011 -0.0474 -0.3454 -0.1549
17287TIP3    H173276   0.188   4.623   1.068  0.5919 -0.8414 -1.0862
17287TIP3    H273277   0.041   4.657   1.070  0.6261 -0.7383  0.8271
17288TIP3   OH273278   0.035   2.745   5.853 -0.0364  0.5223 -0.3954
17288TIP3    H173279  -0.021   2.674   5.822  0.1227  0.8995 -1.5948
17288TIP3    H273280   0.120   2.728   5.812  0.0540  1.2972 -0.5400
17289TIP3   OH273281   3.129   3.435   5.124 -0.6365  0.2903  0.1260
17289TIP3    H173282   3.176   3.493   5.183 -2.1707  1.0037  0.6552
17289TIP3    H273283   3.110   3.489   5.047  0.6152 -0.3995 -0.7052
17290TIP3   OH273284   6.514   0.383   0.089 -0.4690  0.2408  0.3122
17290TIP3    H173285   6.427   0.356   0.118 -0.5522  1.2952  1.0728
17290TIP3    H273286   6.499   0.459   0.033  0.0848  1.8043  2.2252
17291TIP3   OH273287   5.293   2.247   0.311  0.4959  0.3156 -0.1748
17291TIP3    H173288   5.290   2.342   0.313  2.0575  0.3695  0.6891
17291TIP3    H273289   5.295   2.225   0.218 -2.2297  1.0062 -0.4134
17292TIP3   OH273290   0.743   2.173  10.774  0.7406 -0.6004 -0.1107
17292TIP3    H173291   0.705   2.124  10.847 -1.3596  1.5479  0.2868
17292TIP3    H273292   0.689   2.151  10.698  1.1909 -0.6402 -0.4251
17293TIP3   OH273293   0.842   6.429   4.060  0.5838  0.2145  0.2422
17293TIP3    H173294   0.916   6.446   4.118  0.8052 -2.9448  1.0059
17293TIP3    H273295   0.818   6.514   4.025  4.8843  1.2530 -0.4063
17294TIP3   OH273296   0.197   2.503  13.989  0.1178 -0.0543 -0.5587
17294TIP3    H173297   0.275   2.535  13.943 -0.4188 -1.2760 -2.3859
17294TIP3    H273298   0.127   2.511  13.925 -0.7548 -1.3652  0.2076
17295TIP3   OH273299   6.607   0.749   3.132  0.4351 -0.2782  1.1436
17295TIP3    H173300   6.675   0.682   3.140  0.2259 -1.0290 -2.4702
17295TIP3    H273301   6.528   0.706   3.163  0.2480 -1.8991 -1.3922
17296TIP3   OH273302   0.137   1.993  14.206 -0.5186  0.2158 -0.1059
17296TIP3    H173303   0.086   2.064  14.170  0.0462  0.6329 -0.0966
17296TIP3    H273304   0.129   2.003  14.301 -0.0972  0.5168 -0.1018
17297TIP3   OH273305   5.278   3.260   1.685  0.4169  0.2799  0.1064
17297TIP3    H173306   5.250   3.255   1.594 -0.5183  0.8798  0.3504
17297TIP3    H273307   5.199   3.239   1.735  0.9190 -0.0243  0.7784
17298TIP3   OH273308   4.861   2.918  10.412  0.2034 -0.1482 -0.0707
17298TIP3    H173309   4.847   2.846  10.350 -0.5538  0.6230 -0.7981
17298TIP3    H273310   4.835   2.882  10.497 -0.6506 -0.5776 -0.5082
17299TIP3   OH273311   1.110   4.155   2.590  0.3655  0.0419  0.0654
17299TIP3    H173312   1.070   4.187   2.671  0.4311 -1.4176  0.6897
17299TIP3    H273313   1.046   4.175   2.523 -0.4821 -0.3182  0.7487
17300TIP3   OH273314   4.808   4.426  16.649 -0.0345 -0.1778 -0.6127
17300TIP3    H173315   4.741   4.370  16.610  0.4165 -0.0939 -1.5081
17300TIP3    H273316   4.822   4.389  16.736  0.9221 -2.0150 -1.5276
17301TIP3   OH273317   5.906   0.890  15.622 -0.1151 -0.5887 -0.6828
17301TIP3    H173318   5.994   0.879  15.587  0.2536 -1.8074  0.5893
17301TIP3    H273319   5.888   0.984  15.611  0.3450 -0.7564 -3.2011
17302TIP3   OH273320   3.879   2.318   3.009 -0.0666 -0.0160 -0.5820
17302TIP3    H173321   3.884   2.223   3.022 -1.1326  0.1505  1.0948
17302TIP3    H273322   3.818   2.329   2.936  0.3852 -0.6204 -1.0663
17303TIP3   OH273323   2.133   3.745  12.523  0.4211 -0.5738 -0.1077
17303TIP3    H173324   2.146   3.652  12.540  2.0379 -0.6635 -1.7463
17303TIP3    H273325   2.137   3.753  12.428 -2.0796  0.8326 -0.1453
17304TIP3   OH273326   2.018   3.466   0.723 -0.1865 -0.0233  0.2174
17304TIP3    H173327   2.105   3.469   0.764 -0.4691 -0.8802  0.9215
17304TIP3    H273328   1.964   3.420   0.788 -1.0697  0.1781 -0.3788
17305TIP3   OH273329   0.489   2.540   0.592  0.9611 -0.7440 -0.4672
17305TIP3    H173330   0.447   2.614   0.547 -0.3088 -1.4538 -0.4568
17305TIP3    H273331   0.525   2.487   0.522 -1.8015 -2.3297 -0.7643
17306TIP3   OH273332   0.202   6.230  15.081  0.0121  0.7060  0.0135
17306TIP3    H173333   0.245   6.287  15.018  1.4887  1.3266  1.5361
17306TIP3    H273334   0.157   6.290  15.141 -1.4396  0.1278 -0.4538
17307TIP3   OH273335   2.205   3.000   1.714 -0.0223 -0.6283 -0.5597
17307TIP3    H173336   2.113   2.979   1.694 -0.7703  0.8393  1.2308
17307TIP3    H273337   2.242   3.025   1.630 -1.7426  0.4795 -1.0205
17308TIP3   OH273338   5.051   1.995  14.957 -0.3122 -0.4095  0.4855
17308TIP3    H173339   5.008   1.976  15.040 -1.2565 -1.1280 -0.1475
17308TIP3    H273340   5.083   1.910  14.927  1.3129  0.0674  0.8009
17309TIP3   OH273341   5.018   4.429   3.808  0.0736 -0.0496 -0.4605
17309TIP3    H173342   4.982   4.450   3.722  0.9222  1.5535 -0.4414
17309TIP3    H273343   4.954   4.368   3.846 -0.9383  0.1928 -1.7213
17310TIP3   OH273344   2.575   1.312  10.832  0.0708  0.1986  0.3062
17310TIP3    H173345   2.611   1.227  10.808 -0.2559  0.4993 -1.3171
17310TIP3    H273346   2.652   1.368  10.845  0.2911 -0.4134  1.6680
17311TIP3   OH273347   0.963   6.627   4.332 -0.1373  0.0388  0.1428
17311TIP3    H173348   0.957   6.668   4.419 -0.7169 -1.0527  0.6277
17311TIP3    H273349   0.957   6.700   4.271  0.2501  0.8212  1.0166
17312TIP3   OH273350   3.200   3.965   0.163  0.2363  0.0835  0.1663
17312TIP3    H173351   3.238   4.024   0.098  0.8072 -0.3488  0.0993
17312TIP3    H273352   3.275   3.936   0.215 -0.4004  1.6742  2.0479
17313TIP3   OH273353   5.860   2.557  17.160  0.5764  0.8548 -0.1084
17313TIP3    H173354   5.887   2.527  17.074  0.1196  0.3073 -0.0595
17313TIP3    H273355   5.836   2.649  17.147  3.0921  1.5733 -0.0170
17314TIP3   OH273356   1.559   5.486  15.942 -0.4097 -0.0004 -0.1498
17314TIP3    H173357   1.638   5.469  15.891 -0.2223  1.3405 -0.3235
17314TIP3    H273358   1.531   5.573  15.914 -0.9145  0.2941  1.2404
17315TIP3   OH273359   0.550   4.984  15.388 -0.1463  1.4666  0.2093
17315TIP3    H173360   0.555   4.953  15.298 -0.0424  0.4717  0.5525
17315TIP3    H273361   0.639   4.975  15.422 -0.5458  0.1142  0.9574
17316TIP3   OH273362   4.636   0.310   5.713  0.5682  0.2745 -0.0792
17316TIP3    H173363   4.693   0.330   5.787 -0.5527  0.2774  0.7956
17316TIP3    H273364   4.613   0.395   5.676 -0.3468  0.3832  0.7090
17317TIP3   OH273365   4.189   6.292   0.289 -0.2691  0.2602 -0.4241
17317TIP3    H173366   4.276   6.278   0.253  0.6292  1.1043  1.3122
17317TIP3    H273367   4.144   6.208   0.278  1.2649 -0.6409 -0.0024
17318TIP3   OH273368   6.333   5.053  15.704  0.4994  0.2426 -0.1502
17318TIP3    H173369   6.381   5.083  15.627 -0.2432  0.5240 -0.5091
17318TIP3    H273370   6.242   5.048  15.675  0.0174  1.6363  1.0869
17319TIP3   OH273371   1.683   6.390   3.730 -0.6017 -0.2076 -0.0548
17319TIP3    H173372   1.749   6.459   3.730 -1.0164  0.1860 -0.9350
17319TIP3    H273373   1.680   6.359   3.640  0.4044 -2.1757  0.5498
17320TIP3   OH273374   0.291   2.773  16.913  0.1582  0.1369 -0.2656
17320TIP3    H173375   0.328   2.698  16.867  0.8972 -0.4024  1.1602
17320TIP3    H273376   0.272   2.740  17.001 -0.3267  1.3940  0.1133
17321TIP3   OH273377   6.538   6.062   3.355 -0.1038  0.0292  0.5853
17321TIP3    H173378   6.478   5.995   3.322 -0.5061  0.9594 -0.6034
17321TIP3    H273379   6.511   6.143   3.311  2.0629  0.4563 -0.0483
17322TIP3   OH273380   0.819   3.219  14.785 -0.2984 -0.3716  0.0320
17322TIP3    H173381   0.734   3.175  14.772 -0.5780  0.3150 -0.4939
17322TIP3    H273382   0.824   3.283  14.714  1.2348 -1.2696 -0.6801
17323TIP3   OH273383   3.432   0.614   3.777 -0.8132 -0.0275 -0.5897
17323TIP3    H173384   3.488   0.536   3.774 -0.6625 -0.1002  2.9191
17323TIP3    H273385   3.348   0.584   3.743 -0.0985 -1.1081 -1.4497
17324TIP3   OH273386   3.234   1.168  14.931 -0.1988 -0.9862  0.1579
17324TIP3    H173387   3.316   1.142  14.972  0.2656 -0.0164 -0.1440
17324TIP3    H273388   3.237   1.264  14.929 -0.4692 -0.9939 -1.5711
17325TIP3   OH273389   1.426   1.692  16.319 -0.4888 -0.0901  0.5772
17325TIP3    H173390   1.479   1.772  16.318  1.6272 -1.4406  1.7705
17325TIP3    H273391   1.430   1.659  16.230 -1.1802  1.0042  0.1332
17326TIP3   OH273392   2.631   5.722  14.576  0.2163 -0.4737 -0.0383
17326TIP3    H173393   2.686   5.799  14.589  1.2520 -1.3957  1.2349
17326TIP3    H273394   2.672   5.676  14.503  0.4403 -0.5388  0.1258
17327TIP3   OH273395   6.334   6.651  11.632 -0.3484 -0.6503  0.5879
17327TIP3    H173396   6.359   6.559  11.642 -0.0998 -0.6910 -0.3834
17327TIP3    H273397   6.416   6.700  11.643 -0.2133 -0.6455 -0.4673
17328TIP3   OH273398   1.324   2.262   4.446  0.4932 -0.5614 -0.1388
17328TIP3    H173399   1.414   2.230   4.438  0.2936 -0.7621 -1.9123
17328TIP3    H273400   1.282   2.234   4.365 -0.9661  0.1831  0.3459
17329TIP3   OH273401   3.723   1.129  14.075 -0.3722  0.1339  0.1903
17329TIP3    H173402   3.730   1.223  14.092 -3.3673  1.3910 -4.3888
17329TIP3    H273403   3.630   1.109  14.087  0.1921 -2.2457  0.9376
17330TIP3   OH273404   3.292   0.721   2.838 -0.5609  0.0733  0.2187
17330TIP3    H173405   3.335   0.657   2.781  1.4398 -0.0234  1.7701
17330TIP3    H273406   3.217   0.674   2.874  0.7285 -1.3795  1.1230
17331TIP3   OH273407   1.811   5.503   4.599  0.8041 -0.2214 -0.0759
17331TIP3    H173408   1.877   5.556   4.642  1.2100 -1.0431  0.3128
17331TIP3    H273409   1.728   5.547   4.619  1.1719  0.5175 -0.1414
17332TIP3   OH273410   3.003   1.079  14.314  0.2316 -0.4923  0.2148
17332TIP3    H173411   3.054   1.136  14.372  1.0736 -2.1526  1.1319
17332TIP3    H273412   2.953   1.023  14.373 -0.4636 -0.8289 -0.6813
17333TIP3   OH273413   4.343   0.856  16.996  0.0662 -0.1761 -0.1621
17333TIP3    H173414   4.313   0.766  16.987 -1.8749  0.2512  1.6360
17333TIP3    H273415   4.318   0.898  16.914  1.7767 -1.4528 -1.3832
17334TIP3   OH273416   2.154   0.318  13.852  0.5687 -0.4361 -0.0266
17334TIP3    H173417   2.084   0.271  13.898  0.4357 -0.2585 -0.0434
17334TIP3    H273418   2.186   0.255  13.787  0.9756 -0.7958  0.5232
17335TIP3   OH273419   1.990   1.351   4.018  0.2922 -0.1400  0.8182
17335TIP3    H173420   2.082   1.323   4.021  0.1154 -0.9357 -0.7749
17335TIP3    H273421   1.940   1.270   4.025 -0.2314 -0.1263 -2.1334
17336TIP3   OH273422   1.266   6.585   3.558 -0.3256  1.0239  0.1118
17336TIP3    H173423   1.228   6.673   3.560 -0.6320  0.9152 -0.5871
17336TIP3    H273424   1.206   6.532   3.611 -0.7044  1.0311 -0.2973
17337TIP3   OH273425   4.888   3.028  14.290  0.7562 -0.3453 -0.0662
17337TIP3    H173426   4.917   3.103  14.342  0.7594 -0.9137  0.7694
17337TIP3    H273427   4.904   3.053  14.199 -0.4069  1.1553  0.1359
17338TIP3   OH273428   1.424   1.177  12.595 -0.0411 -0.2802  0.4624
17338TIP3    H173429   1.422   1.261  12.548 -0.7584  0.4679  1.7906
17338TIP3    H273430   1.488   1.192  12.666  0.7980 -1.2880 -0.0752
17339TIP3   OH273431   3.697   0.346  11.888 -0.2868 -0.2912 -0.2144
17339TIP3    H173432   3.686   0.437  11.917  0.7191 -0.0874 -0.4558
17339TIP3    H273433   3.744   0.304  11.959 -1.2056 -0.7652  0.1230
17340TIP3   OH273434   6.072   6.089   4.427  0.9378  0.0191 -0.4614
17340TIP3    H173435   6.073   6.125   4.339 -0.7498 -0.7871 -0.8207
17340TIP3    H273436   5.995   6.128   4.468  2.0840  0.9229  0.9059
17341TIP3   OH273437   2.418   5.267  15.300  0.1855  0.8590  0.4956
17341TIP3    H173438   2.466   5.231  15.374 -1.0130 -0.9538  0.4395
17341TIP3    H273439   2.443   5.211  15.226 -0.7959  0.8709  0.1459
17342TIP3   OH273440   0.813   0.064   0.914 -0.2450 -0.3204 -0.3071
17342TIP3    H173441   0.884   0.007   0.886  1.0142  1.2881 -0.4468
17342TIP3    H273442   0.784   0.108   0.834  0.4589  1.0703  0.1987
17343TIP3   OH273443   3.595   4.112  11.084  0.3324 -0.3440 -0.3087
17343TIP3    H173444   3.641   4.100  11.001  0.4557  2.3370 -0.6754
17343TIP3    H273445   3.508   4.144  11.059 -0.0851 -0.7990  0.5495
17344TIP3   OH273446   5.526   5.270  16.881 -0.6824  0.2996 -0.1084
17344TIP3    H173447   5.522   5.365  16.885 -1.1393  0.2336  1.3197
17344TIP3    H273448   5.470   5.247  16.806  0.0297  1.1837 -0.9208
17345TIP3   OH273449   3.353   5.024   0.812  0.3860  0.0112  0.1987
17345TIP3    H173450   3.356   5.118   0.795  1.2834 -0.0105  0.2216
17345TIP3    H273451   3.438   4.992   0.782 -1.2848 -1.3897 -3.3609
17346TIP3   OH273452   5.112   3.245   1.438  0.8521 -0.3004  0.7520
17346TIP3    H173453   5.155   3.280   1.361 -0.2885  0.9612  0.6614
17346TIP3    H273454   5.040   3.193   1.404  0.1643  0.5031  0.9517
17347TIP3   OH273455   1.990   1.966   2.617  0.1684 -0.2111 -0.0377
17347TIP3    H173456   1.954   1.896   2.563  1.8552 -2.2511  1.4225
17347TIP3    H273457   2.072   1.989   2.573  0.4813 -0.3645  0.4733
17348TIP3   OH273458   5.182   5.023   2.392 -0.7691 -0.3765 -0.3359
17348TIP3    H173459   5.249   5.023   2.324 -1.1934  1.4003 -0.7914
17348TIP3    H273460   5.112   5.078   2.357 -1.4811 -0.3538  1.0618
17349TIP3   OH273461   1.446   5.200  15.038  0.0450 -0.5575 -0.2178
17349TIP3    H173462   1.418   5.279  14.992 -0.1567 -0.2599  0.4152
17349TIP3    H273463   1.365   5.151  15.052 -0.0202 -0.2261  0.6104
17350TIP3   OH273464   1.032   5.666  15.951  0.6697  0.1862  0.6916
17350TIP3    H173465   1.024   5.745  16.005  0.6937  1.5816 -1.3048
17350TIP3    H273466   1.125   5.644  15.954  1.1226  1.8141 -0.9213
17351TIP3   OH273467   2.392   4.745   3.862  1.0744 -0.6241  0.3667
17351TIP3    H173468   2.432   4.711   3.942 -0.2834 -1.4078  0.7354
17351TIP3    H273469   2.308   4.782   3.891  0.8725 -0.3242 -0.5940
17352TIP3   OH273470   4.489   2.372  12.652 -0.1582  0.2153  0.0187
17352TIP3    H173471   4.482   2.370  12.748 -0.3796 -0.4509 -0.0032
17352TIP3    H273472   4.538   2.292  12.630  2.5119  1.8530 -0.2388
17353TIP3   OH273473   6.140   5.902   6.009  0.4882 -0.1513 -0.1183
17353TIP3    H173474   6.066   5.950   5.972  0.2852 -0.3608  0.0120
17353TIP3    H273475   6.148   5.936   6.098  1.7694  1.2495 -0.7514
17354TIP3   OH273476   5.015   2.464   1.231 -0.4086 -0.4960 -0.5851
17354TIP3    H173477   4.956   2.463   1.306 -1.0594 -1.8377 -1.0866
17354TIP3    H273478   5.102   2.455   1.268 -0.7829 -1.9449 -0.0109
17355TIP3   OH273479   4.014   5.226  14.409 -0.2803  0.5148  0.0073
17355TIP3    H173480   4.058   5.232  14.325  1.6599  1.4547  1.0797
17355TIP3    H273481   4.024   5.134  14.435  1.4495  0.8246  0.4528
17356TIP3   OH273482   1.105   4.682   3.631  0.3238  0.4454 -0.1847
17356TIP3    H173483   1.135   4.657   3.544  0.3793 -0.1637  0.0065
17356TIP3    H273484   1.096   4.599   3.678  0.6239  0.7939  0.4961
17357TIP3   OH273485   5.494   3.989  14.463  0.3145  0.3380 -0.1094
17357TIP3    H173486   5.424   3.943  14.417  0.2556  0.1903  0.1303
17357TIP3    H273487   5.450   4.048  14.523  0.3787 -0.7625  1.0639
17358TIP3   OH273488   5.911   1.200  13.685 -0.0553  0.0176 -0.1826
17358TIP3    H173489   5.932   1.293  13.677  0.8014 -0.1219  0.2975
17358TIP3    H273490   5.992   1.155  13.658 -0.0451 -0.5578  0.7692
17359TIP3   OH273491   5.891   5.195   0.859 -0.2630  0.1529  0.3168
17359TIP3    H173492   5.945   5.274   0.870 -1.9151  1.3651 -0.1170
17359TIP3    H273493   5.847   5.207   0.776  0.6167 -1.9724 -0.5035
17360TIP3   OH273494   5.953   0.830   5.921  0.6817  0.0825 -0.1752
17360TIP3    H173495   6.026   0.869   5.970 -0.0603  0.9916  0.2140
17360TIP3    H273496   5.875   0.858   5.969  0.0756 -0.9326 -0.5633
17361TIP3   OH273497   6.144   3.210  16.510 -1.0780 -0.4459  0.5083
17361TIP3    H173498   6.158   3.221  16.416 -0.4898  0.2160  0.6699
17361TIP3    H273499   6.219   3.159  16.540 -1.6410 -1.2969  0.4967
17362TIP3   OH273500   5.009   2.425  12.460  0.8003  0.0636  0.1813
17362TIP3    H173501   5.075   2.471  12.512 -0.7571  0.2205  2.0789
17362TIP3    H273502   4.955   2.380  12.525 -0.9092 -0.1223 -1.3472
17363TIP3   OH273503   6.744   5.532   1.305 -0.6115  0.0996  0.0689
17363TIP3    H173504   6.769   5.601   1.367 -0.6788  1.9306 -1.8667
17363TIP3    H273505   6.705   5.464   1.359  1.9535  0.3669  2.3452
17364TIP3   OH273506   5.497   2.413   2.971  0.4808  0.2780 -0.5397
17364TIP3    H173507   5.581   2.386   3.008  0.3254 -0.0930 -0.4591
17364TIP3    H273508   5.459   2.333   2.935  0.8084  0.7087 -1.8647
17365TIP3   OH273509   3.016   5.168   1.111 -0.2240  0.0954 -0.4078
17365TIP3    H173510   3.105   5.147   1.139  0.2771  0.2590 -1.8126
17365TIP3    H273511   2.973   5.200   1.190  0.0355 -2.8198  0.9789
17366TIP3   OH273512   1.720   4.691   1.805 -0.0904 -0.2370  0.3020
17366TIP3    H173513   1.810   4.724   1.795  0.4909 -1.5291  1.1000
17366TIP3    H273514   1.669   4.769   1.827  0.1577  1.1565 -3.6612
17367TIP3   OH273515   1.191   6.449   4.956  0.6423  0.2828 -0.9092
17367TIP3    H173516   1.137   6.501   5.016  1.3349 -1.8309  1.6149
17367TIP3    H273517   1.170   6.484   4.870 -2.4131  1.6259  0.2879
17368TIP3   OH273518   2.676   0.588   2.832  0.4660  0.2304 -0.3366
17368TIP3    H173519   2.699   0.646   2.905  0.4935 -0.2334  0.0195
17368TIP3    H273520   2.689   0.643   2.754 -0.4296  1.0085  0.0450
17369TIP3   OH273521   4.093   4.616   0.838  0.3129  0.0065 -0.3684
17369TIP3    H173522   4.017   4.591   0.785  0.3244  0.9336 -0.8186
17369TIP3    H273523   4.164   4.560   0.806  0.3261  0.5856 -1.3483
17370TIP3   OH273524   6.440   0.787   0.604 -0.2316  0.3837 -0.3212
17370TIP3    H173525   6.480   0.867   0.639 -1.2999  0.2866  1.1787
17370TIP3    H273526   6.351   0.813   0.581 -0.8579 -0.5517  0.9566
17371TIP3   OH273527   3.150   4.647   6.715 -0.3740  0.2863 -0.0752
17371TIP3    H173528   3.191   4.605   6.791  2.5361 -1.4171 -2.4444
17371TIP3    H273529   3.192   4.605   6.640 -1.2527  3.7581 -2.6264
17372TIP3   OH273530   5.272   2.338  14.191  0.0700  0.4652 -0.1211
17372TIP3    H173531   5.230   2.389  14.121 -0.6116 -0.8075 -0.6563
17372TIP3    H273532   5.201   2.318  14.252 -0.0799 -1.5480 -0.9345
17373TIP3   OH273533   0.520   2.938  16.070 -0.1482  0.1924 -0.2264
17373TIP3    H173534   0.552   3.025  16.048  0.3627 -0.1538 -0.8730
17373TIP3    H273535   0.585   2.904  16.132  1.3214 -0.8932 -2.2927
17374TIP3   OH273536   6.024   3.548   2.389 -0.5745  0.0034  0.6856
17374TIP3    H173537   6.074   3.477   2.347 -0.5664  0.0455  0.6241
17374TIP3    H273538   6.015   3.519   2.480 -0.1680  0.1427  0.7718
17375TIP3   OH273539   3.033   6.717  13.816 -0.1554  0.5606  0.2522
17375TIP3    H173540   2.938   6.729  13.817 -0.2313 -0.0225  1.8588
17375TIP3    H273541   3.066   6.784  13.876  0.3121 -0.2626  0.9136
17376TIP3   OH273542   3.534   0.136  12.934  0.5962 -0.2959  0.2588
17376TIP3    H173543   3.595   0.062  12.935 -0.8576 -1.5261  0.5710
17376TIP3    H273544   3.471   0.115  12.865 -0.7248 -0.1106  1.3793
17377TIP3   OH273545   3.512   3.206  10.670  0.0164 -0.1358 -0.1785
17377TIP3    H173546   3.449   3.144  10.634  0.5723 -0.9360  0.2245
17377TIP3    H273547   3.572   3.152  10.721  0.8576  0.6573 -0.3230
17378TIP3   OH273548   2.256   5.392   2.094  0.2785  0.5841  0.3711
17378TIP3    H173549   2.257   5.475   2.046  2.5647  0.3785  0.0210
17378TIP3    H273550   2.334   5.395   2.149  1.2000 -1.9496 -0.7349
17379TIP3   OH273551   0.690   4.123  10.691  0.1819 -0.0671  0.1871
17379TIP3    H173552   0.741   4.201  10.670  2.8090 -1.5978  0.6079
17379TIP3    H273553   0.631   4.151  10.761  0.0271  1.9050 -0.7020
17380TIP3   OH273554   3.418   3.147   5.333  0.1362  0.2959  0.3119
17380TIP3    H173555   3.405   3.192   5.250 -0.6435  1.1451  0.8815
17380TIP3    H273556   3.513   3.134   5.339  0.0774 -1.0372 -1.3568
17381TIP3   OH273557   0.940   0.109  16.587  0.0832  0.4274  0.7911
17381TIP3    H173558   1.002   0.097  16.514 -0.7904 -1.1500  0.2789
17381TIP3    H273559   0.876   0.171  16.553 -0.4118 -0.4263  0.1461
17382TIP3   OH273560   5.899   3.161  13.789  0.4462 -0.0492 -0.7943
17382TIP3    H173561   5.948   3.080  13.799  0.4952  0.0550 -0.1875
17382TIP3    H273562   5.882   3.168  13.695 -1.7089 -2.0266 -0.6025
17383TIP3   OH273563   3.596   5.571   0.765  0.0653  0.2756 -0.5199
17383TIP3    H173564   3.657   5.639   0.737 -0.7066  1.2063  0.0291
17383TIP3    H273565   3.648   5.491   0.768  0.9762  0.8339 -1.1920
17384TIP3   OH273566   5.256   1.832  15.401  0.5317  0.4696 -0.1323
17384TIP3    H173567   5.201   1.753  15.402 -0.6708  1.2975  0.7909
17384TIP3    H273568   5.289   1.836  15.311  1.3173 -1.5584  0.0503
17385TIP3   OH273569   2.048   5.044  13.580 -0.2416 -0.9284 -0.0932
17385TIP3    H173570   2.027   5.036  13.487  0.5616  1.4032 -0.4914
17385TIP3    H273571   1.967   5.017  13.625 -1.3787  0.0980 -1.4809
17386TIP3   OH273572   4.804   6.582  14.346 -0.0551 -0.3052  0.3605
17386TIP3    H173573   4.717   6.621  14.346  0.1551  0.1870 -0.8821
17386TIP3    H273574   4.834   6.589  14.436 -0.9989  0.2105  0.6348
17387TIP3   OH273575   6.091   5.908  10.968  0.2101 -0.0300 -0.3341
17387TIP3    H173576   6.099   5.889  11.062 -0.0973  1.5937  0.0274
17387TIP3    H273577   6.153   5.848  10.927 -1.3448 -2.4470  0.6888
17388TIP3   OH273578   4.744   3.946   2.567 -0.0930 -0.1473  0.0308
17388TIP3    H173579   4.679   4.014   2.588 -0.0921 -0.2915  0.5113
17388TIP3    H273580   4.811   3.956   2.635  0.0503 -0.4408 -0.0671
17389TIP3   OH273581   0.680   1.516  14.402  0.7287 -0.6514  0.0138
17389TIP3    H173582   0.587   1.494  14.396  0.2888  0.1276  3.0296
17389TIP3    H273583   0.688   1.597  14.352 -0.7795  0.6876  1.8594
17390TIP3   OH273584   5.851   2.120  12.539 -0.5017  0.1527 -0.3855
17390TIP3    H173585   5.817   2.190  12.595 -1.1784 -1.0318  0.7250
17390TIP3    H273586   5.944   2.115  12.562 -0.5068  0.4976 -0.2776
17391TIP3   OH273587   2.320   3.243  11.984  0.0456  0.3083  0.2093
17391TIP3    H173588   2.291   3.201  12.065  0.4325  0.8547  0.6394
17391TIP3    H273589   2.322   3.337  12.005 -1.1301  0.5882 -0.8371
17392TIP3   OH273590   2.771   6.412   2.091  0.1862  0.1562  0.1331
17392TIP3    H173591   2.759   6.399   1.997  1.2843 -0.9077  0.1338
17392TIP3    H273592   2.860   6.380   2.109 -0.1242  0.0666  1.5808
17393TIP3   OH273593   6.197   2.979   3.567 -0.1923  0.6595  0.5411
17393TIP3    H173594   6.172   2.889   3.544 -1.8702  1.2438 -0.0291
17393TIP3    H273595   6.288   2.972   3.597 -0.4439 -1.2943  0.9345
17394TIP3   OH273596   4.458   4.045  11.108  0.3194  0.2117  0.3345
17394TIP3    H173597   4.533   4.023  11.163  0.3662 -0.4831  0.0006
17394TIP3    H273598   4.480   4.009  11.022  0.8168  2.4136 -0.4786
17395TIP3   OH273599   6.616   0.240   1.235  0.0212  0.2424 -0.0164
17395TIP3    H173600   6.705   0.253   1.266  0.1079  0.9610 -0.5506
17395TIP3    H273601   6.571   0.322   1.256 -0.3489  0.1221 -0.3232
17396TIP3   OH273602   5.736   6.029  11.882 -0.0778  0.4145  0.3784
17396TIP3    H173603   5.826   6.061  11.884 -0.4038  1.3397  0.7395
17396TIP3    H273604   5.743   5.935  11.895  0.9746  0.1739 -1.7440
17397TIP3   OH273605   6.327   2.666  14.777 -0.1423  0.2303  0.1421
17397TIP3    H173606   6.376   2.687  14.857  0.1007  1.4770 -0.3261
17397TIP3    H273607   6.389   2.681  14.706 -1.1912  1.8548 -0.4574
17398TIP3   OH273608   3.375   1.253  15.324  0.0907 -0.5241 -0.3546
17398TIP3    H173609   3.425   1.171  15.320  1.5772  0.4126 -1.9864
17398TIP3    H273610   3.417   1.303  15.395  0.1971 -0.5492 -0.3990
17399TIP3   OH273611   6.619   3.217   0.841 -0.2794  0.6465 -0.4355
17399TIP3    H173612   6.698   3.178   0.879 -0.5412  2.0628  1.6067
17399TIP3    H273613   6.591   3.154   0.775  0.9182 -1.2780  0.8432
17400TIP3   OH273614   6.359   4.322  14.119 -0.7847 -0.6952  0.4275
17400TIP3    H173615   6.314   4.349  14.199 -0.0797  3.6208 -0.5096
17400TIP3    H273616   6.297   4.342  14.049  0.7026  0.8244 -0.4928
17401TIP3   OH273617   0.585   2.355   1.294 -0.1606  0.1031 -0.7133
17401TIP3    H173618   0.499   2.385   1.322 -0.1754  0.1536 -0.8114
17401TIP3    H273619   0.646   2.390   1.360 -0.0962  0.9663 -1.2297
17402TIP3   OH273620   1.794   3.807   3.048  0.1462  0.2875 -0.2256
17402TIP3    H173621   1.810   3.897   3.019  1.2413  0.1044 -0.2124
17402TIP3    H273622   1.856   3.794   3.120 -0.8094 -0.0982  0.5493
17403TIP3   OH273623   4.955   4.027  15.464 -0.2587 -0.0869  0.6963
17403TIP3    H173624   5.020   3.967  15.500 -0.2903 -0.1673  0.6199
17403TIP3    H273625   4.979   4.113  15.499  0.2055 -0.0296  0.2346
17404TIP3   OH273626   3.186   4.000   1.662  0.6186  0.0808  0.0729
17404TIP3    H173627   3.241   4.075   1.643  1.0054 -0.2921 -0.2923
17404TIP3    H273628   3.165   3.963   1.577  2.7265 -1.8580  0.3408
17405TIP3   OH273629   0.297   3.672   0.497  0.1133  0.2878 -0.7661
17405TIP3    H173630   0.358   3.706   0.432  0.0347  2.0648  0.0579
17405TIP3    H273631   0.346   3.674   0.579 -0.6065  0.4504 -0.3329
17406TIP3   OH273632   0.999   3.615   3.764  0.3314 -0.0957  0.0803
17406TIP3    H173633   0.909   3.590   3.746  0.0342  0.1055  1.2512
17406TIP3    H273634   1.041   3.534   3.794  0.4186 -0.0867 -0.0160
17407TIP3   OH273635   1.145   5.545   3.331  0.0151 -0.4135 -0.2009
17407TIP3    H173636   1.132   5.630   3.372 -1.3407  0.1724 -1.8086
17407TIP3    H273637   1.172   5.488   3.403 -0.5877  1.0030  1.1711
17408TIP3   OH273638   6.290   5.637   2.855  0.2462 -0.1300  0.1087
17408TIP3    H173639   6.348   5.565   2.828 -0.3470 -0.5360 -0.1106
17408TIP3    H273640   6.335   5.716   2.827 -0.2165 -0.5285 -1.8500
17409TIP3   OH273641   2.335   1.621  14.639  1.1246  0.9287 -0.1942
17409TIP3    H173642   2.258   1.634  14.695 -0.5629 -0.4560 -2.1176
17409TIP3    H273643   2.385   1.702  14.650 -1.5831  2.7381 -0.4037
17410TIP3   OH273644   4.453   1.894  17.138  0.2833 -0.4265  0.4995
17410TIP3    H173645   4.520   1.833  17.105  0.7652 -0.0240  0.7196
17410TIP3    H273646   4.395   1.908  17.063 -0.4972 -2.0511  0.7806
17411TIP3   OH273647   1.399   3.048   5.899  0.2967 -0.3844  0.1540
17411TIP3    H173648   1.375   3.130   5.942  0.0816  0.9295 -2.3764
17411TIP3    H273649   1.446   2.998   5.966 -0.8359  1.1901  2.1637
17412TIP3   OH273650   5.179   3.508  12.913 -0.3954 -0.5307  0.6036
17412TIP3    H173651   5.252   3.571  12.908 -0.3317 -0.3659  2.8683
17412TIP3    H273652   5.179   3.465  12.828  0.1631  1.8778 -0.6726
17413TIP3   OH273653   1.224   1.149  14.229 -0.1092  0.2082  0.5311
17413TIP3    H173654   1.259   1.090  14.296 -0.1470  0.4592  0.7728
17413TIP3    H273655   1.133   1.162  14.254  0.0217  0.7404  0.7432
17414TIP3   OH273656   3.595   1.214   4.321  0.0212 -0.5681 -0.6511
17414TIP3    H173657   3.596   1.126   4.358 -2.1976  0.7670  2.8275
17414TIP3    H273658   3.686   1.244   4.327  0.7737 -2.5474 -1.8112
17415TIP3   OH273659   1.933   6.470   0.094  0.2800 -0.6191  0.4465
17415TIP3    H173660   2.023   6.501   0.090  1.1536 -3.0328  0.4569
17415TIP3    H273661   1.913   6.445   0.004 -1.2774  2.2471 -0.0483
17416TIP3   OH273662   4.634   5.394   4.467 -0.0016  0.1933  0.6021
17416TIP3    H173663   4.648   5.307   4.429  0.4664 -0.4320  2.1568
17416TIP3    H273664   4.718   5.417   4.507  0.1686  1.7951 -0.6052
17417TIP3   OH273665   4.753   1.066  16.222 -0.1239 -0.0044  0.4537
17417TIP3    H173666   4.812   1.117  16.278 -0.2755  0.0890  0.5257
17417TIP3    H273667   4.666   1.081  16.257 -0.7454  3.4136 -2.2966
17418TIP3   OH273668   1.119   5.408  17.112  0.1702  0.2337  0.0704
17418TIP3    H173669   1.102   5.381  17.021  0.8875  0.1831 -0.0510
17418TIP3    H273670   1.177   5.341  17.146 -1.2047 -0.5075  1.0163
17419TIP3   OH273671   5.824   6.756   1.179  0.0810  0.3349 -0.4274
17419TIP3    H173672   5.904   6.713   1.210 -0.9057 -0.4307  1.0611
17419TIP3    H273673   5.799   6.815   1.250  0.3458  1.9830 -1.6672
17420TIP3   OH273674   5.925   5.771  15.195 -0.6069  0.2916  0.3342
17420TIP3    H173675   5.956   5.724  15.273  2.7495  0.8791 -0.5524
17420TIP3    H273676   5.924   5.863  15.221 -0.4540  0.3886  0.0058
17421TIP3   OH273677   4.037   5.428   0.372 -1.2057 -0.3851  0.5611
17421TIP3    H173678   4.084   5.444   0.290 -2.0909 -0.0124  0.1159
17421TIP3    H273679   4.103   5.393   0.431 -0.1501  1.0220  0.2385
17422TIP3   OH273680   3.769   6.530   5.762  0.2295  0.3523  0.3141
17422TIP3    H173681   3.795   6.445   5.726 -0.9344  0.0972  0.0265
17422TIP3    H273682   3.805   6.594   5.701 -1.6254 -0.0762 -1.3198
17423TIP3   OH273683   3.843   0.632   4.202 -0.4524 -0.1680  0.2719
17423TIP3    H173684   3.923   0.685   4.210 -0.6313 -0.0731  1.6388
17423TIP3    H273685   3.865   0.550   4.247  0.0070 -1.4856 -2.3009
17424TIP3   OH273686   5.889   1.502  15.454  0.3285 -0.8365 -0.6926
17424TIP3    H173687   5.966   1.500  15.512  0.5997 -1.5007 -1.0647
17424TIP3    H273688   5.923   1.476  15.369 -0.2771 -0.9413 -0.8999
17425TIP3   OH273689   5.759   1.220   2.834 -0.2105  0.5181 -0.2134
17425TIP3    H173690   5.755   1.289   2.900  1.0612 -0.8479  1.3468
17425TIP3    H273691   5.809   1.150   2.876  0.7091 -0.3507 -2.6684
17426TIP3   OH273692   5.975   1.732  16.447 -0.0285  0.1262  0.3550
17426TIP3    H173693   5.932   1.816  16.435  1.7720  0.9666 -0.4774
17426TIP3    H273694   5.917   1.669  16.404  0.0871  1.3834 -1.7326
17427TIP3   OH273695   3.996   5.070  11.426  0.0120  0.2081  0.3384
17427TIP3    H173696   3.972   5.124  11.351  0.4170  1.4207  1.0653
17427TIP3    H273697   3.918   5.071  11.482 -0.4135 -0.9744 -0.1975
17428TIP3   OH273698   0.823   2.053   0.422 -0.5884  0.5271  0.2567
17428TIP3    H173699   0.875   2.127   0.390 -2.2756  1.2780 -0.7755
17428TIP3    H273700   0.786   2.085   0.504  0.4326  0.0409  0.9197
17429TIP3   OH273701   5.397   4.657  13.195 -0.0611  0.2615  0.1498
17429TIP3    H173702   5.460   4.724  13.171  0.0401  0.2421  0.3642
17429TIP3    H273703   5.317   4.705  13.216 -0.3098  0.2422 -0.7616
17430TIP3   OH273704   4.274   5.135  11.388  0.5880 -0.4399 -0.4963
17430TIP3    H173705   4.186   5.098  11.391 -0.8817  2.6819 -2.7050
17430TIP3    H273706   4.308   5.107  11.303  1.1913 -0.4340 -0.2564
17431TIP3   OH273707   6.301   0.175  10.809 -0.1357  0.3772 -0.1667
17431TIP3    H173708   6.265   0.169  10.721  0.2887  0.8298 -0.3709
17431TIP3    H273709   6.246   0.239  10.854  0.7007  1.4239 -0.6212
17432TIP3   OH273710   5.521   3.343  15.440  0.2316 -0.0343 -0.3422
17432TIP3    H173711   5.523   3.348  15.344  1.6303  1.2024 -0.2842
17432TIP3    H273712   5.538   3.433  15.468  2.2209 -0.8146  1.0639
17433TIP3   OH273713   5.658   1.315   4.816 -0.0284 -0.6019 -0.8090
17433TIP3    H173714   5.621   1.256   4.751 -1.7914  0.7824 -1.0638
17433TIP3    H273715   5.620   1.400   4.797 -0.5545 -0.1565  1.9919
17434TIP3   OH273716   1.204   0.273   4.030 -0.3081 -0.3445 -0.1291
17434TIP3    H173717   1.199   0.320   4.114  1.1824 -2.2784  1.0718
17434TIP3    H273718   1.288   0.228   4.033 -0.3554 -0.6413 -2.5788
17435TIP3   OH273719   1.742   3.613  12.527 -0.2945  0.2994 -0.7690
17435TIP3    H173720   1.765   3.563  12.605 -1.6684  1.4893  0.4141
17435TIP3    H273721   1.802   3.580  12.459 -0.0689 -1.7761  0.3834
17436TIP3   OH273722   5.816   3.577   5.616 -0.6969  0.0304 -0.0172
17436TIP3    H173723   5.803   3.507   5.552  0.2289  0.2993 -0.5006
17436TIP3    H273724   5.735   3.627   5.613 -0.8947 -0.3114 -0.5344
17437TIP3   OH273725   5.727   2.966  16.052  0.5277  0.2837 -0.0330
17437TIP3    H173726   5.633   2.979  16.061  0.6583 -0.0492  1.9492
17437TIP3    H273727   5.758   3.042  16.003 -0.6400  0.7843  0.0134
17438TIP3   OH273728   6.209   1.239  12.343  0.0449 -0.2171  1.0141
17438TIP3    H173729   6.269   1.311  12.328 -1.0112  0.2798 -1.0012
17438TIP3    H273730   6.123   1.273  12.316 -0.8085 -1.5482  1.9718
17439TIP3   OH273731   5.460   6.433   0.089  0.9647  0.1799  0.3061
17439TIP3    H173732   5.376   6.406   0.125 -0.5740  1.5316 -2.1140
17439TIP3    H273733   5.467   6.526   0.111  0.5582  0.7239 -1.7328
17440TIP3   OH273734   5.427   4.319   5.368  0.2910 -0.3548  0.1168
17440TIP3    H173735   5.387   4.302   5.282  0.7046 -1.1107  0.0660
17440TIP3    H273736   5.363   4.288   5.431  0.1450 -0.1456  0.0717
17441TIP3   OH273737   5.367   4.062  14.927 -0.1198 -0.3262 -0.1652
17441TIP3    H173738   5.362   3.970  14.901 -1.6860 -0.4440  0.5025
17441TIP3    H273739   5.446   4.068  14.981  0.9913 -0.8904 -1.6775
17442TIP3   OH273740   2.612   1.639  11.352  0.1995 -0.1595  0.2579
17442TIP3    H173741   2.617   1.544  11.341  0.3437 -0.1690  0.4170
17442TIP3    H273742   2.541   1.652  11.415 -0.3795 -0.1215 -0.3874
17443TIP3   OH273743   6.448   5.902  15.478  0.3607 -0.0062 -0.2826
17443TIP3    H173744   6.427   5.872  15.390  0.5896  0.2151 -0.4142
17443TIP3    H273745   6.493   5.829  15.519  3.4388  1.1331 -1.5313
17444TIP3   OH273746   6.474   1.157   4.441  0.1405  0.4746 -0.2296
17444TIP3    H173747   6.490   1.073   4.485  0.5306  0.0817 -1.1010
17444TIP3    H273748   6.536   1.217   4.482 -0.8017  0.5841  1.0748
17445TIP3   OH273749   0.396   6.651  12.318  0.2230  0.0103  0.8821
17445TIP3    H173750   0.473   6.646  12.261  0.2414  4.3547  0.3449
17445TIP3    H273751   0.431   6.646  12.407  0.6185 -2.5278  0.6209
17446TIP3   OH273752   3.948   3.328   3.723 -0.0530  0.3131  0.3138
17446TIP3    H173753   3.862   3.286   3.720 -0.1831  0.5199  1.0193
17446TIP3    H273754   4.005   3.269   3.675  0.0128 -1.2571  2.3090
17447TIP3   OH273755   2.517   0.895   3.383  0.2796 -0.0427 -0.4558
17447TIP3    H173756   2.610   0.911   3.394  0.2782 -0.3841  0.0460
17447TIP3    H273757   2.475   0.950   3.450  0.2047 -1.1109  0.3928
17448TIP3   OH273758   4.924   0.715   0.297 -0.1435  0.2318  0.5541
17448TIP3    H173759   4.857   0.780   0.318 -1.2056 -0.7752  0.3744
17448TIP3    H273760   4.877   0.631   0.300  0.9170 -0.4114 -0.4033
17449TIP3   OH273761   3.118   0.550   3.275  0.1657  0.1261  0.8388
17449TIP3    H173762   3.074   0.478   3.229 -0.6405  0.5189  0.9805
17449TIP3    H273763   3.184   0.581   3.214  2.4290 -2.5582  1.8381
17450TIP3   OH273764   3.142   2.967   1.013 -0.3317 -0.4594 -0.5308
17450TIP3    H173765   3.062   3.020   1.015 -1.4068 -2.0840  0.6287
17450TIP3    H273766   3.111   2.878   1.001  1.3292 -1.0953 -0.2340
17451TIP3   OH273767   5.101   5.361  14.664  0.2876 -0.3195  0.0051
17451TIP3    H173768   5.143   5.425  14.606  1.9476 -1.0483  0.3861
17451TIP3    H273769   5.032   5.410  14.708  0.6099  0.8530 -0.7716
17452TIP3   OH273770   1.373   4.211   3.348 -0.2723  0.1059  0.3960
17452TIP3    H173771   1.383   4.193   3.441  1.2482  2.4955  0.7494
17452TIP3    H273772   1.319   4.290   3.344 -1.2768 -0.6165 -0.8070
17453TIP3   OH273773   4.276   1.533   1.692 -0.5304 -0.0738 -0.1382
17453TIP3    H173774   4.235   1.527   1.606 -0.2932 -1.0234 -0.1958
17453TIP3    H273775   4.360   1.487   1.682  1.0136  2.6953 -0.2868
17454TIP3   OH273776   4.919   3.584   0.389  0.5749  0.1388  0.2156
17454TIP3    H173777   4.912   3.647   0.460 -0.0000  0.6537 -0.2918
17454TIP3    H273778   4.899   3.500   0.429  0.3399  0.4151  0.6773
17455TIP3   OH273779   4.554   1.428  15.520  0.2081 -0.2155  0.1399
17455TIP3    H173780   4.634   1.480  15.522  1.0786 -1.4835 -0.9547
17455TIP3    H273781   4.582   1.339  15.540 -0.8677 -0.7188 -0.5316
17456TIP3   OH273782   5.299   5.330  11.702 -0.4774  0.1883  0.0728
17456TIP3    H173783   5.350   5.296  11.629 -1.8232  0.7601 -1.1548
17456TIP3    H273784   5.247   5.401  11.665 -0.7026  0.9200  1.7271
17457TIP3   OH273785   1.873   1.751  11.991 -0.3573  0.0795 -0.8611
17457TIP3    H173786   1.873   1.707  11.906  0.5147 -0.4521 -0.5885
17457TIP3    H273787   1.865   1.680  12.055  1.1275  0.3048 -0.4175
17458TIP3   OH273788   5.770   4.507  11.614  0.0076  0.4288 -0.7087
17458TIP3    H173789   5.705   4.577  11.617  1.5403  1.8253  0.1073
17458TIP3    H273790   5.828   4.532  11.542  0.1752 -0.3519 -0.8456
17459TIP3   OH273791   5.747   5.645   5.069 -0.5608 -0.2899  0.6128
17459TIP3    H173792   5.722   5.723   5.118 -0.7803 -0.3714  0.6287
17459TIP3    H273793   5.825   5.612   5.115  1.5351  1.7672 -1.2893
17460TIP3   OH273794   4.521   4.346  16.915 -0.7451  0.3965  0.0836
17460TIP3    H173795   4.510   4.324  17.008 -3.1765  0.7043 -0.0931
17460TIP3    H273796   4.472   4.427  16.904 -1.0308  0.0078 -1.6197
17461TIP3   OH273797   4.649   3.634   0.296  0.3324 -0.2987  0.0929
17461TIP3    H173798   4.658   3.544   0.327  0.5483 -0.1737  0.4003
17461TIP3    H273799   4.721   3.645   0.234 -1.0487 -1.0574 -1.6965
17462TIP3   OH273800   1.085   4.989  17.086 -0.8538  0.0358 -0.3511
17462TIP3    H173801   1.121   4.940  17.013 -0.2538  1.1981 -0.8482
17462TIP3    H273802   1.159   5.000  17.146 -1.1211 -0.1428  0.0139
17463TIP3   OH273803   1.139   3.709  12.931  0.7823 -0.2471  0.0966
17463TIP3    H173804   1.215   3.714  12.873  1.4815  0.2960  1.0312
17463TIP3    H273805   1.132   3.797  12.969 -0.9592  0.0201 -0.7721
17464TIP3   OH273806   4.520   5.600  17.016 -0.5295 -0.0083  0.1493
17464TIP3    H173807   4.548   5.519  17.061  0.6359  0.2295 -0.1182
17464TIP3    H273808   4.601   5.649  17.004 -1.4981  2.2181  2.2694
17465TIP3   OH273809   2.806   3.398   3.576 -0.2408  0.1863  0.3303
17465TIP3    H173810   2.726   3.426   3.532  0.7317  2.1882 -0.2087
17465TIP3    H273811   2.787   3.406   3.669 -0.3120  1.7203  0.1898
17466TIP3   OH273812   2.208   6.536   2.116  0.0890 -0.4526 -0.1371
17466TIP3    H173813   2.201   6.442   2.127  1.2028 -0.5861 -0.5819
17466TIP3    H273814   2.209   6.571   2.205 -0.3785 -0.8500  0.0268
17467TIP3   OH273815   3.147   6.684  16.785  0.0336  0.5718 -0.6545
17467TIP3    H173816   3.212   6.683  16.714 -0.6784 -0.9929 -1.3005
17467TIP3    H273817   3.197   6.712  16.862  1.2483  0.4449 -1.3769
17468TIP3   OH273818   1.485   5.734  15.821  0.0203 -0.0240  0.4582
17468TIP3    H173819   1.509   5.813  15.869 -0.5856 -0.1097  0.9119
17468TIP3    H273820   1.410   5.761  15.767  2.4502  0.8456 -2.6520
17469TIP3   OH273821   0.740   5.177  13.147  0.0043 -0.4835 -0.4396
17469TIP3    H173822   0.680   5.219  13.085  1.1212  1.0966 -0.4946
17469TIP3    H273823   0.753   5.243  13.215  0.5114 -1.3849  0.3351
17470TIP3   OH273824   2.024   2.566   3.865 -0.1978  0.3037  0.6566
17470TIP3    H173825   2.017   2.518   3.948 -0.3241  0.9455  1.0229
17470TIP3    H273826   2.008   2.657   3.889  0.2562  0.5605  0.0025
17471TIP3   OH273827   3.630   4.334  13.846  0.6772 -0.2734  0.7494
17471TIP3    H173828   3.650   4.250  13.805 -0.0318  0.2198 -0.6327
17471TIP3    H273829   3.714   4.368  13.875  0.9446 -1.5289  1.4293
17472TIP3   OH273830   1.211   1.929  17.227 -0.1622  0.7275  0.2505
17472TIP3    H173831   1.165   1.914  17.310  0.5991  0.5978  0.6529
17472TIP3    H273832   1.245   1.844  17.203 -3.1228  0.0723 -1.8878
17473TIP3   OH273833   5.925   3.033   2.479  0.3704 -0.2286 -0.1136
17473TIP3    H173834   5.968   2.950   2.461  1.6448  0.7055 -1.4407
17473TIP3    H273835   5.923   3.078   2.395 -0.9963  0.7727  0.4321
17474TIP3   OH273836   4.367   6.009  11.422 -0.2002  0.1915 -0.0784
17474TIP3    H173837   4.421   5.972  11.492 -1.5476 -1.8162 -0.0843
17474TIP3    H273838   4.424   6.009  11.346  0.6613  0.6013  0.5557
17475TIP3   OH273839   3.881   3.305   5.171 -0.0223  1.2218 -0.6266
17475TIP3    H173840   3.817   3.358   5.124 -1.6754 -0.3618 -0.2335
17475TIP3    H273841   3.954   3.295   5.110 -0.6372  2.0825 -1.5198
17476TIP3   OH273842   4.429   5.746  12.334 -0.7832 -0.1679  0.8463
17476TIP3    H173843   4.481   5.729  12.255 -0.4450 -0.3145  1.0980
17476TIP3    H273844   4.338   5.745  12.303 -0.5883  1.5080  0.1346
17477TIP3   OH273845   1.581   5.680   2.904 -0.4362  0.7476  0.1097
17477TIP3    H173846   1.528   5.634   2.839  0.3082  1.2050 -0.8379
17477TIP3    H273847   1.599   5.765   2.864 -0.2350  1.1504  1.0534
17478TIP3   OH273848   2.807   0.409  13.248  0.5591  0.0654 -0.0175
17478TIP3    H173849   2.722   0.365  13.246  1.2613 -1.4594  1.5770
17478TIP3    H273850   2.859   0.362  13.182 -0.0703  1.5442 -1.5901
17479TIP3   OH273851   4.378   0.355   2.494  0.3120  0.0241 -0.2735
17479TIP3    H173852   4.466   0.358   2.532 -0.0813 -0.7776  0.7408
17479TIP3    H273853   4.341   0.441   2.512  1.1956  0.6798 -1.4953
17480TIP3   OH273854   1.800   2.507   1.703  0.0631  0.3574 -0.2606
17480TIP3    H173855   1.819   2.430   1.649 -1.4510  0.6748 -1.2840
17480TIP3    H273856   1.785   2.577   1.640  1.8736  1.6316  0.6788
17481TIP3   OH273857   3.545   5.065  13.261 -0.1670 -0.1965 -0.4437
17481TIP3    H173858   3.574   5.040  13.173 -1.6033 -1.6984 -0.5093
17481TIP3    H273859   3.590   5.004  13.319  0.7894  0.8040 -0.1099
17482TIP3   OH273860   4.367   6.577   4.173  0.0639  0.3906 -0.2961
17482TIP3    H173861   4.356   6.483   4.184 -0.0955  0.1699 -2.1641
17482TIP3    H273862   4.417   6.605   4.250  0.9926 -1.3969 -0.2256
17483TIP3   OH273863   0.813   3.607  11.597  0.3890 -0.0770  0.1420
17483TIP3    H173864   0.786   3.545  11.530 -0.8589 -0.9108  1.4006
17483TIP3    H273865   0.899   3.637  11.568 -0.4618  0.2157 -2.2663
17484TIP3   OH273866   3.262   4.602  11.954  0.3876  0.1020  0.0169
17484TIP3    H173867   3.335   4.574  11.899 -0.2390  2.2777 -1.9784
17484TIP3    H273868   3.191   4.542  11.931  0.3516  0.5306 -1.0096
17485TIP3   OH273869   5.469   6.599  17.059  0.0358 -0.1261 -0.0672
17485TIP3    H173870   5.423   6.656  17.120 -0.8139 -1.2672  0.3674
17485TIP3    H273871   5.425   6.515  17.066  0.8226 -0.6525 -1.2284
17486TIP3   OH273872   4.045   4.262  15.480 -0.0262 -0.3363  0.8725
17486TIP3    H173873   3.974   4.208  15.514  0.2228 -0.5345  1.0854
17486TIP3    H273874   4.123   4.208  15.489  0.0924 -0.2682  0.2711
17487TIP3   OH273875   1.307   3.182  12.051 -0.4294  0.1316 -0.7065
17487TIP3    H173876   1.303   3.257  12.110 -0.0128 -0.1514 -0.3148
17487TIP3    H273877   1.236   3.124  12.079 -0.6841  0.3298 -0.9402
17488TIP3   OH273878   3.511   2.116  12.896  0.7997  0.0245 -0.5465
17488TIP3    H173879   3.517   2.210  12.880  1.8877 -0.0410 -0.5400
17488TIP3    H273880   3.436   2.107  12.955  0.4585  0.8419 -0.8402
17489TIP3   OH273881   5.612   0.211   1.021 -0.7745  0.2220  0.8440
17489TIP3    H173882   5.643   0.123   1.002  0.8197  0.5942  1.6239
17489TIP3    H273883   5.676   0.247   1.082 -1.0794  2.1191  0.1158
17490TIP3   OH273884   4.483   4.807  12.347  0.2027  0.3409 -0.5297
17490TIP3    H173885   4.460   4.885  12.296 -1.7278 -0.0889 -0.3413
17490TIP3    H273886   4.417   4.742  12.324 -0.5871  0.0587  2.3334
17491TIP3   OH273887   1.084   1.762  13.283 -0.3228 -0.4557 -0.6074
17491TIP3    H173888   1.135   1.719  13.214 -1.2868  0.1421 -1.7259
17491TIP3    H273889   1.123   1.849  13.292 -0.2171 -0.5222 -0.4261
17492TIP3   OH273890   5.935   6.096   5.026  0.4347  0.1688 -0.4607
17492TIP3    H173891   5.859   6.046   5.057 -1.0824  3.1301  0.9152
17492TIP3    H273892   5.994   6.098   5.101  0.3840  0.5747 -0.4267
17493TIP3   OH273893   4.560   4.980  16.985 -0.4215 -0.1610  0.4877
17493TIP3    H173894   4.493   4.998  16.919  0.2635  1.1833  0.1445
17493TIP3    H273895   4.518   5.000  17.068 -0.3406  1.0564  0.2487
17494TIP3   OH273896   6.445   1.822   3.866  0.3416 -0.1890  0.1171
17494TIP3    H173897   6.397   1.776   3.797 -0.4229  1.4173 -0.4629
17494TIP3    H273898   6.437   1.915   3.843  0.2092  0.3723  2.2687
17495TIP3   OH273899   3.948   0.061  16.266 -0.3251 -0.6069  0.4132
17495TIP3    H173900   3.897   0.048  16.346 -0.6878 -1.0623  0.1105
17495TIP3    H273901   4.027   0.008  16.280 -0.1801 -0.3320  0.6534
17496TIP3   OH273902   1.928   2.279  12.668 -0.1029 -0.0793 -0.0242
17496TIP3    H173903   1.979   2.335  12.727  0.6225 -1.3140  0.5215
17496TIP3    H273904   1.870   2.229  12.725  1.1762 -1.8763 -0.2649
17497TIP3   OH273905   1.286   5.668   2.994 -0.0881  0.0489 -0.0512
17497TIP3    H173906   1.192   5.675   2.976 -0.2572  0.6721  1.0714
17497TIP3    H273907   1.321   5.621   2.918 -0.9540  1.8061 -1.5893
17498TIP3   OH273908   3.362   5.730  13.961 -0.5492 -0.4108 -0.8663
17498TIP3    H173909   3.441   5.682  13.935 -1.4537 -2.0949 -0.6044
17498TIP3    H273910   3.335   5.688  14.043 -0.5736  1.5050  0.1195
17499TIP3   OH273911   3.342   0.455   4.090 -0.1023 -0.4712  0.4395
17499TIP3    H173912   3.419   0.512   4.089 -1.2307  1.0771 -1.2990
17499TIP3    H273913   3.378   0.366   4.085  1.5529  0.2926 -1.9041
17500TIP3   OH273914   5.140   2.628  16.408  0.4882 -0.5228  0.0695
17500TIP3    H173915   5.183   2.700  16.362  2.6317 -2.0949 -0.4796
17500TIP3    H273916   5.086   2.671  16.474  1.2557  1.6033 -0.6368
17501TIP3   OH273917   6.051   1.194   0.673 -0.1872  0.0626  0.2398
17501TIP3    H173918   6.097   1.241   0.604 -1.3377 -0.8899 -1.2172
17501TIP3    H273919   6.120   1.156   0.727  0.7914 -1.9415 -2.3042
17502TIP3   OH273920   3.790   2.188   2.586  0.6882  0.0664  0.0488
17502TIP3    H173921   3.843   2.259   2.623  0.6462  0.6370 -0.9672
17502TIP3    H273922   3.789   2.206   2.492  0.0545 -0.8670 -0.1254
17503TIP3   OH273923   4.736   2.576  11.987 -0.2481  0.3382  0.1766
17503TIP3    H173924   4.768   2.621  12.066 -1.7373  1.1321  0.3325
17503TIP3    H273925   4.689   2.644  11.938 -1.2768 -0.7006 -0.2926
17504TIP3   OH273926   2.538   6.637   1.556  0.0548 -0.3217  0.4735
17504TIP3    H173927   2.495   6.679   1.482 -0.2528 -0.3105  0.6565
17504TIP3    H273928   2.606   6.699   1.583  0.6585 -0.6591 -0.2680
17505TIP3   OH273929   4.740   6.243   0.651  0.0074 -0.1595 -0.5889
17505TIP3    H173930   4.783   6.177   0.707  0.8540  1.2761  0.4837
17505TIP3    H273931   4.674   6.283   0.708  0.1289  0.5625 -0.9565
17506TIP3   OH273932   1.908   5.752   2.978  0.0276 -0.0012 -0.1865
17506TIP3    H173933   1.829   5.753   2.923 -0.1546  0.9264  0.0998
17506TIP3    H273934   1.887   5.808   3.052  0.5644 -0.6370  0.4537
17507TIP3   OH273935   3.206   6.756  11.851  0.8852 -0.3004  0.3219
17507TIP3    H173936   3.137   6.802  11.804  1.0268  0.8005  1.1829
17507TIP3    H273937   3.167   6.670  11.871 -0.1269  0.2008  0.5500
17508TIP3   OH273938   4.277   2.044   6.002  0.0662  0.1384 -0.2828
17508TIP3    H173939   4.284   1.966   6.058  0.7077  1.8226  2.0441
17508TIP3    H273940   4.367   2.063   5.977  0.0064  0.6960 -0.0644
17509TIP3   OH273941   1.331   5.572  12.780  0.4247 -0.4902 -0.6832
17509TIP3    H173942   1.422   5.549  12.800  0.3981 -0.5907 -0.6741
17509TIP3    H273943   1.326   5.666  12.793  1.3367  0.0390 -3.8847
17510TIP3   OH273944   1.295   0.537   3.556 -0.5703 -0.1825 -0.2211
17510TIP3    H173945   1.273   0.630   3.552 -0.3854 -0.1657 -0.8039
17510TIP3    H273946   1.216   0.496   3.593 -0.0058  0.4246  1.7282
17511TIP3   OH273947   6.387   1.343  14.094  0.0416  0.3592 -0.2135
17511TIP3    H173948   6.432   1.347  14.009  1.3207  0.8116  0.4684
17511TIP3    H273949   6.403   1.254  14.125 -0.6789  0.1012 -0.5815
17512TIP3   OH273950   4.771   5.564  13.084  0.7255  0.9245 -0.3802
17512TIP3    H173951   4.856   5.586  13.045  0.6551  0.5925 -0.7190
17512TIP3    H273952   4.707   5.600  13.023  0.6226  1.4238  0.0179
17513TIP3   OH273953   6.408   3.638  16.839  0.0628 -0.3874 -0.0101
17513TIP3    H173954   6.494   3.679  16.833  0.3783 -1.3126 -2.5449
17513TIP3    H273955   6.400   3.587  16.758 -2.9116 -0.2151  0.1081
17514TIP3   OH273956   5.061   2.190   3.339 -0.5566 -0.1647  0.2672
17514TIP3    H173957   5.084   2.200   3.432 -0.2500 -0.0341  0.1768
17514TIP3    H273958   4.965   2.199   3.338 -0.5265  0.2353  0.5206
17515TIP3   OH273959   4.195   4.377   2.222  0.4193  0.3105 -0.7567
17515TIP3    H173960   4.148   4.454   2.253 -0.3746 -0.5785  0.2662
17515TIP3    H273961   4.285   4.408   2.209  1.0963  0.4530  3.5976
17516TIP3   OH273962   2.754   2.465   1.611 -0.5411  0.3874 -0.0675
17516TIP3    H173963   2.689   2.490   1.545 -2.2098 -0.1260  1.3662
17516TIP3    H273964   2.811   2.402   1.565 -1.5631  0.1907 -1.0911
17517TIP3   OH273965   3.529   3.104   5.955  0.0227 -0.1791 -0.1966
17517TIP3    H173966   3.585   3.168   5.999  0.7509 -1.0094  0.0803
17517TIP3    H273967   3.489   3.154   5.883 -0.5970  0.9855  0.9244
17518TIP3   OH273968   3.653   5.173   0.913  0.5664  0.1123 -0.2662
17518TIP3    H173969   3.704   5.242   0.871  0.3069  1.1776  1.1241
17518TIP3    H273970   3.610   5.216   0.986 -0.0274 -1.4142  0.3139
17519TIP3   OH273971   5.255   4.249  12.225 -0.5488 -0.2084 -0.0746
17519TIP3    H173972   5.255   4.206  12.310  0.6815 -1.0363 -0.4743
17519TIP3    H273973   5.221   4.183  12.164 -2.5447  0.7608 -0.0687
17520TIP3   OH273974   0.174   4.007  12.040  0.0659  0.4831 -0.1353
17520TIP3    H173975   0.228   4.072  11.995  0.3387 -0.8408 -1.7493
17520TIP3    H273976   0.203   3.923  12.006 -1.1181 -0.4244  1.0361
17521TIP3   OH273977   3.815   6.688  15.445  0.4527  0.1611  0.3551
17521TIP3    H173978   3.758   6.699  15.369 -0.3783 -0.7816  0.8221
17521TIP3    H273979   3.803   6.768  15.496 -1.9404 -0.7970  1.3947
17522TIP3   OH273980   2.107   4.415   4.455 -0.2629 -0.3226  0.3465
17522TIP3    H173981   2.091   4.468   4.376  0.2824 -0.7701 -0.0616
17522TIP3    H273982   2.170   4.466   4.505  0.4097 -0.6690 -0.1371
17523TIP3   OH273983   4.951   1.621  10.440  0.2990 -0.4487 -0.0420
17523TIP3    H173984   4.931   1.691  10.378 -0.2830 -1.0055 -0.4930
17523TIP3    H273985   5.019   1.569  10.397 -0.9253 -1.5155 -0.7538
17524TIP3   OH273986   4.358   4.627  14.594  0.1049 -0.0214  0.0144
17524TIP3    H173987   4.342   4.533  14.605  1.3678 -0.2369  0.0767
17524TIP3    H273988   4.418   4.633  14.520  1.0697  0.6333  0.8261
17525TIP3   OH273989   6.112   5.978   6.275  0.4212  0.3720 -0.0837
17525TIP3    H173990   6.065   6.015   6.350 -0.0656 -0.2258 -0.0902
17525TIP3    H273991   6.187   5.933   6.314  0.5051  0.5794 -0.0041
17526TIP3   OH273992   1.891   4.493   4.907  0.3167  0.1159  0.1489
17526TIP3    H173993   1.981   4.525   4.914  0.5667 -0.5534  0.0526
17526TIP3    H273994   1.837   4.572   4.907  0.7970  0.4604  1.8669
17527TIP3   OH273995   2.878   3.965  13.545 -0.0991 -0.2445 -0.0886
17527TIP3    H173996   2.942   4.013  13.597  0.2602  0.1102 -0.8527
17527TIP3    H273997   2.859   4.023  13.471  0.4252 -1.3370 -1.0849
17528TIP3   OH273998   2.516   1.192   3.840 -0.9300  0.3112  0.4611
17528TIP3    H173999   2.566   1.227   3.913  1.6471 -0.8054 -0.6879
17528TIP3    H274000   2.503   1.099   3.861 -2.3434  0.5388  0.6389
17529TIP3   OH274001   6.408   3.194  15.145 -0.0561  0.1041  0.1277
17529TIP3    H174002   6.440   3.273  15.188  1.0501 -0.4371  0.3274
17529TIP3    H274003   6.487   3.151  15.112 -0.6642 -0.8003 -0.1742
17530TIP3   OH274004   4.546   2.622  15.174  0.4641  0.0245 -0.2032
17530TIP3    H174005   4.480   2.635  15.105 -0.7770  2.2102  1.3359
17530TIP3    H274006   4.612   2.690  15.157  1.0371 -0.5351 -0.2359
17531TIP3   OH274007   0.244   4.723  13.801 -0.0603 -0.0024  0.5299
17531TIP3    H174008   0.331   4.683  13.805  0.2630  0.8170  2.3709
17531TIP3    H274009   0.247   4.793  13.867 -1.6291  1.0092 -0.4439
17532TIP3   OH274010   1.794   6.427   1.141  0.2714  0.7108 -0.0789
17532TIP3    H174011   1.727   6.370   1.176 -0.3202  1.6409  0.3035
17532TIP3    H274012   1.749   6.481   1.076  1.1314 -0.2715 -1.5355
17533TIP3   OH274013   6.656   4.502   2.966  0.3718 -0.3083  0.2903
17533TIP3    H174014   6.607   4.503   2.884  1.5555  0.0021 -0.4292
17533TIP3    H274015   6.747   4.485   2.940  1.1745  2.1314  1.2846
17534TIP3   OH274016   5.474   4.134   4.778 -0.1638  0.5918  0.1855
17534TIP3    H174017   5.558   4.169   4.748 -0.1710  1.2192  0.8742
17534TIP3    H274018   5.421   4.212   4.797 -0.7986  0.2002  0.0452
17535TIP3   OH274019   0.482   4.446   6.349 -0.1686 -0.5461  0.4781
17535TIP3    H174020   0.548   4.515   6.352 -0.0053 -0.7367  1.3374
17535TIP3    H274021   0.528   4.369   6.316 -0.1719 -0.4517  0.2502
17536TIP3   OH274022   0.547   3.165   2.918  0.1882  0.0660  0.2121
17536TIP3    H174023   0.616   3.226   2.944  0.8291 -0.2752 -0.6901
17536TIP3    H274024   0.479   3.221   2.880  1.3641  0.1111 -1.8781
17537TIP3   OH274025   6.615   0.135  11.716 -0.7686 -0.2191  0.3038
17537TIP3    H174026   6.694   0.122  11.768 -0.3005 -0.3629 -0.4294
17537TIP3    H274027   6.543   0.105  11.772 -0.3646  0.4488  1.1953
17538TIP3   OH274028   5.587   5.340  16.247  0.0035 -0.2720  0.3186
17538TIP3    H174029   5.665   5.345  16.191 -0.1279  0.2303  0.1749
17538TIP3    H274030   5.617   5.293  16.325  0.2514 -0.7561 -0.0617
17539TIP3   OH274031   3.977   4.348   2.490 -0.2517 -0.5442  0.1403
17539TIP3    H174032   4.017   4.398   2.418 -0.3946  0.9208  1.0630
17539TIP3    H274033   4.026   4.374   2.567 -2.4789  0.7195  1.1791
17540TIP3   OH274034   2.279   4.940  11.651 -0.0448 -0.0446 -0.6280
17540TIP3    H174035   2.314   4.992  11.580 -0.2407 -0.2321 -0.8640
17540TIP3    H274036   2.356   4.899  11.692  0.2233  1.3821  0.3267
17541TIP3   OH274037   2.631   4.339   5.280 -0.0500 -0.2815  0.6444
17541TIP3    H174038   2.719   4.310   5.256 -0.2835 -1.4480  1.1803
17541TIP3    H274039   2.642   4.432   5.300  0.8159 -0.1259 -0.5064
17542TIP3   OH274040   6.605   5.599  10.984 -0.6202  0.7219  0.4571
17542TIP3    H174041   6.589   5.507  10.966 -0.2133  0.7770 -0.2001
17542TIP3    H274042   6.683   5.599  11.040  0.1224  0.7346 -0.5750
17543TIP3   OH274043   0.109   1.928  11.338  0.4199 -0.1007 -0.2247
17543TIP3    H174044   0.185   1.905  11.392 -1.7621  0.0430  3.0148
17543TIP3    H274045   0.133   2.012  11.299  2.6458 -0.9214 -0.7288
17544TIP3   OH274046   1.899   5.059  16.582 -0.3295  0.5511  0.1678
17544TIP3    H174047   1.806   5.039  16.590  0.0858 -0.8459  1.6965
17544TIP3    H274048   1.943   4.990  16.632  1.4473  2.1569  0.8595
17545TIP3   OH274049   5.075   5.897  15.564 -0.2650  0.7385 -0.3637
17545TIP3    H174050   5.001   5.837  15.571 -0.0225  0.5122  0.3162
17545TIP3    H274051   5.037   5.984  15.578 -0.4341  0.6403 -0.2041
17546TIP3   OH274052   6.300   6.044  14.184  0.3511  0.1286  0.0521
17546TIP3    H174053   6.220   6.030  14.235  0.2494  0.8603  0.0984
17546TIP3    H274054   6.291   6.133  14.149 -0.0671 -0.7104 -2.0941
17547TIP3   OH274055   1.229   5.542  11.637 -0.5783 -0.8311  0.1494
17547TIP3    H174056   1.231   5.450  11.610  0.8148 -0.2888 -1.7134
17547TIP3    H274057   1.141   5.555  11.672 -1.5501 -2.3135 -1.6396
17548TIP3   OH274058   0.236   2.909   0.087  0.4070  0.0575 -0.2613
17548TIP3    H174059   0.324   2.873   0.073  0.1853 -0.3007 -0.7377
17548TIP3    H274060   0.238   2.994   0.045  0.4182 -0.0957 -0.5686
17549TIP3   OH274061   4.181   1.685  15.045 -0.0996 -0.0145 -0.7055
17549TIP3    H174062   4.097   1.728  15.031 -0.4818 -0.5213 -0.0414
17549TIP3    H274063   4.244   1.736  14.993 -0.8376  0.2787 -1.3277
17550TIP3   OH274064   0.391   0.542  15.640  0.5825 -0.1287  0.0774
17550TIP3    H174065   0.392   0.617  15.581  0.2801  1.7952  2.4526
17550TIP3    H274066   0.480   0.537  15.675  0.4839 -0.6003  0.2736
17551TIP3   OH274067   5.967   4.902  14.371  0.2674 -0.5327  0.7493
17551TIP3    H174068   6.059   4.921  14.391  0.6555 -1.2113 -0.3505
17551TIP3    H274069   5.917   4.963  14.426  1.3157 -1.7760  3.1852
17552TIP3   OH274070   0.052   6.773   5.356 -0.1828 -0.0358 -0.3885
17552TIP3    H174071   0.013   6.696   5.397 -1.0916  0.1371 -0.9136
17552TIP3    H274072  -0.014   6.803   5.293  0.0528  1.3101 -0.0166
17553TIP3   OH274073   4.139   0.735   5.532 -0.2490  0.1644 -0.0627
17553TIP3    H174074   4.215   0.746   5.589 -0.3502 -1.8097  0.5042
17553TIP3    H274075   4.176   0.717   5.446 -0.0386 -1.3417  0.3240
17554TIP3   OH274076   6.404   2.422   4.053 -0.0905  0.6169  0.1854
17554TIP3    H174077   6.402   2.448   4.145 -2.1157  1.0518  0.0263
17554TIP3    H274078   6.373   2.499   4.005 -1.6684 -0.5008 -0.6356
17555TIP3   OH274079   3.618   2.149  12.453  0.0229 -0.9656  0.0412
17555TIP3    H174080   3.540   2.200  12.474  0.6197 -0.3023  0.6910
17555TIP3    H274081   3.691   2.210  12.465  0.5603 -1.2578 -1.6649
17556TIP3   OH274082   4.435   2.211  14.685  0.0552 -0.2339 -0.3582
17556TIP3    H174083   4.373   2.199  14.757  0.8249  1.0920  0.5565
17556TIP3    H274084   4.388   2.183  14.607 -1.6635  0.6679  0.3359
17557TIP3   OH274085   1.473   2.533   1.524 -0.0205 -0.1963 -0.6024
17557TIP3    H174086   1.482   2.518   1.430  1.2590 -0.4384 -0.4573
17557TIP3    H274087   1.469   2.445   1.562 -0.6940 -0.0974 -0.4496
17558TIP3   OH274088   3.073   0.746   0.895  0.1595 -0.0968 -0.0150
17558TIP3    H174089   3.099   0.708   0.811  0.2900 -0.5070  0.2142
17558TIP3    H274090   3.116   0.832   0.896  0.2636 -0.1428 -0.3070
17559TIP3   OH274091   5.247   5.907   1.189 -0.1592 -0.1016 -0.1443
17559TIP3    H174092   5.185   5.864   1.248  0.5861 -0.0777  0.6757
17559TIP3    H274093   5.328   5.911   1.239 -0.0572  1.7336 -0.4160
17560TIP3   OH274094   0.722   4.855  16.901 -0.0832  0.0873 -0.3057
17560TIP3    H174095   0.711   4.904  16.983 -1.9443 -0.0119 -0.4720
17560TIP3    H274096   0.774   4.912  16.846 -1.9135  1.7638 -0.3666
17561TIP3   OH274097   0.813   5.144  13.747 -0.0028 -0.1321 -0.0323
17561TIP3    H174098   0.872   5.072  13.723  0.0959  0.1906 -0.7876
17561TIP3    H274099   0.784   5.123  13.836 -0.4626 -1.4333 -0.4763
17562TIP3   OH274100   3.337   3.033  15.211 -0.4020  0.3969 -0.3228
17562TIP3    H174101   3.303   3.017  15.299  1.3264 -0.1710  0.2598
17562TIP3    H274102   3.354   2.946  15.175 -0.9288  0.6305 -1.1636
17563TIP3   OH274103   2.840   5.413   5.116  0.1407  0.8048  0.1530
17563TIP3    H174104   2.910   5.352   5.094 -0.6959  0.2918 -1.0815
17563TIP3    H274105   2.878   5.500   5.100  0.8821  0.5803  0.6467
17564TIP3   OH274106   5.596   2.661  16.389 -0.1229  0.1254 -0.1294
17564TIP3    H174107   5.681   2.702  16.375 -0.7808  1.4888 -0.1474
17564TIP3    H274108   5.588   2.598  16.317  1.3990 -0.9243  0.5797
17565TIP3   OH274109   4.628   4.499   5.995 -0.2915 -0.3911  0.0432
17565TIP3    H174110   4.610   4.464   5.907  2.1272  0.6626 -0.8929
17565TIP3    H274111   4.541   4.511   6.033 -1.3805 -1.1330 -2.0899
17566TIP3   OH274112   6.314   1.558  14.239 -0.2314  0.0251  0.0552
17566TIP3    H174113   6.351   1.485  14.190  3.5694  1.4395  0.6313
17566TIP3    H274114   6.279   1.617  14.173  0.9620 -0.1282 -0.7329
17567TIP3   OH274115   0.756   5.679  12.400 -0.6068  1.0527 -1.0129
17567TIP3    H174116   0.833   5.685  12.343  0.0800 -2.2867 -0.5287
17567TIP3    H274117   0.702   5.610  12.361 -0.2002 -1.2009  2.2382
17568TIP3   OH274118   1.755   1.294  15.514 -0.4644  0.1378  0.0117
17568TIP3    H174119   1.836   1.344  15.503  1.0618 -2.3881 -0.7361
17568TIP3    H274120   1.719   1.287  15.426  0.1283 -1.2958 -0.1382
17569TIP3   OH274121   5.767   0.599  11.702 -0.6941 -0.2748 -0.3715
17569TIP3    H174122   5.794   0.644  11.622 -1.0861  0.0615 -0.3161
17569TIP3    H274123   5.776   0.506  11.681  0.5095 -0.1684 -0.3497
17570TIP3   OH274124   0.837   4.338   4.927 -0.0814  0.3639  0.6625
17570TIP3    H174125   0.816   4.257   4.974 -1.8785  1.9770  2.7239
17570TIP3    H274126   0.820   4.318   4.835 -0.0128 -1.7362  1.0895
17571TIP3   OH274127   5.989   1.070   4.446 -0.3611 -0.5474  0.4522
17571TIP3    H174128   6.061   1.116   4.403 -1.0417 -0.0978 -0.2363
17571TIP3    H274129   5.976   0.991   4.394 -1.2140  0.0194 -0.2207
17572TIP3   OH274130   0.665   4.451   6.123  0.1334 -0.3760 -0.0212
17572TIP3    H174131   0.592   4.390   6.126 -0.1461 -0.0073  0.5974
17572TIP3    H274132   0.742   4.397   6.139 -0.1408 -0.5231  0.8039
17573TIP3   OH274133   2.469   5.783   0.008  0.3334 -0.3658 -0.0232
17573TIP3    H174134   2.533   5.716   0.031 -0.0663 -0.4042  0.9951
17573TIP3    H274135   2.463   5.779  -0.087  0.8560 -1.2774 -0.0160
17574TIP3   OH274136   1.861   0.512  13.412 -0.3653 -0.0725 -0.0710
17574TIP3    H174137   1.855   0.423  13.376 -2.0033  0.4201 -1.0547
17574TIP3    H274138   1.887   0.498  13.503 -0.1607 -1.5449 -0.3327
17575TIP3   OH274139   3.105   3.965  14.053 -0.5606  0.6206  0.3817
17575TIP3    H174140   3.045   3.952  14.126 -0.4459  0.2692  0.4152
17575TIP3    H274141   3.156   4.042  14.077  1.6321 -1.2725  2.1388
17576TIP3   OH274142   5.477   2.949   1.953  0.3989  0.2317 -0.5600
17576TIP3    H174143   5.473   2.997   2.036 -1.2772 -0.5656 -0.1698
17576TIP3    H274144   5.505   2.861   1.978 -1.0327 -0.2737 -0.7171
17577TIP3   OH274145   3.499   5.327   2.053  0.6366  0.0481  0.0774
17577TIP3    H174146   3.443   5.267   2.101  0.2565  0.5191  0.2185
17577TIP3    H274147   3.472   5.317   1.961  1.8264 -1.3564 -0.1417
17578TIP3   OH274148   0.086   5.511  12.528  0.0186 -1.0393 -0.3084
17578TIP3    H174149   0.128   5.427  12.549  0.8260 -0.5463  0.0475
17578TIP3    H274150   0.011   5.515  12.586 -0.1343 -1.6123 -0.4590
17579TIP3   OH274151   6.173   6.645  12.056  0.3950  0.2150  0.5232
17579TIP3    H174152   6.196   6.567  12.005  1.9134  0.2846  1.0591
17579TIP3    H274153   6.090   6.675  12.018 -0.3296 -1.7813  0.4775
17580TIP3   OH274154   2.573   0.717  10.485  0.5534  0.6088  0.4327
17580TIP3    H174155   2.667   0.706  10.501  0.5599  0.3913  0.2631
17580TIP3    H274156   2.564   0.804  10.446  0.8991 -0.0627 -1.1944
17581TIP3   OH274157   2.721   0.621  11.081  0.0482 -0.1303  0.3830
17581TIP3    H174158   2.642   0.607  11.028  0.5768 -1.7768  0.0092
17581TIP3    H274159   2.767   0.537  11.079  2.3625  1.1076 -0.2659
17582TIP3   OH274160   6.219   6.191   5.841 -0.2559 -0.2954 -0.5198
17582TIP3    H174161   6.167   6.174   5.762 -1.4616  1.4387 -0.1367
17582TIP3    H274162   6.158   6.176   5.913  0.3797 -0.2870  0.0201
17583TIP3   OH274163   1.167   2.253   3.300  0.3194  0.5002  0.1083
17583TIP3    H174164   1.117   2.324   3.259 -2.3406 -2.2445 -1.6105
17583TIP3    H274165   1.158   2.269   3.394  0.3140  2.7642 -0.2422
17584TIP3   OH274166   1.523   5.726   0.073  0.8207 -0.3744  0.5280
17584TIP3    H174167   1.603   5.684   0.104  1.6210 -0.5838 -1.7208
17584TIP3    H274168   1.527   5.719  -0.023  0.0617  3.1261  0.1409
17585TIP3   OH274169   3.185   4.284   1.023 -0.4688  0.4218  0.3228
17585TIP3    H174170   3.181   4.334   0.941 -1.6115 -1.0465 -0.5542
17585TIP3    H274171   3.277   4.258   1.030 -0.4250  0.2480 -0.7137
17586TIP3   OH274172   3.254   1.148   5.762 -0.2272  0.0582 -0.7228
17586TIP3    H174173   3.253   1.241   5.740  2.2603  0.1237 -0.6504
17586TIP3    H274174   3.280   1.145   5.854  3.8001 -0.8236 -1.7924
17587TIP3   OH274175   5.298   3.281   4.892 -0.0235  0.3083  0.0984
17587TIP3    H174176   5.361   3.209   4.897  0.2221  0.6390  2.2459
17587TIP3    H274177   5.344   3.349   4.842  0.8391  0.0711  0.5656
17588TIP3   OH274178   3.775   6.657  12.991  0.5894  0.0479  0.7316
17588TIP3    H174179   3.862   6.691  12.969 -0.8773  3.5659  0.0752
17588TIP3    H274180   3.754   6.698  13.075 -0.6298 -0.3953  0.6502
17589TIP3   OH274181   3.578   0.808   2.815 -0.5760  0.3623  0.6517
17589TIP3    H174182   3.586   0.894   2.856 -2.6067  0.3030  1.2272
17589TIP3    H274183   3.484   0.797   2.799 -0.2932 -1.5245  0.0886
17590TIP3   OH274184   0.438   6.415   3.712  0.2512  0.3880 -0.2135
17590TIP3    H174185   0.428   6.498   3.758  1.4232 -0.6189  1.9056
17590TIP3    H274186   0.530   6.413   3.685  0.4124 -0.5299  0.3766
17591TIP3   OH274187   5.131   0.326  13.658  0.1441 -0.3095  0.5304
17591TIP3    H174188   5.181   0.266  13.604  0.7349 -0.2386  0.9963
17591TIP3    H274189   5.046   0.284  13.669 -0.4652  0.3191 -1.5950
17592TIP3   OH274190   4.421   1.708  16.175  0.6369 -0.1132 -0.2671
17592TIP3    H174191   4.376   1.733  16.093  0.9595  2.1975  0.2302
17592TIP3    H274192   4.365   1.743  16.244  2.0182  0.7524  0.4215
17593TIP3   OH274193   2.007   3.341   5.414  0.1466  0.0472  0.1231
17593TIP3    H174194   1.984   3.433   5.424  0.0638 -0.1803  2.2258
17593TIP3    H274195   2.062   3.321   5.489  0.7232 -1.4574 -0.6740
17594TIP3   OH274196   5.443   4.676   3.131  0.1142 -0.2120  0.1038
17594TIP3    H174197   5.531   4.694   3.162 -0.0874  0.4864  0.2618
17594TIP3    H274198   5.451   4.593   3.084  0.7944 -0.2956  0.3621
17595TIP3   OH274199   4.553   1.757   4.710  0.6488 -0.2118 -0.0428
17595TIP3    H174200   4.512   1.671   4.708  3.4621 -1.6921  2.3321
17595TIP3    H274201   4.635   1.746   4.661  1.2773  0.9738  0.7200
17596TIP3   OH274202   0.671   2.021  15.009 -0.2563 -0.2007 -0.2658
17596TIP3    H174203   0.677   1.993  15.101 -1.8126  0.8812  0.1702
17596TIP3    H274204   0.761   2.046  14.986 -0.0166  0.3396  1.2139
17597TIP3   OH274205   1.130   3.936  15.925 -0.5725 -0.0559  0.2464
17597TIP3    H174206   1.073   3.875  15.972  0.5080 -0.2146  1.3556
17597TIP3    H274207   1.084   4.019  15.929 -0.2436  0.0490  2.0415
17598TIP3   OH274208   5.105   2.558  13.517  0.3521  0.1803 -0.4624
17598TIP3    H174209   5.021   2.601  13.526 -0.1546 -0.6222 -1.2774
17598TIP3    H274210   5.096   2.501  13.440  1.7389  0.3365 -0.7658
17599TIP3   OH274211   2.638   1.607   1.924  0.2379  0.2731 -0.0831
17599TIP3    H174212   2.711   1.601   1.986 -0.0952  0.1482  0.3004
17599TIP3    H274213   2.599   1.519   1.926  1.3058 -0.2525 -1.7986
17600TIP3   OH274214   3.971   5.857  14.944  0.2915  0.3244  0.4109
17600TIP3    H174215   4.020   5.793  14.892 -1.4462  0.5960 -1.6558
17600TIP3    H274216   3.888   5.813  14.965  1.0340  0.1540  3.1952
17601TIP3   OH274217   2.998   6.564   0.484 -0.1416  0.1978 -0.2275
17601TIP3    H174218   3.043   6.647   0.467 -0.4206  0.5782  0.8549
17601TIP3    H274219   2.923   6.565   0.424  0.5369  0.1631 -1.0864
17602TIP3   OH274220   1.303   1.498  14.628  0.6391  0.1516  0.0771
17602TIP3    H174221   1.237   1.561  14.599  0.7068  0.5693  0.8150
17602TIP3    H274222   1.298   1.427  14.564  0.4829  0.8543 -0.6914
17603TIP3   OH274223   1.749   2.421   4.079  0.1511  0.2647  0.3950
17603TIP3    H174224   1.704   2.500   4.050  1.0376  0.0464 -1.6717
17603TIP3    H274225   1.780   2.380   3.998  1.0887 -1.3626  1.5461
17604TIP3   OH274226   2.645   0.817   1.018  0.0095  0.0719  0.2545
17604TIP3    H174227   2.737   0.812   1.042  0.0982  0.1851 -0.0588
17604TIP3    H274228   2.640   0.777   0.931  0.2114  2.3850 -0.8731
17605TIP3   OH274229   0.325   4.865   0.107  0.4235 -0.0348  0.3611
17605TIP3    H174230   0.237   4.835   0.125  1.6523 -2.4025  2.7911
17605TIP3    H274231   0.327   4.955   0.140 -1.3467  0.3906 -0.6618
17606TIP3   OH274232   4.523   3.908   0.801 -0.0071  0.1231 -0.3424
17606TIP3    H174233   4.512   3.991   0.756  0.9585  1.3773  1.6968
17606TIP3    H274234   4.574   3.854   0.741 -0.1362  1.1886 -1.4180
17607TIP3   OH274235   1.564   4.935   4.607  0.1656 -0.1198  0.3389
17607TIP3    H174236   1.477   4.925   4.644  0.0609  1.0820  0.4372
17607TIP3    H274237   1.557   5.009   4.548  1.3969  0.7349  1.2383
17608TIP3   OH274238   1.213   1.213   1.521 -0.0367  0.6096  0.5312
17608TIP3    H174239   1.141   1.158   1.551 -0.4357  1.0318  0.3566
17608TIP3    H274240   1.274   1.215   1.595  0.0073 -0.1216  0.5096
17609TIP3   OH274241   3.492   1.520   3.950 -0.4515 -0.3314 -0.3532
17609TIP3    H174242   3.536   1.588   4.000 -0.1795 -1.3753  0.8623
17609TIP3    H274243   3.545   1.511   3.871  0.7575 -0.6166  0.4656
17610TIP3   OH274244   3.343   4.498   0.868 -0.4320  0.1305  0.3658
17610TIP3    H174245   3.308   4.460   0.787  0.0576  1.0110 -0.2650
17610TIP3    H274246   3.320   4.591   0.862  0.0321  0.2836  1.0199
17611TIP3   OH274247   6.003   3.106  14.669  0.6635 -0.3481  0.6117
17611TIP3    H174248   6.028   3.037  14.607 -0.6474 -1.0140  0.8117
17611TIP3    H274249   6.082   3.122  14.720  1.5828 -0.2298 -0.8179
17612TIP3   OH274250   0.797   5.543  14.008  0.5290 -0.5549  0.3559
17612TIP3    H174251   0.768   5.452  13.998 -0.7109 -0.1122 -0.2545
17612TIP3    H274252   0.718   5.595  13.991  1.6578  0.7018 -1.2721
17613TIP3   OH274253   2.968   3.124  13.407 -0.0480 -0.2185  0.2222
17613TIP3    H174254   3.061   3.141  13.421 -0.3413  0.6595  1.1988
17613TIP3    H274255   2.959   3.029  13.419  0.6962 -0.2840  0.2647
17614TIP3   OH274256   0.148   1.600   0.876 -0.5961 -0.0262  0.6733
17614TIP3    H174257   0.230   1.580   0.831 -1.7082 -1.0539 -0.9314
17614TIP3    H274258   0.108   1.515   0.894 -1.3933  0.4682  1.2955
17615TIP3   OH274259   1.935   2.100  14.129  0.2183 -0.8210 -0.3327
17615TIP3    H174260   1.972   2.024  14.084 -0.1593 -0.5991 -1.0245
17615TIP3    H274261   1.914   2.161  14.059 -1.4514 -0.9287  0.0657
17616TIP3   OH274262   5.760   0.601  15.462  0.0502 -0.1065 -0.6583
17616TIP3    H174263   5.741   0.508  15.445 -0.9675  0.3482 -2.1235
17616TIP3    H274264   5.853   0.603  15.481  0.1964 -1.3534 -1.1808
17617TIP3   OH274265   6.763   2.106  15.708 -0.0983 -0.2170  0.3551
17617TIP3    H174266   6.725   2.070  15.788 -0.8200 -0.1013  0.0719
17617TIP3    H274267   6.857   2.089  15.716  0.0060  1.0333  1.8544
17618TIP3   OH274268   3.637   5.157   5.507 -0.6387 -0.1724 -0.2100
17618TIP3    H174269   3.670   5.078   5.463  0.6168 -0.1932  0.7545
17618TIP3    H274270   3.683   5.229   5.464 -0.8336 -0.0567 -0.2256
17619TIP3   OH274271   3.758   1.061   3.730 -0.1006 -0.1242  0.2163
17619TIP3    H174272   3.799   1.100   3.653 -0.4871  0.4729  0.3100
17619TIP3    H274273   3.676   1.023   3.698  0.0690 -0.4912  0.2075
17620TIP3   OH274274   5.063   4.853   6.121 -0.2503 -0.1073  0.1794
17620TIP3    H174275   5.145   4.816   6.155  2.7600  2.3795 -3.9086
17620TIP3    H274276   5.071   4.947   6.136 -0.4169  0.6494 -3.8655
17621TIP3   OH274277   1.246   2.816  10.243  0.0196 -0.1066 -0.0230
17621TIP3    H174278   1.184   2.826  10.316  1.4291  1.6809  0.9970
17621TIP3    H274279   1.309   2.751  10.274 -0.4771 -0.7791 -0.4294
17622TIP3   OH274280   3.139   3.379  12.873 -0.2276  0.0041 -0.2810
17622TIP3    H174281   3.185   3.441  12.930 -0.4002  0.5793 -0.7593
17622TIP3    H274282   3.087   3.434  12.815  2.7518 -0.3670 -3.4695
17623TIP3   OH274283   3.602   6.582   0.166  0.2429 -0.0342 -0.2895
17623TIP3    H174284   3.526   6.637   0.182 -1.1670 -1.8759 -0.5067
17623TIP3    H274285   3.635   6.559   0.253  0.2945  0.4058 -0.1926
17624TIP3   OH274286   0.214   4.362   1.796  0.8575 -0.1047 -1.0764
17624TIP3    H174287   0.199   4.334   1.705 -0.7032  0.3573 -0.9726
17624TIP3    H274288   0.232   4.456   1.789  1.7007 -0.2562 -0.9923
17625TIP3   OH274289   1.027   2.440   3.172 -0.4719 -0.6720 -0.3473
17625TIP3    H174290   1.038   2.453   3.078 -0.7630  0.4449 -0.2399
17625TIP3    H274291   1.063   2.520   3.211  1.3417 -1.9133  0.6024
17626TIP3   OH274292   3.439   3.700   3.019  0.1263  0.3321 -0.0289
17626TIP3    H174293   3.502   3.759   3.059  0.0054  0.4212  0.0277
17626TIP3    H274294   3.487   3.617   3.011  0.4264  0.5437 -0.4746
17627TIP3   OH274295   1.797   1.063   2.592  0.3048  0.1720  0.6010
17627TIP3    H174296   1.791   1.015   2.675 -0.3159 -0.3287  0.2741
17627TIP3    H274297   1.851   1.007   2.537 -0.3616 -0.1359  0.2436
17628TIP3   OH274298   1.010   1.046   1.608  0.4341  0.0979 -0.1174
17628TIP3    H174299   1.018   1.078   1.698 -1.4893 -0.0370  0.1218
17628TIP3    H274300   1.018   0.951   1.615 -1.1832 -0.0347  0.1174
17629TIP3   OH274301   1.265   6.483  14.855  0.4597 -0.2521 -0.3537
17629TIP3    H174302   1.346   6.458  14.899  0.9871  0.9092 -0.6190
17629TIP3    H274303   1.283   6.572  14.824 -0.7227 -0.2057 -0.8979
17630TIP3   OH274304   4.463   3.331  14.075  0.2507  0.1784 -0.3940
17630TIP3    H174305   4.508   3.392  14.134 -0.6102  0.8937 -0.4679
17630TIP3    H274306   4.527   3.262  14.059  0.8263  0.4611  0.6316
17631TIP3   OH274307   2.879   3.471  16.313 -0.1201 -0.2898  0.3633
17631TIP3    H174308   2.825   3.527  16.368 -0.6367  0.1124 -0.5468
17631TIP3    H274309   2.964   3.468  16.358 -0.4705  0.1997  1.0689
17632TIP3   OH274310   5.740   5.678  13.754  0.1024  0.4730 -0.8784
17632TIP3    H174311   5.729   5.584  13.738 -3.2086  0.5455  0.5159
17632TIP3    H274312   5.824   5.700  13.713  0.1630 -2.7511 -2.6552
17633TIP3   OH274313   5.411   0.408   0.901 -0.3308 -0.2623  0.4047
17633TIP3    H174314   5.472   0.437   0.833  0.6308 -0.4048  1.2007
17633TIP3    H274315   5.465   0.356   0.961 -1.4940 -1.4498  0.4326
17634TIP3   OH274316   4.599   2.670  10.954 -0.0216  0.9327  0.1618
17634TIP3    H174317   4.576   2.578  10.970 -0.1674  0.8421 -0.5810
17634TIP3    H274318   4.688   2.666  10.922  0.1979  1.1051  0.7387
17635TIP3   OH274319   1.524   6.114  14.231  0.1373 -0.0102  0.1798
17635TIP3    H174320   1.440   6.093  14.270  0.6107  0.7299  1.6216
17635TIP3    H274321   1.561   6.029  14.207 -0.7211 -0.3804  0.1619
17636TIP3   OH274322   6.701   0.318  17.026 -0.6268  0.5386 -0.1806
17636TIP3    H174323   6.624   0.265  17.047  0.1412 -0.4054  0.3108
17636TIP3    H274324   6.692   0.397  17.079 -0.0476 -0.6452  1.7190
17637TIP3   OH274325   4.841   4.657  10.837  0.5155  0.6176 -0.2411
17637TIP3    H174326   4.750   4.679  10.857  0.5975 -0.3341  1.2037
17637TIP3    H274327   4.836   4.574  10.790  0.7660 -0.6773  1.9462
17638TIP3   OH274328   3.696   1.225   3.396  0.1268 -0.0523  0.6570
17638TIP3    H174329   3.649   1.164   3.339  0.7555  1.3071 -1.3610
17638TIP3    H274330   3.628   1.285   3.428  0.0895  0.4129 -0.2844
17639TIP3   OH274331   4.367   1.664   3.509 -0.5720  0.0276  0.1714
17639TIP3    H174332   4.457   1.640   3.533 -0.9050 -3.4950 -1.6998
17639TIP3    H274333   4.321   1.671   3.592  0.0968 -4.2355  1.0220
17640TIP3   OH274334   6.384   1.877   1.023  0.2861  0.3330  0.0789
17640TIP3    H174335   6.400   1.828   0.942 -2.9102 -0.9602  0.1548
17640TIP3    H274336   6.466   1.869   1.072  1.6183 -0.4732 -2.2143
17641TIP3   OH274337   1.068   2.838   1.085  0.3621 -0.6989  0.1710
17641TIP3    H174338   1.120   2.896   1.140 -0.0560  0.9425 -1.1172
17641TIP3    H274339   1.132   2.779   1.046  0.9750 -0.1886  0.3806
17642TIP3   OH274340   4.523   1.236   0.914 -0.0920 -0.0109  0.1214
17642TIP3    H174341   4.530   1.324   0.952  2.1467 -0.2708  0.3538
17642TIP3    H274342   4.515   1.178   0.989 -0.2523 -0.1264  0.0153
17643TIP3   OH274343   2.651   0.765  12.749 -0.1115 -0.4783  0.8999
17643TIP3    H174344   2.610   0.850  12.737 -1.9987 -1.5622 -0.7704
17643TIP3    H274345   2.702   0.750  12.670 -0.8093 -1.4241  0.6148
17644TIP3   OH274346   6.381   1.343   3.133  0.5152  0.5470 -0.0636
17644TIP3    H174347   6.426   1.423   3.104 -1.1709  1.4385 -0.3144
17644TIP3    H274348   6.415   1.327   3.221  2.7665  0.0734 -0.9816
17645TIP3   OH274349   3.773   1.934  15.372  0.6724 -0.2763 -0.3967
17645TIP3    H174350   3.802   1.857  15.323  1.0942 -0.1239 -0.3845
17645TIP3    H274351   3.708   1.900  15.433 -0.4298 -0.3570 -1.5837
17646TIP3   OH274352   3.531   3.819   4.123  0.3472 -0.1390 -0.3169
17646TIP3    H174353   3.533   3.837   4.217 -1.2251  0.6697 -0.4156
17646TIP3    H274354   3.465   3.749   4.114  2.0682 -1.7526 -0.5905
17647TIP3   OH274355   1.471   6.498   1.158  0.1888 -0.2570  0.3693
17647TIP3    H174356   1.463   6.569   1.094  0.4561 -0.2924  0.2957
17647TIP3    H274357   1.539   6.528   1.218  1.5062 -1.1885 -0.6370
17648TIP3   OH274358   2.690   3.662  13.807 -0.1903 -0.2716  0.7241
17648TIP3    H174359   2.636   3.716  13.750 -0.8794 -0.8929  0.7855
17648TIP3    H274360   2.632   3.593  13.838 -0.2637  0.9855  3.4814
17649TIP3   OH274361   6.207   3.797   4.800  0.1239  0.2937  0.0414
17649TIP3    H174362   6.141   3.855   4.763 -0.7347 -0.2895  0.6383
17649TIP3    H274363   6.287   3.817   4.751 -0.5325  0.8902 -0.8004
17650TIP3   OH274364   3.113   0.461   0.266  0.1656  0.1316 -0.1186
17650TIP3    H174365   3.189   0.450   0.209  0.3192  0.7222 -0.0381
17650TIP3    H274366   3.098   0.556   0.266  1.7170  0.4213  2.8340
17651TIP3   OH274367   2.773   4.046   2.907  0.1255  0.2439  0.0214
17651TIP3    H174368   2.853   3.998   2.885  1.0614  1.8406 -0.0757
17651TIP3    H274369   2.747   4.088   2.825 -0.0648  0.8197  0.3762
17652TIP3   OH274370   5.598   3.235   4.881 -0.2340  0.0632 -0.0581
17652TIP3    H174371   5.646   3.306   4.921 -0.7515 -0.3990  1.4250
17652TIP3    H274372   5.634   3.156   4.921 -2.1147 -0.2911  0.9856
17653TIP3   OH274373   2.612   6.590  13.623 -0.3065  0.0822 -0.3507
17653TIP3    H174374   2.652   6.505  13.642  1.5186  1.0561  0.2734
17653TIP3    H274375   2.600   6.590  13.528  0.8082 -0.3917 -0.4994
17654TIP3   OH274376   6.584   1.516   0.180 -0.3289 -0.5100  0.4642
17654TIP3    H174377   6.611   1.531   0.090 -0.6007  0.7865  0.5886
17654TIP3    H274378   6.558   1.424   0.183 -0.6287 -0.4701 -0.8502
17655TIP3   OH274379   2.413   3.753  13.178  0.4321 -0.0330  0.8017
17655TIP3    H174380   2.424   3.848  13.182  0.1348  0.1662 -2.1930
17655TIP3    H274381   2.341   3.740  13.118 -0.8447 -2.1363  2.7109
17656TIP3   OH274382   2.513   1.773   1.124  0.0225  0.4032  0.0022
17656TIP3    H174383   2.543   1.864   1.122  1.3298 -0.0221  0.0794
17656TIP3    H274384   2.474   1.763   1.211  3.6700 -0.2932  1.6160
17657TIP3   OH274385   1.590   3.123  16.009 -0.4270 -0.2155  0.4387
17657TIP3    H174386   1.532   3.187  16.049 -0.7903 -1.6207  2.2230
17657TIP3    H274387   1.533   3.065  15.959 -0.1763  0.4141 -0.5911
17658TIP3   OH274388   5.705   6.539  11.009 -0.3285 -0.1951  0.2505
17658TIP3    H174389   5.748   6.587  11.080 -0.3861 -1.0967  0.8940
17658TIP3    H274390   5.640   6.484  11.052 -0.9915 -0.0758 -0.5812
17659TIP3   OH274391   3.177   2.047   1.237  0.3750  0.2530 -0.4803
17659TIP3    H174392   3.172   1.968   1.290  2.7530 -1.2970 -2.4603
17659TIP3    H274393   3.087   2.062   1.208 -0.1348 -1.5638  0.0919
17660TIP3   OH274394   6.536   5.155   5.122  0.5680 -0.4984 -0.7595
17660TIP3    H174395   6.520   5.173   5.030 -1.1996 -0.5886 -0.4724
17660TIP3    H274396   6.470   5.207   5.169  1.1420 -0.8237  0.4396
17661TIP3   OH274397   2.489   5.979   4.764 -0.1376 -0.3780 -0.2004
17661TIP3    H174398   2.539   5.926   4.702  0.8468 -0.4818  0.6717
17661TIP3    H274399   2.514   6.069   4.744 -0.5196 -0.3427 -0.5464
17662TIP3   OH274400   5.380   4.613   1.395  0.0546  0.0115  0.1172
17662TIP3    H174401   5.365   4.705   1.372  0.2395  0.0055 -0.0193
17662TIP3    H274402   5.347   4.606   1.485  3.3462  1.0641  1.4591
17663TIP3   OH274403   6.145   3.867   5.506  0.1939  0.3774  1.2923
17663TIP3    H174404   6.101   3.875   5.591 -0.7375 -0.6451  0.9103
17663TIP3    H274405   6.161   3.774   5.496 -0.2003  0.4326  0.0815
17664TIP3   OH274406   1.399   2.464   3.015 -0.3969  0.3371 -0.2322
17664TIP3    H174407   1.438   2.383   2.983  0.8314  0.4159  1.0082
17664TIP3    H274408   1.417   2.464   3.109 -2.7615  0.7541  0.2551
17665TIP3   OH274409   3.160   6.021  14.775  0.1407 -0.1371 -0.1534
17665TIP3    H174410   3.209   5.940  14.763 -0.2244 -0.3823  0.0001
17665TIP3    H274411   3.086   5.997  14.831  1.3103  0.7931  1.8514
17666TIP3   OH274412   4.681   1.242  14.316 -0.1456  0.0903 -0.1628
17666TIP3    H174413   4.759   1.217  14.364 -0.6059 -0.5260  0.2624
17666TIP3    H274414   4.613   1.182  14.346 -0.5234 -0.0792 -1.3221
17667TIP3   OH274415   6.045   0.869  11.349 -0.2466  0.0187  0.4807
17667TIP3    H174416   6.014   0.917  11.273 -0.2261 -0.8354 -0.0823
17667TIP3    H274417   6.130   0.834  11.323 -1.1880 -2.0742  0.1062
17668TIP3   OH274418   6.260   6.526  10.582 -0.5662 -0.6708 -0.1754
17668TIP3    H174419   6.229   6.556  10.497 -1.9102  0.3078  0.6540
17668TIP3    H274420   6.181   6.508  10.632  0.1955  0.1901  1.3765
17669TIP3   OH274421   4.379   0.075   1.866  0.1309 -0.4864  0.7817
17669TIP3    H174422   4.410   0.007   1.808 -2.0823  0.7962 -2.0004
17669TIP3    H274423   4.294   0.044   1.897  0.7947 -0.6562  2.5107
17670TIP3   OH274424   3.165   1.994  15.095  0.5379  0.1723 -0.5145
17670TIP3    H174425   3.136   2.060  15.158  1.2841 -0.7594  0.8204
17670TIP3    H274426   3.142   2.030  15.009 -0.4242  1.4794  0.2900
17671TIP3   OH274427   6.412   4.670   3.500  0.3647 -0.2349 -0.1450
17671TIP3    H174428   6.349   4.715   3.557  0.8208 -0.2410  0.3681
17671TIP3    H274429   6.459   4.741   3.457  0.8946 -0.2140  0.4561
17672TIP3   OH274430   6.052   1.486  11.726 -0.1015 -0.1316  0.6887
17672TIP3    H174431   6.125   1.432  11.757  0.1380  0.2350  0.7686
17672TIP3    H274432   6.011   1.519  11.806 -0.6196 -0.6839  0.6529
17673TIP3   OH274433   5.354   1.395  14.211 -0.0078  0.0021  0.4598
17673TIP3    H174434   5.330   1.478  14.170 -2.3463 -0.9042 -0.1073
17673TIP3    H274435   5.409   1.351  14.146  0.5310  0.7269  0.4184
17674TIP3   OH274436   3.293   3.191  13.145  0.1925  0.2248  0.1744
17674TIP3    H174437   3.361   3.126  13.129  0.4403  0.5487 -0.0849
17674TIP3    H274438   3.211   3.143  13.133  0.3782  0.2142 -1.0532
17675TIP3   OH274439   1.753   1.417  12.933 -0.0579 -0.0054 -0.1253
17675TIP3    H174440   1.746   1.506  12.897  0.0901  0.0707  0.0319
17675TIP3    H274441   1.815   1.426  13.005  1.9456 -0.7449 -1.7066
17676TIP3   OH274442   0.639   5.097  11.138  0.1094 -0.1086  0.5836
17676TIP3    H174443   0.673   5.010  11.117  1.0781 -0.2134  2.5388
17676TIP3    H274444   0.552   5.099  11.096  0.3435 -1.7598 -0.0241
17677TIP3   OH274445   3.426   0.956   0.189  0.0594 -0.1548  0.2136
17677TIP3    H174446   3.387   1.005   0.117 -0.9507  0.1356  0.9475
17677TIP3    H274447   3.356   0.950   0.254  0.5920 -1.4227  0.6828
17678TIP3   OH274448   1.958   0.712   5.836  0.1140 -0.0085  0.0040
17678TIP3    H174449   1.869   0.694   5.867  0.5592 -0.1566  1.2059
17678TIP3    H274450   1.962   0.808   5.829  0.1362  0.0530  0.7952
17679TIP3   OH274451   5.320   0.072   4.918 -0.1449 -0.8595  0.0749
17679TIP3    H174452   5.319   0.043   4.826  0.5362  0.2619 -0.2955
17679TIP3    H274453   5.383   0.144   4.920  0.1338 -1.1375  1.5152
17680TIP3   OH274454   0.938   6.053  16.283  0.7519 -0.0582 -0.3754
17680TIP3    H174455   0.969   6.139  16.254  1.0576  0.1788  0.6202
17680TIP3    H274456   0.860   6.073  16.336 -0.0823 -0.5160 -1.4151
17681TIP3   OH274457   2.545   5.996  16.551 -0.2064  0.2894  0.1417
17681TIP3    H174458   2.545   6.092  16.548 -0.0696  0.2225 -3.6860
17681TIP3    H274459   2.579   5.976  16.639  1.2397  3.7252  0.4770
17682TIP3   OH274460   2.904   4.369  15.563  0.3205  0.2004 -0.2565
17682TIP3    H174461   2.974   4.313  15.528  1.6170 -0.0075  2.5245
17682TIP3    H274462   2.823   4.319  15.547  1.2086 -1.3192 -0.0916
17683TIP3   OH274463   1.556   5.859   3.842 -0.3262  0.7248  0.0239
17683TIP3    H174464   1.513   5.893   3.764 -1.6498  0.7152  0.7494
17683TIP3    H274465   1.490   5.862   3.911  0.4230 -0.5036  0.8369
17684TIP3   OH274466   2.827   5.845   0.158  0.2849 -0.2600  0.3357
17684TIP3    H174467   2.854   5.873   0.245  1.5650 -2.2621  0.6199
17684TIP3    H274468   2.854   5.753   0.153 -0.0180 -0.2526 -2.0577
17685TIP3   OH274469   2.450   2.647   5.007 -0.6491  0.6235  0.2857
17685TIP3    H174470   2.378   2.699   4.971 -0.9036  0.4998  0.6189
17685TIP3    H274471   2.473   2.691   5.089 -0.3851  0.6266  0.2126
17686TIP3   OH274472   4.492   2.486  14.589 -0.0895 -0.4297 -0.0061
17686TIP3    H174473   4.467   2.406  14.635  1.3560 -1.6352 -1.2560
17686TIP3    H274474   4.582   2.502  14.617 -0.4017  0.8244  0.3081
17687TIP3   OH274475   4.130   1.037  14.312 -0.1373  0.0101 -0.4740
17687TIP3    H174476   4.116   1.099  14.384  1.5031  0.5418 -0.6046
17687TIP3    H274477   4.052   1.047  14.257 -1.7452 -0.9216  1.5838
17688TIP3   OH274478   6.211   5.604  17.136  0.2263  0.6762 -0.1882
17688TIP3    H174479   6.307   5.609  17.141  0.2741 -0.5010  0.1849
17688TIP3    H274480   6.183   5.587  17.226 -0.2442 -0.2940 -0.5147
17689TIP3   OH274481   4.282   3.202   4.217 -0.2490 -0.1529  0.5884
17689TIP3    H174482   4.346   3.170   4.281 -0.3854 -2.7799 -0.5143
17689TIP3    H274483   4.199   3.203   4.264 -0.0701 -0.5191  0.9180
17690TIP3   OH274484   0.159   5.374   4.269  0.1177 -0.1919  0.5666
17690TIP3    H174485   0.151   5.292   4.220  0.8426  0.4363 -0.6480
17690TIP3    H274486   0.223   5.355   4.337  0.9798 -0.3996 -0.2798
17691TIP3   OH274487   4.346   6.407   3.116 -0.1036 -0.8246 -0.3616
17691TIP3    H174488   4.274   6.406   3.053 -1.0176 -1.8776  0.6567
17691TIP3    H274489   4.309   6.364   3.193  1.0594  0.2680  0.8142
17692TIP3   OH274490   2.825   2.162   1.790  0.1200  0.9009 -0.1816
17692TIP3    H174491   2.753   2.120   1.743  1.2519 -0.3285 -0.8593
17692TIP3    H274492   2.793   2.172   1.879 -1.2599  1.3022 -0.7097
17693TIP3   OH274493   0.946   5.028   5.971  0.3912 -0.2083 -0.4466
17693TIP3    H174494   0.930   4.935   5.957  0.9516 -0.5970  1.3306
17693TIP3    H274495   0.904   5.047   6.055  0.9290  0.9731 -0.4328
17694TIP3   OH274496   3.190   2.085   0.341  0.5474  0.2260  0.1248
17694TIP3    H174497   3.236   2.157   0.383  1.4115 -0.9511  1.2380
17694TIP3    H274498   3.215   2.092   0.249 -0.9750  2.5203 -0.1605
17695TIP3   OH274499   5.896   3.776  13.253  0.2545 -0.4198 -0.1723
17695TIP3    H174500   5.832   3.846  13.242  1.7702  0.9733 -0.2070
17695TIP3    H274501   5.862   3.725  13.327 -1.3730 -0.2569 -0.7842
17696TIP3   OH274502   0.120   2.902   4.979  0.3023  0.1090 -0.3331
17696TIP3    H174503   0.162   2.958   5.044  1.7073  0.2033 -1.2866
17696TIP3    H274504   0.181   2.829   4.967  0.9214  0.9896 -2.8027
17697TIP3   OH274505   4.838   2.605   3.123 -0.6595 -0.0757  0.0453
17697TIP3    H174506   4.888   2.560   3.055 -1.2363 -0.2591 -0.2622
17697TIP3    H274507   4.814   2.689   3.084  1.0669  0.8385  0.8899
17698TIP3   OH274508   2.554   1.458   5.139 -0.1285 -0.1788  0.1912
17698TIP3    H174509   2.577   1.542   5.180  0.1411  0.4509 -1.2080
17698TIP3    H274510   2.607   1.456   5.060 -1.2615 -0.9938 -0.5509
17699TIP3   OH274511   2.258   4.257  16.539  0.8135 -0.3212  0.3031
17699TIP3    H174512   2.290   4.297  16.458  2.7024 -2.9745 -0.3327
17699TIP3    H274513   2.281   4.165  16.531  0.4745 -0.7586  3.6121
17700TIP3   OH274514   5.144   1.570  12.465  0.5017 -0.0181  0.1143
17700TIP3    H174515   5.082   1.497  12.462  1.2585 -0.6862  0.4757
17700TIP3    H274516   5.178   1.577  12.376  1.0913 -0.6933  0.2813
17701TIP3   OH274517   5.501   5.901   0.595 -0.2339 -0.4738 -0.5490
17701TIP3    H174518   5.422   5.903   0.649 -0.1573  0.0158 -0.4488
17701TIP3    H274519   5.518   5.994   0.575 -0.6776 -0.6868 -2.0234
17702TIP3   OH274520   0.928   4.092   0.041 -0.0941 -0.0921  0.0104
17702TIP3    H174521   0.997   4.037   0.003  1.2471  1.0459  0.7676
17702TIP3    H274522   0.905   4.154  -0.028  0.6817  0.4614  0.2405
17703TIP3   OH274523   4.504   5.971  11.194  0.7594  0.0436 -0.1721
17703TIP3    H174524   4.483   6.002  11.105 -0.8862 -0.8564 -0.1183
17703TIP3    H274525   4.492   5.876  11.190  2.1686 -0.1754  0.6249
17704TIP3   OH274526   2.150   0.657  11.769 -0.0001  0.6344 -0.0349
17704TIP3    H174527   2.241   0.686  11.773  0.0451  0.5463 -0.4017
17704TIP3    H274528   2.104   0.730  11.727  0.1256  0.1567 -1.0181
17705TIP3   OH274529   2.084   3.803   0.471 -0.1001  0.3380 -0.0692
17705TIP3    H174530   2.025   3.733   0.443 -0.2085  0.5933 -0.4759
17705TIP3    H274531   2.035   3.884   0.456  0.2025  0.5270 -0.0411
17706TIP3   OH274532   1.120   1.216  10.869 -0.3138  0.1973 -0.2712
17706TIP3    H174533   1.149   1.281  10.805 -0.2127 -0.6648 -1.1072
17706TIP3    H274534   1.026   1.232  10.877 -0.0967  1.2007  0.4005
17707TIP3   OH274535   4.907   5.584   2.398  0.1340 -0.1402  0.0593
17707TIP3    H174536   4.904   5.543   2.311  1.2986 -0.0023 -0.0506
17707TIP3    H274537   4.964   5.527   2.449  0.2842  0.3483  0.4379
17708TIP3   OH274538   5.734   5.638   0.015  0.1869 -0.3100 -0.5528
17708TIP3    H174539   5.748   5.705   0.082  0.1368 -0.6305 -0.2232
17708TIP3    H274540   5.808   5.649  -0.046 -1.7889  2.5581 -2.5934
17709TIP3   OH274541   0.006   5.819   0.835 -0.2581  0.4211  0.1721
17709TIP3    H174542   0.025   5.891   0.896  2.2800 -0.6884  0.7281
17709TIP3    H274543  -0.082   5.840   0.801 -0.2743  2.8863  1.5755
17710TIP3   OH274544   2.678   6.520  16.898 -0.5656 -0.2471  0.0469
17710TIP3    H174545   2.691   6.615  16.907 -0.8780 -0.3154  1.1599
17710TIP3    H274546   2.761   6.488  16.863 -0.5395  0.4660 -0.5620
17711TIP3   OH274547   5.262   5.582   2.326 -0.2283 -0.1669 -0.0417
17711TIP3    H174548   5.286   5.641   2.398 -0.1140 -0.2797  0.0109
17711TIP3    H274549   5.301   5.498   2.349  0.1921 -0.0867 -0.4612
17712TIP3   OH274550   3.262   6.274   1.979  0.1843  0.4183 -0.0153
17712TIP3    H174551   3.294   6.363   1.963 -2.2483  1.4494  0.6738
17712TIP3    H274552   3.296   6.251   2.065  1.3779  0.3744 -0.4749
17713TIP3   OH274553   1.340   1.002   0.357 -0.1645 -0.1226  0.2495
17713TIP3    H174554   1.310   0.954   0.280 -0.7488 -0.7905  0.8833
17713TIP3    H274555   1.434   0.983   0.362  0.0395  0.6102 -0.7795
17714TIP3   OH274556   6.154   6.371   1.908  0.5909  0.0867 -0.0523
17714TIP3    H174557   6.104   6.387   1.988 -2.5481 -2.7201 -1.3218
17714TIP3    H274558   6.165   6.457   1.868 -1.9798  0.9504  1.0043
17715TIP3   OH274559   6.765   3.230   0.104  0.3039 -0.1120  0.5203
17715TIP3    H174560   6.726   3.297   0.159 -1.5358  0.3476 -1.3037
17715TIP3    H274561   6.838   3.274   0.060  0.6170  0.0148  1.1571
17716TIP3   OH274562   2.537   3.044   0.161  0.1044 -0.2232  0.2732
17716TIP3    H174563   2.516   3.069   0.251 -1.4030  0.6597 -0.3135
17716TIP3    H274564   2.523   3.124   0.110  3.3710  0.0021 -0.4163
17717TIP3   OH274565   2.284   5.457  11.430 -0.0708 -0.0569  0.0543
17717TIP3    H174566   2.259   5.409  11.351 -0.8743  1.8970 -0.9205
17717TIP3    H274567   2.378   5.474  11.418  0.0981 -0.9448  0.1542
17718TIP3   OH274568   4.432   2.433   5.291  0.3412  0.4008 -0.3441
17718TIP3    H174569   4.426   2.412   5.197  1.5773  0.3128 -0.4156
17718TIP3    H274570   4.501   2.376   5.324  0.2694  0.8073  0.5214
17719TIP3   OH274571   0.419   3.695   5.310 -0.6294  0.2925 -0.8694
17719TIP3    H174572   0.363   3.752   5.363 -1.7919 -0.5803 -1.1548
17719TIP3    H274573   0.479   3.755   5.266 -0.1172  1.1019  0.8548
17720TIP3   OH274574   2.667   2.422   6.676 -0.3425  0.6434 -0.0571
17720TIP3    H174575   2.586   2.472   6.685 -0.2107  0.4421  2.7458
17720TIP3    H274576   2.732   2.487   6.648 -0.8599  1.4001  0.4651
17721TIP3   OH274577   2.539   4.468  11.700  0.5250 -0.6446  0.1022
17721TIP3    H174578   2.561   4.558  11.674  3.1453 -1.7474 -1.6914
17721TIP3    H274579   2.445   4.471  11.718  0.3029  2.1639 -1.2022
17722TIP3   OH274580   0.507   2.432   2.699  0.5371 -0.1717 -0.7219
17722TIP3    H174581   0.532   2.509   2.752  3.0043 -1.2064 -0.2951
17722TIP3    H274582   0.413   2.441   2.687 -0.2490 -0.0841  4.2416
17723TIP3   OH274583   5.482   1.168  13.225 -0.3652 -0.3017 -0.4266
17723TIP3    H174584   5.403   1.200  13.268  1.3721  1.0878  1.8362
17723TIP3    H274585   5.546   1.237  13.237  0.6396 -0.5017 -4.0858
17724TIP3   OH274586   2.951   0.460   0.588  0.1918  0.1337 -0.7396
17724TIP3    H174587   2.873   0.462   0.533 -1.1415  0.8974  1.1409
17724TIP3    H274588   2.926   0.409   0.665  1.6071  0.2327 -0.1872
17725TIP3   OH274589   0.665   4.612  11.819  0.4068 -0.3148 -0.7074
17725TIP3    H174590   0.695   4.680  11.880  0.8243 -0.9607 -0.1905
17725TIP3    H274591   0.728   4.541  11.829 -1.7569 -2.0806  1.0767
17726TIP3   OH274592   0.713   2.975   5.439 -0.1344 -0.0900 -0.3608
17726TIP3    H174593   0.801   3.013   5.447  0.0013 -0.7046  1.1896
17726TIP3    H274594   0.728   2.880   5.433 -0.7073 -0.2349  0.3972
17727TIP3   OH274595   3.556   1.947   0.398  0.0422  0.1108 -0.0681
17727TIP3    H174596   3.504   1.867   0.404 -1.8134  1.1813 -1.5439
17727TIP3    H274597   3.501   2.015   0.437  0.6106  1.1259 -0.9850
17728TIP3   OH274598   4.516   2.018  16.304 -0.2722  0.1326 -0.4651
17728TIP3    H174599   4.446   1.994  16.244 -0.2175  0.6086 -0.7228
17728TIP3    H274600   4.587   1.956  16.284  0.2385  1.1332 -1.8276
17729TIP3   OH274601   4.584   4.814  16.564  0.1507 -0.2536  0.2308
17729TIP3    H174602   4.599   4.837  16.472 -0.8906 -1.6520 -0.3148
17729TIP3    H274603   4.495   4.842  16.582  0.1809 -0.4289  0.6566
17730TIP3   OH274604   4.040   1.904   5.186  0.4651 -0.0192  0.0655
17730TIP3    H174605   4.127   1.877   5.213  0.4250  0.5374  0.7691
17730TIP3    H274606   3.983   1.877   5.258  0.2691  0.9308  0.2712
17731TIP3   OH274607   1.802   3.650  14.029 -0.0166  0.2846  0.2819
17731TIP3    H174608   1.732   3.691  14.080 -0.7856  1.4343 -1.6738
17731TIP3    H274609   1.757   3.589  13.971  0.6820  0.2871 -0.2652
17732TIP3   OH274610   2.424   1.555   3.636 -0.2284  0.6949  0.8726
17732TIP3    H174611   2.349   1.578   3.581 -1.0294 -3.3386  0.1111
17732TIP3    H274612   2.385   1.540   3.723 -0.2406 -0.8841  0.6002
17733TIP3   OH274613   3.390   5.357  16.507  0.4059  0.1172  0.0779
17733TIP3    H174614   3.377   5.446  16.539  0.6683  1.0172 -2.2393
17733TIP3    H274615   3.475   5.358  16.464  0.4282 -1.2653  0.0548
17734TIP3   OH274616   6.775   5.849  11.972 -0.2923 -0.1114 -0.4100
17734TIP3    H174617   6.809   5.805  11.893  0.5630 -0.2787  0.0485
17734TIP3    H274618   6.828   5.813  12.043  1.6913  3.0265 -0.2260
17735TIP3   OH274619   2.564   3.998  14.406  0.6218 -0.2245 -0.2629
17735TIP3    H174620   2.555   4.064  14.337  0.5827 -0.3841 -0.4096
17735TIP3    H274621   2.487   4.011  14.461  1.8250  1.4633  1.0916
17736TIP3   OH274622   2.925   4.579   3.290 -0.0670  0.3360  0.4982
17736TIP3    H174623   2.839   4.558   3.254 -0.3044 -2.3140  2.4868
17736TIP3    H274624   2.985   4.519   3.245  1.2863  3.8689 -2.7909
17737TIP3   OH274625   0.514   2.906   0.008  0.3966  0.7192  0.1753
17737TIP3    H174626   0.522   2.976  -0.057  3.5881  0.6088  0.3862
17737TIP3    H274627   0.521   2.825  -0.042 -1.3389  0.5492  0.1759
17738TIP3   OH274628   2.922   0.522   4.556 -0.7937 -0.1431 -0.0913
17738TIP3    H174629   2.937   0.477   4.640  1.3859  0.0227 -0.3522
17738TIP3    H274630   2.961   0.463   4.491  0.0313  1.0187 -0.6753
17739TIP3   OH274631   2.084   5.048  12.626  0.4904  0.1167  0.3256
17739TIP3    H174632   2.137   4.975  12.594  0.3709  0.5482 -0.8795
17739TIP3    H274633   2.117   5.065  12.714  1.2333 -0.7043  0.2054
17740TIP3   OH274634   4.638   5.326   1.496  0.2548  0.3716  0.1829
17740TIP3    H174635   4.580   5.370   1.558 -1.3735 -1.6714  0.1548
17740TIP3    H274636   4.615   5.364   1.411 -1.7783 -1.1244  0.0318
17741TIP3   OH274637   2.081   0.070  13.007 -0.0314  0.7183 -0.4095
17741TIP3    H174638   2.020  -0.004  13.004 -0.6638  1.2414 -0.7138
17741TIP3    H274639   2.105   0.078  13.099  0.2134 -0.0079 -0.4086
17742TIP3   OH274640   1.775   6.769  13.807 -0.2368  0.0784 -0.1551
17742TIP3    H174641   1.820   6.696  13.850 -2.0518 -1.2961 -0.4787
17742TIP3    H274642   1.682   6.751  13.821 -0.7449  1.7899 -1.1406
17743TIP3   OH274643   3.536   5.872  12.392  0.0197 -0.6612 -0.2167
17743TIP3    H174644   3.580   5.792  12.418 -0.1953 -0.2555  1.4433
17743TIP3    H274645   3.543   5.874  12.297 -0.3527 -2.8650 -0.3033
17744TIP3   OH274646   2.233   3.443  15.772  0.1392  0.7476  0.2959
17744TIP3    H174647   2.138   3.452  15.774  0.0597 -0.1757  2.0025
17744TIP3    H274648   2.255   3.411  15.859  1.8526 -0.5298 -0.5826
17745TIP3   OH274649   0.569   0.835   0.606 -0.1924  0.1025  0.2406
17745TIP3    H174650   0.483   0.832   0.647 -1.1494  1.4952 -1.6015
17745TIP3    H274651   0.626   0.786   0.666 -2.0620 -0.0788  1.9154
17746TIP3   OH274652   4.191   0.510  10.576  0.5859  0.4550  0.5196
17746TIP3    H174653   4.272   0.546  10.541  0.9505  0.5766  1.4714
17746TIP3    H274654   4.165   0.443  10.513  1.7792 -0.0476  0.5509
17747TIP3   OH274655   1.186   1.417   5.623 -0.5972  0.0692  0.2617
17747TIP3    H174656   1.139   1.337   5.648 -1.7554  1.1126  1.5001
17747TIP3    H274657   1.118   1.476   5.591  0.3162  0.4036 -1.1121
17748TIP3   OH274658   0.633   1.732   6.543 -0.9414  0.4113  0.4120
17748TIP3    H174659   0.661   1.727   6.635  0.0831  0.6603  0.1282
17748TIP3    H274660   0.589   1.649   6.526  1.4050 -0.8690  0.3302
17749TIP3   OH274661   1.545   4.333  11.200 -0.0667  0.0591 -0.2667
17749TIP3    H174662   1.511   4.307  11.114 -1.8920 -0.8765  0.7057
17749TIP3    H274663   1.602   4.261  11.226 -0.3030 -0.1238 -0.2543
17750TIP3   OH274664   0.354   6.124   1.446 -0.2167 -0.4046 -0.2866
17750TIP3    H174665   0.282   6.061   1.451 -0.1403 -0.5252 -0.7196
17750TIP3    H274666   0.324   6.189   1.383 -0.5086  0.2675  0.5405
17751TIP3   OH274667   0.612   6.476  12.755 -0.5023  0.1498 -0.0304
17751TIP3    H174668   0.635   6.529  12.678  1.1015  0.4927  0.6447
17751TIP3    H274669   0.627   6.535  12.829 -2.1003 -0.1573  0.5437
17752TIP3   OH274670   2.392   5.933  11.401 -0.4884 -0.3506 -0.1614
17752TIP3    H174671   2.447   6.004  11.368 -1.4531 -0.7992 -2.9640
17752TIP3    H274672   2.426   5.854  11.357 -2.6521 -0.7875 -1.1462
17753TIP3   OH274673   1.584   1.723  14.173 -0.9719 -0.0609 -0.4418
17753TIP3    H174674   1.598   1.794  14.110 -0.4492  1.7695  1.6392
17753TIP3    H274675   1.636   1.650  14.139  0.3270  1.3030 -1.4771
17754TIP3   OH274676   5.115   6.591   0.021  0.1233 -0.0960 -0.6009
17754TIP3    H174677   5.163   6.667  -0.012  2.2400 -0.9974  0.2937
17754TIP3    H274678   5.107   6.606   0.115  1.0167 -1.1826 -0.3317
17755TIP3   OH274679   0.556   0.897  14.697  0.1433  0.8419 -0.8171
17755TIP3    H174680   0.483   0.868  14.752  1.0616 -1.3303 -0.6974
17755TIP3    H274681   0.578   0.984  14.731  1.1906 -0.7387  2.8227
17756TIP3   OH274682   0.377   5.953  13.466  0.4458 -0.0724  1.1625
17756TIP3    H174683   0.434   5.953  13.543 -1.5336  1.5163  2.6821
17756TIP3    H274684   0.411   6.024  13.411  0.8047 -0.0815  1.3688
17757TIP3   OH274685   3.992   3.824  14.442  0.1681  0.4614  0.1353
17757TIP3    H174686   3.914   3.815  14.497  1.2507 -1.3650  1.4203
17757TIP3    H274687   3.958   3.817  14.352 -1.2827  0.8137  0.6395
17758TIP3   OH274688   6.396   3.140  12.411 -0.1743 -0.4846  0.3453
17758TIP3    H174689   6.330   3.070  12.402  0.0006 -0.5790 -0.1835
17758TIP3    H274690   6.363   3.194  12.484 -1.7132  0.4348 -0.9955
17759TIP3   OH274691   3.314   1.798  16.694 -0.4668 -0.5444 -0.2839
17759TIP3    H174692   3.280   1.719  16.738  0.0832  0.3656  1.8188
17759TIP3    H274693   3.404   1.775  16.671 -0.0312 -0.2751  1.0747
17760TIP3   OH274694   6.562   2.311  17.077  0.3775 -0.5502 -0.6299
17760TIP3    H174695   6.522   2.229  17.049 -1.7929  0.3416 -0.2513
17760TIP3    H274696   6.587   2.355  16.996 -0.9262 -0.3855 -0.9453
17761TIP3   OH274697   4.924   5.620  12.672  0.3659 -0.2452 -0.0739
17761TIP3    H174698   4.835   5.602  12.703  1.1264 -1.6947  1.3583
17761TIP3    H274699   4.961   5.533  12.653  2.1944  0.1654  1.4426
17762TIP3   OH274700   4.658   1.290   3.588  0.6308  0.3885  0.0757
17762TIP3    H174701   4.713   1.216   3.561  1.5388  0.1950  2.3676
17762TIP3    H274702   4.714   1.342   3.645 -0.3770  2.2492 -0.6186
17763TIP3   OH274703   4.108   0.087  12.653  0.0596  0.1613 -0.3725
17763TIP3    H174704   4.141   0.172  12.624 -0.4848  0.0929 -1.2199
17763TIP3    H274705   4.162   0.023  12.607 -0.3099  0.0542 -0.6650
17764TIP3   OH274706   0.022   0.676   0.778 -0.0326 -0.5182  0.1281
17764TIP3    H174707   0.105   0.655   0.821 -0.1159  0.5000  0.7869
17764TIP3    H274708   0.032   0.643   0.688  1.7361  1.1237 -0.2987
17765TIP3   OH274709   3.546   5.125   4.222 -0.5924 -0.5006  0.1145
17765TIP3    H174710   3.481   5.070   4.266 -0.3799  0.0716  1.1487
17765TIP3    H274711   3.527   5.113   4.128 -1.8536 -0.7439  0.3812
17766TIP3   OH274712   4.467   1.636  10.621  0.6090  0.0352 -0.5270
17766TIP3    H174713   4.380   1.671  10.642  1.2562  0.0184  2.3518
17766TIP3    H274714   4.515   1.712  10.587  0.0418  0.4595 -0.4008
17767TIP3   OH274715   5.465   3.484  15.946  0.1235  0.0316 -0.3535
17767TIP3    H174716   5.532   3.507  16.011 -0.7762 -0.4307  0.7598
17767TIP3    H274717   5.438   3.568  15.909  2.1911  0.1366 -1.7260
17768TIP3   OH274718   2.871   3.362   1.498  0.6448  0.2388  0.1030
17768TIP3    H174719   2.890   3.455   1.481  0.8990  0.5433  1.9129
17768TIP3    H274720   2.911   3.346   1.584 -0.5350 -1.2035  0.3819
17769TIP3   OH274721   2.718   4.132   0.602  0.0972 -0.2760  0.2403
17769TIP3    H174722   2.709   4.184   0.682 -0.5674  0.1248 -0.0965
17769TIP3    H274723   2.647   4.069   0.606 -1.7301  1.6193 -1.4432
17770TIP3   OH274724   5.020   0.198   0.706 -0.0341 -0.7013  0.2094
17770TIP3    H174725   4.977   0.113   0.706 -0.0105 -0.7525 -2.0202
17770TIP3    H274726   5.007   0.231   0.617  1.2842  0.9289  0.5993
17771TIP3   OH274727   0.363   2.994  11.490  0.0726  0.2964  0.1715
17771TIP3    H174728   0.346   3.088  11.501 -2.0522  0.1437 -1.4570
17771TIP3    H274729   0.277   2.953  11.500  0.2354 -1.0361 -3.2909
17772TIP3   OH274730   4.202   3.214  15.142 -0.6637 -0.0926 -0.1998
17772TIP3    H174731   4.147   3.138  15.124 -1.0072  0.4823 -1.5833
17772TIP3    H274732   4.142   3.288  15.144 -0.2205  0.2638  0.3840
17773TIP3   OH274733   0.825   5.109   6.210 -0.2797  0.4200  0.0944
17773TIP3    H174734   0.735   5.077   6.215 -0.6372  1.2506 -0.6962
17773TIP3    H274735   0.862   5.094   6.297 -0.5357 -1.7892 -0.1681
17774TIP3   OH274736   5.688   4.880   5.243 -0.1706  0.0680  0.4600
17774TIP3    H174737   5.702   4.926   5.161 -1.0581  1.2221  0.9455
17774TIP3    H274738   5.675   4.788   5.217  1.4430  0.0953 -0.5138
17775TIP3   OH274739   4.636   2.810  17.083 -0.0030 -0.2224  0.4695
17775TIP3    H174740   4.716   2.823  17.134  1.3275 -0.3716 -1.5629
17775TIP3    H274741   4.658   2.742  17.019 -1.6638 -0.0602 -0.3056
17776TIP3   OH274742   5.995   1.262  11.966 -0.5078  0.0406 -0.2236
17776TIP3    H174743   5.936   1.274  11.891  0.0501 -1.9024 -1.0047
17776TIP3    H274744   6.080   1.243  11.927 -0.0472 -0.2838  0.9053
17777TIP3   OH274745   1.346   1.377  11.212  0.4918  0.0780 -0.4583
17777TIP3    H174746   1.314   1.300  11.164 -1.6297  0.5403  0.1633
17777TIP3    H274747   1.427   1.347  11.254  1.1121 -1.0166 -2.3754
17778TIP3   OH274748   1.679   5.638   4.800 -0.3245  0.2201  0.5118
17778TIP3    H174749   1.617   5.567   4.781  0.0465 -0.3120  1.2445
17778TIP3    H274750   1.635   5.691   4.866  0.5943 -1.0108  2.1533
17779TIP3   OH274751   1.557   0.882   2.917 -0.2990 -0.0088  0.3753
17779TIP3    H174752   1.593   0.829   2.988 -1.9932 -2.5024 -0.5739
17779TIP3    H274753   1.635   0.918   2.874  0.9824 -2.4302  0.5319
17780TIP3   OH274754   4.372   1.644  11.840  0.7062  0.0152 -0.3475
17780TIP3    H174755   4.352   1.688  11.758 -0.2083 -1.6734 -1.0630
17780TIP3    H274756   4.341   1.704  11.908  1.4676  1.4204 -1.2191
17781TIP3   OH274757   0.534   3.050   4.392  0.3297 -0.0600  0.2633
17781TIP3    H174758   0.586   3.101   4.330  1.2509 -0.8723  0.3495
17781TIP3    H274759   0.457   3.022   4.343 -0.5453  1.9774  0.4087
17782TIP3   OH274760   5.082   1.222  14.980  0.3123 -0.0233 -0.2162
17782TIP3    H174761   5.006   1.185  14.937  1.1162 -2.9610  0.8168
17782TIP3    H274762   5.089   1.175  15.063  2.4001  1.2019  0.3452
17783TIP3   OH274763   2.046   3.940  13.283  0.6485 -0.4846  0.5989
17783TIP3    H174764   1.975   3.968  13.340 -0.9676 -1.2097 -1.0266
17783TIP3    H274765   2.078   3.858  13.323 -0.4917 -1.0038  0.4619
17784TIP3   OH274766   0.901   6.155  11.861  0.3958 -0.0314 -0.2036
17784TIP3    H174767   0.893   6.221  11.792 -3.3035  0.9523  1.0838
17784TIP3    H274768   0.878   6.073  11.819 -0.4617  0.3485 -0.4764
17785TIP3   OH274769   4.968   1.287   3.888  0.3723 -0.2250 -0.2850
17785TIP3    H174770   4.974   1.332   3.804 -0.6656  0.8518  0.2006
17785TIP3    H274771   5.016   1.205   3.875 -0.0923 -0.2388 -2.0375
17786TIP3   OH274772   4.769   4.976  13.467  0.2007  0.3065 -0.1861
17786TIP3    H174773   4.794   4.888  13.440  0.4705  0.1458  0.5655
17786TIP3    H274774   4.852   5.018  13.492 -0.2562 -0.3692  2.7063
17787TIP3   OH274775   3.163   5.019   5.255  0.2724  0.0493  0.4481
17787TIP3    H174776   3.235   5.033   5.316 -1.2500 -0.1132  2.3426
17787TIP3    H274777   3.133   4.930   5.273 -0.6252  0.2463 -0.0666
17788TIP3   OH274778   1.904   2.566  15.035  0.7121 -0.1802  0.1552
17788TIP3    H174779   1.873   2.587  15.123  0.3232 -0.1237  0.0065
17788TIP3    H274780   1.865   2.634  14.980  0.9193 -0.2416 -0.0684
17789TIP3   OH274781   1.644   3.061   0.193 -0.4180 -0.1999  0.3829
17789TIP3    H174782   1.708   2.994   0.216 -0.5613 -0.4246  0.1249
17789TIP3    H274783   1.623   3.044   0.101  1.8096  2.0450 -0.5993
17790TIP3   OH274784   3.234   6.010  15.555 -0.2805 -0.1628 -0.3817
17790TIP3    H174785   3.296   5.939  15.542  0.8569  0.6808  0.3408
17790TIP3    H274786   3.269   6.060  15.629 -1.9257  0.2111  0.1829
17791TIP3   OH274787   2.365   5.624  10.836  0.0398 -0.3358  0.1658
17791TIP3    H174788   2.288   5.577  10.868 -0.5011 -0.6049 -1.4402
17791TIP3    H274789   2.348   5.636  10.742  1.2654  0.9512  0.0863
17792TIP3   OH274790   1.593   4.570   5.232 -0.0629 -0.4303 -1.3188
17792TIP3    H174791   1.554   4.629   5.168  0.9246 -0.2187 -1.7308
17792TIP3    H274792   1.648   4.626   5.286  0.1532 -0.8210 -1.1322
17793TIP3   OH274793   3.457   1.454  13.445 -0.2796 -0.0374 -0.7093
17793TIP3    H174794   3.525   1.441  13.379 -0.4643 -0.1512 -0.8790
17793TIP3    H274795   3.449   1.369  13.488  1.3549  0.6247  0.9274
17794TIP3   OH274796   0.684   2.540  16.084  0.3963  0.5252  0.3038
17794TIP3    H174797   0.735   2.611  16.043 -1.3318  2.2747  1.0833
17794TIP3    H274798   0.596   2.552  16.049  0.0611 -1.1941  0.5499
17795TIP3   OH274799   0.509   2.605  10.988 -0.2267  0.4779 -0.6775
17795TIP3    H174800   0.490   2.563  10.905 -1.7001  1.1184 -0.6830
17795TIP3    H274801   0.513   2.699  10.967  1.2831  0.4984 -0.3632
17796TIP3   OH274802   1.245   1.243   0.974 -0.8126 -0.0417 -0.3852
17796TIP3    H174803   1.319   1.185   0.956 -0.2883  0.7923 -1.0036
17796TIP3    H274804   1.217   1.220   1.062 -0.5226 -1.1281 -0.5674
17797TIP3   OH274805   5.950   3.337   6.045  0.5483 -0.1437  0.0083
17797TIP3    H174806   5.970   3.352   5.952  0.5649  1.7294  0.2859
17797TIP3    H274807   5.957   3.243   6.056 -2.5947 -0.7754 -2.6442
17798TIP3   OH274808   2.760   0.931   0.548 -0.3972 -0.2227  0.0854
17798TIP3    H174809   2.681   0.877   0.535 -0.9341  0.6525 -0.3349
17798TIP3    H274810   2.727   1.013   0.586  0.2423  0.3627 -0.6189
17799TIP3   OH274811   2.617   2.884   2.715 -0.3842 -0.3948  0.0559
17799TIP3    H174812   2.671   2.907   2.639  1.5970  2.8792  2.3347
17799TIP3    H274813   2.667   2.817   2.761 -0.8033 -1.1917 -0.6443
17800TIP3   OH274814   3.497   5.093   3.959 -0.1004 -0.4890 -0.3740
17800TIP3    H174815   3.533   5.128   3.878 -1.1313  1.7949  0.1174
17800TIP3    H274816   3.411   5.058   3.934  0.6749 -2.1719 -0.7474
17801TIP3   OH274817   3.602   1.758  17.179 -0.3227  0.0226 -0.2196
17801TIP3    H174818   3.538   1.718  17.121  0.7535  1.0806 -2.1803
17801TIP3    H274819   3.684   1.713  17.160 -0.2327 -0.5863  1.5128
17802TIP3   OH274820   0.293   6.356  13.422  0.3671  0.0634 -0.3512
17802TIP3    H174821   0.267   6.303  13.346 -2.3330  0.2045  0.4271
17802TIP3    H274822   0.265   6.305  13.498  2.7201  0.0908  0.5731
17803TIP3   OH274823   6.174   3.079  14.396  0.3715  0.2107  0.6873
17803TIP3    H174824   6.247   3.025  14.428  0.6022 -0.0005 -0.1806
17803TIP3    H274825   6.196   3.168  14.423  0.1186 -0.0826  1.9064
17804TIP3   OH274826   2.532   1.693   1.579 -0.0296  0.0924 -0.0903
17804TIP3    H174827   2.465   1.674   1.646  0.3949 -2.5009 -0.3457
17804TIP3    H274828   2.585   1.762   1.618 -1.1039  0.1439  1.3568
17805TIP3   OH274829   3.949   4.956  14.887 -0.7017  0.3335  0.7792
17805TIP3    H174830   3.911   4.878  14.929  0.2564 -0.9668 -0.6838
17805TIP3    H274831   3.942   5.025  14.952 -3.4541 -0.4558  1.3906
17806TIP3   OH274832   4.229   2.375  14.892 -0.0642  0.0672  0.2751
17806TIP3    H174833   4.173   2.307  14.856  0.5661  0.4462 -1.4637
17806TIP3    H274834   4.272   2.334  14.967 -0.6468 -1.0461  0.0085
17807TIP3   OH274835   4.754   0.196  13.329  0.0642  0.0149  0.6866
17807TIP3    H174836   4.721   0.279  13.363 -0.3448  1.2051 -2.4403
17807TIP3    H274837   4.690   0.131  13.358 -1.8755  1.4331 -0.3091
17808TIP3   OH274838   2.993   4.857  12.150 -0.2298 -0.5071 -0.2046
17808TIP3    H174839   2.931   4.930  12.139 -0.4941 -0.7558 -0.3628
17808TIP3    H274840   3.079   4.896  12.135 -0.0739  0.5038  2.8650
17809TIP3   OH274841   3.473   6.286   5.597 -0.1702 -0.9594 -0.1425
17809TIP3    H174842   3.481   6.194   5.570  0.4024 -1.0173  0.2363
17809TIP3    H274843   3.483   6.284   5.692  1.3677 -0.3233 -0.2908
17810TIP3   OH274844   5.264   6.549  10.641 -0.0016 -0.0398  0.1504
17810TIP3    H174845   5.301   6.605  10.709  1.2777 -1.0976  0.3341
17810TIP3    H274846   5.339   6.521  10.589 -0.8660  0.0070 -1.1393
17811TIP3   OH274847   3.609   2.740  16.915 -0.3272 -0.1801 -0.0228
17811TIP3    H174848   3.577   2.830  16.911 -1.1483 -0.4101  1.0629
17811TIP3    H274849   3.598   2.715  17.007  1.7601 -0.7257  0.1007
17812TIP3   OH274850   2.063   2.402   5.735  0.6016  0.1575  0.2748
17812TIP3    H174851   2.031   2.321   5.774  2.9976 -2.3242 -2.6104
17812TIP3    H274852   2.153   2.410   5.766  0.7330  1.1318 -0.3181
17813TIP3   OH274853   0.074   6.249  11.536  0.4264 -0.2469  0.0711
17813TIP3    H174854   0.123   6.201  11.470  0.4425 -0.7610  0.4528
17813TIP3    H274855   0.039   6.325  11.489 -1.2184 -1.6297 -1.0072
17814TIP3   OH274856   4.786   2.137   2.176  0.4651 -0.4158  0.2169
17814TIP3    H174857   4.865   2.183   2.146  0.0496 -0.9872 -1.8980
17814TIP3    H274858   4.716   2.201   2.167 -0.0482 -1.2769 -2.3584
17815TIP3   OH274859   0.715   3.687   0.882  0.0784 -0.4595 -0.3092
17815TIP3    H174860   0.743   3.640   0.960 -1.1512 -1.9612 -0.7518
17815TIP3    H274861   0.688   3.618   0.821 -1.4430  0.8067 -1.0989
17816TIP3   OH274862   1.910   1.443  11.235  0.1136  0.5617  0.2844
17816TIP3    H174863   1.873   1.507  11.296 -0.5226 -0.5869  1.1196
17816TIP3    H274864   1.912   1.488  11.151 -2.5286  0.8855  0.3664
17817TIP3   OH274865   2.630   4.709   4.302  0.4495  0.3212  0.3036
17817TIP3    H174866   2.667   4.643   4.360  0.6373  1.4186  1.4627
17817TIP3    H274867   2.705   4.763   4.276  0.0410  1.1560  0.8128
17818TIP3   OH274868   1.218   0.339  12.438 -0.1233 -0.2300  0.0540
17818TIP3    H174869   1.171   0.260  12.411 -0.2103 -0.2070  0.1388
17818TIP3    H274870   1.158   0.411  12.418 -1.1992 -0.3894  2.5859
17819TIP3   OH274871   1.839   0.012  10.950  0.8266 -0.2289  0.3135
17819TIP3    H174872   1.807  -0.048  11.018  0.3985 -1.3058 -0.8225
17819TIP3    H274873   1.792  -0.014  10.871  1.6380  0.7391 -0.5030
17820TIP3   OH274874   4.342   2.866   0.482 -0.1084 -0.2494  0.2260
17820TIP3    H174875   4.272   2.924   0.455  1.0441  0.8430 -0.4764
17820TIP3    H274876   4.299   2.784   0.505 -1.5382  0.2397 -0.7232
17821TIP3   OH274877   3.602   0.173  16.819  0.1653  0.1676  0.0211
17821TIP3    H174878   3.582   0.165  16.726 -0.9152  2.3847  0.0419
17821TIP3    H274879   3.524   0.213  16.857  0.6024 -0.7069  1.9046
17822TIP3   OH274880   2.447   4.874   3.610  0.1275 -0.1352 -0.1625
17822TIP3    H174881   2.438   4.817   3.687  1.1039  0.9903  0.8215
17822TIP3    H274882   2.477   4.816   3.540 -2.9885 -1.6280 -0.3610
17823TIP3   OH274883   3.524   3.206  15.118  0.0852  0.4531 -0.0829
17823TIP3    H174884   3.466   3.272  15.081 -0.0937  0.3723  0.0587
17823TIP3    H274885   3.466   3.142  15.159  0.2757  0.4289  0.1501
17824TIP3   OH274886   1.665   5.091   4.419 -0.3001  0.0080 -0.0146
17824TIP3    H174887   1.746   5.136   4.444  0.4003 -0.3247 -1.6159
17824TIP3    H274888   1.685   5.052   4.334 -1.3031 -2.2262  0.7345
17825TIP3   OH274889   1.276   3.675  16.838 -0.1013 -0.1964  0.6647
17825TIP3    H174890   1.268   3.679  16.742  2.8625  0.8710  0.4168
17825TIP3    H274891   1.324   3.595  16.854 -0.2928 -0.1923  1.2418
17826TIP3   OH274892   1.367   2.641   1.904  0.7189 -0.8970 -0.0753
17826TIP3    H174893   1.396   2.726   1.872  1.6685 -0.8398  0.9107
17826TIP3    H274894   1.444   2.604   1.947 -0.8644 -0.4504  3.2369
17827TIP3   OH274895   1.965   6.365   1.366 -0.0138 -0.4959  0.4779
17827TIP3    H174896   1.911   6.379   1.288 -1.3543 -1.2659  1.2383
17827TIP3    H274897   2.019   6.443   1.373  0.5575 -0.6919 -1.5762
17828TIP3   OH274898   4.666   4.259  11.869 -0.0816 -0.8977 -0.1936
17828TIP3    H174899   4.612   4.333  11.842 -0.6046 -0.8358  1.0048
17828TIP3    H274900   4.670   4.203  11.792  0.4518  0.4392 -1.1747
17829TIP3   OH274901   3.299   5.559   1.908 -0.2310 -0.1512 -0.4472
17829TIP3    H174902   3.208   5.551   1.934 -0.3867 -0.1453 -0.9969
17829TIP3    H274903   3.331   5.469   1.902  0.1619 -0.1201  1.0240
17830TIP3   OH274904   6.434   5.965   3.657 -0.0552  0.2580 -0.3922
17830TIP3    H174905   6.343   5.951   3.684  0.0528 -0.4552 -0.4005
17830TIP3    H274906   6.428   6.028   3.585 -0.7410 -1.4302 -1.8591
17831TIP3   OH274907   0.779   2.650  15.592 -0.1126  0.0125 -0.9210
17831TIP3    H174908   0.802   2.594  15.518 -1.0597  0.1024 -1.2935
17831TIP3    H274909   0.731   2.592  15.651 -0.1914  0.1720 -0.8290
17832TIP3   OH274910   1.777   3.513   2.975  0.3172 -0.5709 -0.3379
17832TIP3    H174911   1.773   3.539   2.884 -0.3225  0.4211 -0.0261
17832TIP3    H274912   1.763   3.593   3.025 -1.7235 -1.4968  0.6309
17833TIP3   OH274913   1.711   5.006   1.253  0.2623  0.2317 -0.3369
17833TIP3    H174914   1.803   4.981   1.244  1.0016  2.5926  0.3004
17833TIP3    H274915   1.675   4.943   1.315  1.3880 -0.8186 -0.7280
17834TIP3   OH274916   5.488   2.789   6.148 -0.5038  0.3296 -0.0750
17834TIP3    H174917   5.521   2.869   6.190  0.2645 -0.6523  1.2316
17834TIP3    H274918   5.407   2.816   6.104 -0.8882  1.5622  1.3642
17835TIP3   OH274919   4.990   6.156  15.658 -0.0310  0.2343  0.1449
17835TIP3    H174920   4.911   6.191  15.616 -1.7584 -1.7434  1.5742
17835TIP3    H274921   4.998   6.207  15.739 -0.2814 -0.0250  0.3381
17836TIP3   OH274922   1.599   3.105  13.997  0.5037 -0.1323 -0.4281
17836TIP3    H174923   1.642   3.064  14.072 -0.0798  2.2268  1.2451
17836TIP3    H274924   1.521   3.146  14.034  0.1714  1.0116 -2.3398
17837TIP3   OH274925   0.187   3.975   6.646 -0.2680  0.3799 -0.4370
17837TIP3    H174926   0.207   3.953   6.555  0.7530 -0.5199 -0.0129
17837TIP3    H274927   0.272   3.978   6.690 -0.8497 -1.1427  0.8950
17838TIP3   OH274928   0.017   6.026  13.460 -0.0908  0.4308 -0.0045
17838TIP3    H174929  -0.064   5.989  13.495 -0.3677  1.5306  0.5580
17838TIP3    H274930   0.053   5.958  13.404 -1.4256 -0.0562 -0.2742
17839TIP3   OH274931   0.988   0.385   0.670  0.9393  0.2997  0.5951
17839TIP3    H174932   0.905   0.341   0.649  0.9811 -0.1329  1.3465
17839TIP3    H274933   1.013   0.428   0.588  0.0740  0.2627  0.3108
17840TIP3   OH274934   4.140   6.291  13.242 -0.5032 -0.0891  0.4100
17840TIP3    H174935   4.225   6.255  13.219  0.3071  1.4782  0.8737
17840TIP3    H274936   4.159   6.356  13.309 -1.7507  2.0906 -1.2650
17841TIP3   OH274937   0.003   5.448  14.349  0.4261 -0.0761  0.5844
17841TIP3    H174938  -0.035   5.526  14.309  0.9499  0.7420  1.6410
17841TIP3    H274939   0.069   5.419  14.287  0.7971  0.8087  0.5578
17842TIP3   OH274940   1.333   5.152  13.376 -0.3467  0.4872  0.2820
17842TIP3    H174941   1.238   5.137  13.369 -0.4908  1.8797 -1.1424
17842TIP3    H274942   1.342   5.227  13.434  0.0025 -0.7932  1.9127
17843TIP3   OH274943   5.754   4.866  13.963 -0.1660  0.2827  0.4090
17843TIP3    H174944   5.818   4.825  13.904 -1.5521  0.6071 -1.3444
17843TIP3    H274945   5.701   4.792  13.995  2.0152 -0.2174  3.1455
17844TIP3   OH274946   3.253   1.505  16.735 -0.2818  0.1176 -0.1663
17844TIP3    H174947   3.347   1.507  16.752 -0.7491  1.9919  2.5387
17844TIP3    H274948   3.246   1.494  16.641  2.6715  1.2004 -0.5723
17845TIP3   OH274949   4.048   0.184  11.854  0.2152 -0.1414 -0.0989
17845TIP3    H174950   4.093   0.261  11.820  0.1131  0.0461  0.1890
17845TIP3    H274951   4.090   0.110  11.809  1.0975 -0.0035  0.4810
17846TIP3   OH274952   1.276   4.518   0.983  0.1918 -0.5003 -0.0141
17846TIP3    H174953   1.327   4.517   1.063  1.3631 -1.6532 -0.7636
17846TIP3    H274954   1.247   4.428   0.971 -1.5307  0.0206  0.0778
17847TIP3   OH274955   2.236   1.859   3.057 -0.0418  0.5906 -0.0862
17847TIP3    H174956   2.315   1.837   3.107 -1.6804 -0.9327  1.9035
17847TIP3    H274957   2.222   1.783   3.000  1.3010  1.9337 -2.3236
17848TIP3   OH274958   1.720   0.126   4.511 -0.1419 -0.5555  0.3823
17848TIP3    H174959   1.808   0.120   4.472  0.5440  0.8534  1.6422
17848TIP3    H274960   1.735   0.119   4.605 -1.7700 -3.7443  0.4542
17849TIP3   OH274961   2.474   5.113  15.099  0.2248 -0.0175 -0.4559
17849TIP3    H174962   2.446   5.173  15.030  0.7852  0.9052  0.1055
17849TIP3    H274963   2.431   5.030  15.078 -3.8150  1.5771  0.9423
17850TIP3   OH274964   4.173   4.554  17.205 -0.7667  0.3543 -0.0486
17850TIP3    H174965   4.101   4.580  17.263 -1.4925  0.7318 -1.1121
17850TIP3    H274966   4.176   4.622  17.138 -0.4219 -0.4721 -0.8878
17851TIP3   OH274967   5.160   5.027  14.901  0.6367 -0.5244  0.3711
17851TIP3    H174968   5.069   5.010  14.926  0.9369 -0.9716  1.1764
17851TIP3    H274969   5.180   4.957  14.839  0.9760 -1.4483  1.5205
17852TIP3   OH274970   4.840   0.924  12.723  0.0531  0.3728 -0.0987
17852TIP3    H174971   4.820   1.017  12.713 -1.0660  0.1445  0.0104
17852TIP3    H274972   4.905   0.906  12.654  0.1763  1.1946 -0.2050
17853TIP3   OH274973   1.670   5.960   4.398 -0.8493  0.2330 -0.3931
17853TIP3    H174974   1.683   5.914   4.481 -1.3809  0.8131  0.0146
17853TIP3    H274975   1.698   5.897   4.332 -1.6318 -0.7055  0.1544
17854TIP3   OH274976   4.748   2.504  12.876  0.5254 -0.1087 -0.2813
17854TIP3    H174977   4.830   2.456  12.872  0.0861 -0.6872 -4.1478
17854TIP3    H274978   4.767   2.587  12.831 -0.7425  0.1934 -0.2724
17855TIP3   OH274979   2.804   2.454   3.137 -0.6403  0.5436  0.3168
17855TIP3    H174980   2.843   2.389   3.078 -0.6826  1.5984 -0.9015
17855TIP3    H274981   2.762   2.402   3.206 -2.1595 -0.7796 -1.5607
17856TIP3   OH274982   6.352   0.307   4.429  0.1984 -0.7375  1.2091
17856TIP3    H174983   6.310   0.256   4.497  0.4612 -1.5293  0.7914
17856TIP3    H274984   6.416   0.247   4.390 -0.9433 -0.7795 -0.6870
17857TIP3   OH274985   0.943   2.457   6.320 -0.2668 -0.0865 -0.1483
17857TIP3    H174986   0.912   2.367   6.332  0.4362 -0.2990  0.1259
17857TIP3    H274987   0.926   2.500   6.403 -0.3463 -0.0473 -0.1860
17858TIP3   OH274988   3.600   3.013  14.138 -0.4933 -0.3062 -0.7811
17858TIP3    H174989   3.513   3.046  14.161 -1.0528 -1.5082 -1.1052
17858TIP3    H274990   3.653   3.092  14.127 -1.0635  0.3972  1.2001
17859TIP3   OH274991   3.022   4.411  12.375  0.8001 -0.0149  0.5545
17859TIP3    H174992   3.117   4.409  12.379  0.7759 -0.1070  1.2471
17859TIP3    H274993   2.999   4.503  12.382  0.7943 -0.1045  1.8533
17860TIP3   OH274994   4.836   4.224   2.094 -0.0695 -0.3865 -0.5682
17860TIP3    H174995   4.764   4.213   2.156  0.2363  0.3908 -0.0650
17860TIP3    H274996   4.832   4.147   2.038 -2.5899  0.6758 -1.8843
17861TIP3   OH274997   2.641   3.458   2.500 -0.1424  0.4568 -0.1191
17861TIP3    H174998   2.637   3.545   2.460  2.9961  0.2770 -0.9823
17861TIP3    H274999   2.649   3.476   2.594 -2.2155  0.9982 -0.0179
17862TIP3   OH275000   0.301   2.947  16.299 -0.0764 -0.3200  0.2380
17862TIP3    H175001   0.353   2.882  16.252 -1.6197  0.4768 -2.7010
17862TIP3    H275002   0.362   3.019  16.317  0.5891 -0.7233 -0.4064
17863TIP3   OH275003   3.941   3.448   5.418  0.5643 -0.1145 -0.4576
17863TIP3    H175004   3.901   3.399   5.346  0.0391 -1.2686  0.5929
17863TIP3    H275005   3.868   3.498   5.456  0.5082 -0.6701  0.1931
17864TIP3   OH275006   2.184   2.664  11.244 -0.3231 -0.2006 -0.4200
17864TIP3    H175007   2.274   2.688  11.224 -0.2604  0.8475  0.9801
17864TIP3    H275008   2.155   2.612  11.169  1.1306  0.2564 -1.3191
17865TIP3   OH275009   0.503   5.846   0.053 -0.3000  0.0314  0.3223
17865TIP3    H175010   0.590   5.806   0.046 -0.2564  0.3062 -0.7386
17865TIP3    H275011   0.452   5.783   0.104 -0.0051 -1.0169 -0.6596
17866TIP3   OH275012   2.845   0.684  10.516 -0.1618  0.5010 -0.3682
17866TIP3    H175013   2.834   0.589  10.511 -0.1195  0.5636 -1.9344
17866TIP3    H275014   2.936   0.696  10.542  0.8188  0.1111 -3.4128
17867TIP3   OH275015   0.501   5.076   4.315 -0.0347  0.1345  1.1894
17867TIP3    H175016   0.467   4.999   4.360 -0.1734 -0.1348  0.6330
17867TIP3    H275017   0.577   5.043   4.266 -1.1037 -0.0094 -0.4040
17868TIP3   OH275018   2.300   6.362   3.102 -1.0507  0.7093 -0.0716
17868TIP3    H175019   2.292   6.439   3.046 -3.8797  0.5127 -0.0304
17868TIP3    H275020   2.315   6.290   3.042  0.3322  1.1026 -0.2100
17869TIP3   OH275021   2.598   6.231   5.406  0.0073 -0.2993 -0.2162
17869TIP3    H175022   2.677   6.179   5.390  1.3925  1.4369  0.8288
17869TIP3    H275023   2.569   6.258   5.319 -0.0965 -1.8567 -0.6937
17870TIP3   OH275024   3.148   3.224  10.786 -0.1218  0.0894  0.5302
17870TIP3    H175025   3.229   3.215  10.835 -1.1545  1.1674  2.5088
17870TIP3    H275026   3.120   3.134  10.769  1.4430 -0.2790 -0.0857
17871TIP3   OH275027   0.681   4.694  10.830  0.6962 -0.2598  0.1784
17871TIP3    H175028   0.773   4.705  10.853  0.3629  0.2673  1.2861
17871TIP3    H275029   0.681   4.621  10.768  1.7149 -1.1709  1.2142
17872TIP3   OH275030   5.764   2.688  12.512  0.5151  0.1809 -0.0399
17872TIP3    H175031   5.849   2.670  12.472 -0.0047 -0.5038 -0.8411
17872TIP3    H275032   5.710   2.719  12.440 -0.5256 -1.3742  0.0723
17873TIP3   OH275033   0.949   3.799  16.077 -0.2601  0.3827 -0.4880
17873TIP3    H175034   0.988   3.713  16.095  1.0701  1.1487  0.3482
17873TIP3    H275035   0.857   3.780  16.058 -0.4504 -1.0385  1.6710
17874TIP3   OH275036   5.380   5.143  16.664 -0.1929  0.3548 -0.1767
17874TIP3    H175037   5.472   5.119  16.650 -0.3476 -0.8191  0.6741
17874TIP3    H275038   5.349   5.079  16.729 -0.7904  2.5539  1.7780
17875TIP3   OH275039   3.254   2.716  10.577  0.4192 -0.6395  0.0641
17875TIP3    H175040   3.290   2.682  10.659 -2.9005 -1.0567  1.4124
17875TIP3    H275041   3.177   2.661  10.560 -0.4167  1.0988 -1.9622
17876TIP3   OH275042   5.064   1.752  13.614  0.0769  0.1210  0.3227
17876TIP3    H175043   5.013   1.813  13.668  0.1350 -0.4591  1.0409
17876TIP3    H275044   5.155   1.778  13.627  0.1821 -0.7751  1.4702
17877TIP3   OH275045   2.267   5.613  10.591  0.3453 -0.0693  0.2472
17877TIP3    H175046   2.218   5.672  10.534  1.0613  0.0841 -0.2162
17877TIP3    H275047   2.242   5.525  10.563 -0.7344 -0.0009  0.9490
17878TIP3   OH275048   6.106   6.108  13.825 -0.0180 -0.5310  0.1647
17878TIP3    H175049   6.127   6.026  13.870 -0.7722  0.7302  2.9715
17878TIP3    H275050   6.078   6.081  13.738 -0.3160 -3.2830  1.0435
17879TIP3   OH275051   6.655   2.260  11.967 -0.9261 -0.3574  0.2086
17879TIP3    H175052   6.696   2.345  11.981 -0.6573 -0.2321 -1.2212
17879TIP3    H275053   6.666   2.243  11.873 -0.8605 -2.0168  0.4849
17880TIP3   OH275054   5.356   5.106  13.232 -0.3128  0.3910 -0.2802
17880TIP3    H175055   5.284   5.156  13.271  0.3170 -0.0974  1.6034
17880TIP3    H275056   5.397   5.167  13.171 -1.4328  1.1558 -0.2876
17881TIP3   OH275057   3.341   6.490   0.684  0.4517  0.4625  0.0214
17881TIP3    H175058   3.274   6.495   0.617 -0.0352 -1.4302  0.3360
17881TIP3    H275059   3.302   6.533   0.761  0.6930  1.8725 -0.6289
17882TIP3   OH275060   1.916   0.930  12.289  0.2261 -0.0061  0.5419
17882TIP3    H175061   1.923   1.015  12.332  0.6817 -0.2438  0.9315
17882TIP3    H275062   2.006   0.907  12.266  0.0114  0.0277 -0.3575
17883TIP3   OH275063   3.275   3.779   1.874 -0.3283  0.3411 -0.3930
17883TIP3    H175064   3.179   3.776   1.869 -0.3911  1.6124 -0.1822
17883TIP3    H275065   3.299   3.706   1.931 -1.2245  0.5421  0.2422
17884TIP3   OH275066   6.297   1.794  13.648 -0.0691  0.2874  0.1885
17884TIP3    H175067   6.296   1.841  13.565 -3.2664 -2.5332 -1.4879
17884TIP3    H275068   6.207   1.799  13.680 -0.2285 -3.5255  0.5386
17885TIP3   OH275069   4.006   5.845   4.956  0.7675 -0.5703  0.6390
17885TIP3    H175070   4.047   5.772   5.003  2.7308  0.8132  1.1381
17885TIP3    H275071   3.915   5.844   4.985  0.7072 -2.9584  0.4430
17886TIP3   OH275072   4.154   0.312   0.995 -0.1899 -0.3827  0.1788
17886TIP3    H175073   4.225   0.285   1.054 -2.0052  0.8800  3.1053
17886TIP3    H275074   4.107   0.232   0.975  0.1108 -0.7615  0.9646
17887TIP3   OH275075   0.088   1.047  13.541 -0.2331 -0.1095 -0.1778
17887TIP3    H175076   0.091   1.050  13.637 -0.1323  0.2774 -0.1897
17887TIP3    H275077   0.175   1.077  13.514 -1.2844  2.8833 -0.4198
17888TIP3   OH275078   1.965   0.064  15.087  0.5501 -0.2314 -0.1641
17888TIP3    H175079   1.878   0.037  15.118 -0.1408  0.4592 -1.4051
17888TIP3    H275080   2.021  -0.011  15.103 -0.5041 -1.0498 -0.2304
17889TIP3   OH275081   4.215   0.731  12.011  0.2386  0.0517 -0.3586
17889TIP3    H175082   4.164   0.779  11.946 -1.0078 -0.0649  0.5074
17889TIP3    H275083   4.157   0.659  12.038  1.1591 -0.5286  0.0821
17890TIP3   OH275084   2.489   6.751  16.684 -0.1771  0.9245  0.0994
17890TIP3    H175085   2.485   6.713  16.597  0.4506  2.4947 -0.6267
17890TIP3    H275086   2.459   6.681  16.742 -1.9681  0.3263 -1.5025
17891TIP3   OH275087   3.753   1.819  10.639 -0.1018  0.1269  0.2251
17891TIP3    H175088   3.687   1.750  10.635  0.8887 -0.8491  0.7060
17891TIP3    H275089   3.835   1.775  10.619  0.4362  1.2960 -0.1429
17892TIP3   OH275090   3.061   0.250   0.013  0.2234 -0.4658  0.7554
17892TIP3    H175091   3.007   0.262   0.092 -0.4877  1.2445  0.0214
17892TIP3    H275092   3.024   0.310  -0.051  2.3835 -0.0185 -0.0978
17893TIP3   OH275093   5.301   3.487  16.797  0.7658 -0.1127 -0.3243
17893TIP3    H175094   5.353   3.528  16.866 -0.8135  0.6035  0.4761
17893TIP3    H275095   5.249   3.558  16.760  0.0172 -0.8839 -0.7835
17894TIP3   OH275096   2.408   3.284   2.212 -0.1743 -0.5251  0.2181
17894TIP3    H175097   2.470   3.305   2.282 -0.6707  1.1383  0.1897
17894TIP3    H275098   2.358   3.209   2.245  1.2785 -1.3320  0.5867
17895TIP3   OH275099   6.207   2.756  16.044 -0.0389  0.0424 -0.2586
17895TIP3    H175100   6.142   2.686  16.038 -0.7848  0.8427 -1.7126
17895TIP3    H275101   6.156   2.836  16.048  0.8501  0.6212 -0.3624
17896TIP3   OH275102   5.910   0.708   4.710 -0.4680  0.3906  0.1345
17896TIP3    H175103   5.981   0.707   4.646  0.1336  1.5940  0.7727
17896TIP3    H275104   5.952   0.683   4.793 -0.9526  0.2704  0.3467
17897TIP3   OH275105   3.214   3.676  14.089 -0.0259 -0.2072 -0.2005
17897TIP3    H175106   3.304   3.707  14.104  0.4601 -1.8059  0.3364
17897TIP3    H275107   3.167   3.753  14.058  1.3155  0.8809  0.3813
17898TIP3   OH275108   2.174   0.703   1.506  0.1950 -0.1765 -0.5234
17898TIP3    H175109   2.114   0.708   1.580  0.0832  2.0874 -0.7232
17898TIP3    H275110   2.243   0.643   1.535 -0.1194  0.2720  1.2284
17899TIP3   OH275111   1.326   1.748  16.876  0.3656 -0.0052  0.2172
17899TIP3    H175112   1.382   1.822  16.853  0.9423 -0.3431  0.5267
17899TIP3    H275113   1.350   1.679  16.813 -0.0254  0.0014  0.0618
17900TIP3   OH275114   1.795   1.207   5.001  0.6569  0.2909  0.1194
17900TIP3    H175115   1.801   1.228   5.094 -0.3424  0.7499  0.0831
17900TIP3    H275116   1.706   1.231   4.976  0.1110 -2.0878 -0.3976
17901TIP3   OH275117   3.626   2.576   4.897 -0.6120 -1.0303 -0.3886
17901TIP3    H175118   3.692   2.527   4.946 -1.0203 -1.9057 -0.7017
17901TIP3    H275119   3.564   2.605   4.964 -0.3801 -0.9437 -0.2068
17902TIP3   OH275120   5.637   5.045  16.638  0.2383  0.0154  0.3131
17902TIP3    H175121   5.669   5.031  16.728  0.6524  0.5992  0.2606
17902TIP3    H275122   5.675   4.972  16.588  0.1648 -0.2026  0.5795
17903TIP3   OH275123   3.064   0.303   3.560 -0.4179 -0.3326  0.0977
17903TIP3    H175124   2.991   0.246   3.537 -0.1233 -1.1021  1.0335
17903TIP3    H275125   3.125   0.294   3.487 -0.3256 -1.2986  0.2876
17904TIP3   OH275126   3.664   4.729  13.138 -0.2475 -0.1043 -0.5153
17904TIP3    H175127   3.656   4.812  13.093  1.5282 -0.1534 -0.9714
17904TIP3    H275128   3.721   4.747  13.212  0.9990 -1.1202 -1.2057
17905TIP3   OH275129   0.997   1.309   2.367 -0.4121 -0.4918 -0.0243
17905TIP3    H175130   1.008   1.214   2.378  1.2836 -0.3366 -0.2181
17905TIP3    H275131   0.912   1.328   2.407 -1.5683 -2.3503 -1.5493
17906TIP3   OH275132   1.505   5.661  16.220  0.0663 -0.1528 -0.3083
17906TIP3    H175133   1.558   5.627  16.148 -0.3691 -1.6416  0.0486
17906TIP3    H275134   1.532   5.609  16.296 -1.5884 -0.6517 -0.0350
17907TIP3   OH275135   5.123   6.160  16.303 -0.0933  0.5293 -0.2302
17907TIP3    H175136   5.199   6.103  16.292 -1.3056 -1.1795  0.0896
17907TIP3    H275137   5.149   6.243  16.262  1.2094 -0.6745 -1.9340
17908TIP3   OH275138   6.711   0.185  15.231 -0.4207 -0.4625  0.7309
17908TIP3    H175139   6.729   0.277  15.245 -0.2676 -0.4453  0.4317
17908TIP3    H275140   6.796   0.142  15.241 -0.4039 -0.5119  0.3899
17909TIP3   OH275141   0.428   1.541   0.916  0.7176 -0.7330  0.4468
17909TIP3    H175142   0.481   1.531   0.837 -0.5367  0.6228 -0.6011
17909TIP3    H275143   0.486   1.587   0.977  0.9195  0.3168 -0.5141
17910TIP3   OH275144   4.406   0.744  14.899 -0.0296 -0.2217 -0.1293
17910TIP3    H175145   4.457   0.690  14.839 -0.0502 -1.5360  1.0261
17910TIP3    H275146   4.317   0.710  14.893 -0.1949  0.1821  0.0278
17911TIP3   OH275147   2.101   6.351   3.770  0.1223  0.3493  0.4527
17911TIP3    H175148   2.133   6.330   3.682 -1.4731  1.0033 -0.2887
17911TIP3    H275149   2.048   6.429   3.758  1.5148  1.6214  2.3330
17912TIP3   OH275150   4.923   5.572  16.443  0.2719  0.0050 -0.2525
17912TIP3    H175151   4.925   5.506  16.512 -0.7440 -0.6218 -0.8178
17912TIP3    H275152   4.879   5.647  16.483  0.7168  0.0583  0.1395
17913TIP3   OH275153   4.571   1.487  17.232 -0.3784 -0.0219 -0.9190
17913TIP3    H175154   4.639   1.425  17.205  0.8382  1.2845 -0.9192
17913TIP3    H275155   4.585   1.563  17.176 -1.5813  0.4189 -0.6224
17914TIP3   OH275156   5.970   4.194  15.643 -0.2686  0.9047  0.1020
17914TIP3    H175157   5.995   4.168  15.732  1.3873  1.6141 -0.1496
17914TIP3    H275158   5.913   4.269  15.655  1.3504  2.0935  0.5135
17915TIP3   OH275159   6.490   2.516   1.832 -0.2878  0.1280  0.1493
17915TIP3    H175160   6.562   2.575   1.855 -0.7936 -0.6702  4.3029
17915TIP3    H275161   6.531   2.430   1.824 -0.5708 -0.1610  1.5611
17916TIP3   OH275162   0.924   2.700  11.759 -0.1414 -0.0253 -0.1623
17916TIP3    H175163   1.015   2.698  11.730 -0.6501 -0.3870 -1.8173
17916TIP3    H275164   0.909   2.614  11.797 -0.0119 -0.2528 -0.6181
17917TIP3   OH275165   6.087   1.985  14.586 -0.4794 -0.1166  0.1891
17917TIP3    H175166   5.998   1.996  14.552  0.3361  0.5982 -1.7466
17917TIP3    H275167   6.090   1.893  14.614 -1.6396 -0.3208 -0.3179
17918TIP3   OH275168   6.485   2.431   0.713 -0.3722 -0.3534  0.2132
17918TIP3    H175169   6.485   2.522   0.744 -0.5050 -0.5080  0.6723
17918TIP3    H275170   6.472   2.438   0.619 -1.3110  0.0627  0.3691
17919TIP3   OH275171   4.793   5.372   3.323  0.2217 -0.2299  0.0999
17919TIP3    H175172   4.833   5.459   3.321  0.2404 -0.1449  2.6000
17919TIP3    H275173   4.704   5.386   3.292  0.1955  0.7106  0.5697
17920TIP3   OH275174   0.302   5.129  13.450  0.0411  0.0916  0.3809
17920TIP3    H175175   0.360   5.128  13.526  0.8487 -1.0754 -0.2268
17920TIP3    H275176   0.336   5.198  13.393 -0.2199  0.5771  0.8099
17921TIP3   OH275177   0.540   2.473   1.066  0.1007 -0.2562  0.3406
17921TIP3    H175178   0.608   2.449   1.129 -0.4828 -0.9273  0.7288
17921TIP3    H275179   0.470   2.410   1.082 -1.1601  1.2433  0.8354
17922TIP3   OH275180   1.592   5.207  12.075 -0.1606  0.0225 -0.1505
17922TIP3    H175181   1.587   5.300  12.050  1.3875  0.4563  1.0965
17922TIP3    H275182   1.670   5.175  12.029 -0.1197 -0.4140  0.2305
17923TIP3   OH275183   2.476   5.273  14.883 -0.4896  0.2813 -0.0533
17923TIP3    H175184   2.468   5.331  14.807 -2.1540  0.7253  0.4356
17923TIP3    H275185   2.566   5.239  14.878 -0.2035  1.2020 -1.5614
17924TIP3   OH275186   3.033   5.654   0.655 -0.5386 -0.8784 -0.2226
17924TIP3    H175187   3.086   5.706   0.715  1.7259  0.9331 -3.6098
17924TIP3    H275188   3.061   5.563   0.669  0.0332 -0.4645  1.3496
17925TIP3   OH275189   4.352   0.738  13.003 -0.2955  0.2355  0.0188
17925TIP3    H175190   4.443   0.748  12.976 -0.2628  0.1140  0.0820
17925TIP3    H275191   4.301   0.753  12.924 -0.1747 -0.8127 -0.2733
17926TIP3   OH275192   4.103   5.227  14.122 -0.2162  0.1801  0.1033
17926TIP3    H175193   4.089   5.132  14.123 -0.4490  0.2257  1.5737
17926TIP3    H275194   4.037   5.259  14.060  2.7814 -1.0271 -3.9500
17927TIP3   OH275195   5.405   0.845   3.636  0.0092  0.3700 -0.0351
17927TIP3    H175196   5.431   0.760   3.600  0.1782  0.2232  0.4313
17927TIP3    H275197   5.310   0.849   3.621  0.5179  1.6609 -3.3115
17928TIP3   OH275198   0.559   5.695  11.888  0.1720 -0.3138  0.1048
17928TIP3    H175199   0.617   5.658  11.954 -1.7619 -1.0258  1.4683
17928TIP3    H275200   0.571   5.639  11.811  1.3858 -0.3675  0.3366
17929TIP3   OH275201   5.700   0.391  13.220  0.0569 -0.4697  0.0475
17929TIP3    H175202   5.609   0.361  13.212  0.3740 -1.2308 -0.8267
17929TIP3    H275203   5.693   0.485  13.232 -0.9006 -0.6755  1.1898
17930TIP3   OH275204   2.931   1.486  16.022 -0.1943 -0.2116  0.7570
17930TIP3    H175205   2.893   1.553  16.079 -1.4116 -1.2933  1.2382
17930TIP3    H275206   2.873   1.411  16.031  2.4756 -2.1997  2.1646
17931TIP3   OH275207   4.567   3.618   5.505 -0.4309  1.0642  0.2050
17931TIP3    H175208   4.622   3.559   5.556 -0.0773 -1.8228 -3.2515
17931TIP3    H275209   4.479   3.604   5.539  0.0847  0.8250  1.4591
17932TIP3   OH275210   2.166   4.917   3.526 -0.4764 -0.5910 -0.7023
17932TIP3    H175211   2.111   4.877   3.594 -0.2572  0.3830  0.0532
17932TIP3    H275212   2.255   4.889   3.548 -0.5328 -1.2651 -1.2954
17933TIP3   OH275213   2.315   4.671  11.140 -0.0348 -0.2595  0.2600
17933TIP3    H175214   2.323   4.667  11.044  1.3800  1.6487  0.2681
17933TIP3    H275215   2.399   4.640  11.172  0.1586  0.8209  0.8307
17934TIP3   OH275216   4.154   5.313  15.357  0.3316 -0.5100  0.1363
17934TIP3    H175217   4.088   5.245  15.347  0.9126 -1.1317  0.4811
17934TIP3    H275218   4.107   5.394  15.337 -0.6358 -0.9021  0.7486
17935TIP3   OH275219   6.502   3.779  14.379 -0.0607 -0.0467 -0.6156
17935TIP3    H175220   6.590   3.814  14.395  0.9140 -1.0638 -3.4377
17935TIP3    H275221   6.513   3.684  14.383 -1.2388 -0.1746 -0.1509
17936TIP3   OH275222   6.777   3.043   2.116  0.1465  0.0501 -0.3119
17936TIP3    H175223   6.792   3.062   2.023 -1.3779 -0.7962 -0.7634
17936TIP3    H275224   6.723   3.116   2.147 -0.6841 -0.4597 -0.5207
17937TIP3   OH275225   5.278   6.334  12.593 -0.1146 -0.2344 -0.5110
17937TIP3    H175226   5.354   6.382  12.560  0.4511  0.2095  1.4079
17937TIP3    H275227   5.213   6.342  12.524 -0.1960  3.6651 -0.0419
17938TIP3   OH275228   6.694   2.555   5.718 -0.2287 -0.5415  0.3567
17938TIP3    H175229   6.714   2.472   5.674 -0.3110 -0.6954  0.6092
17938TIP3    H275230   6.625   2.594   5.664  0.6410 -0.0745 -0.4398
17939TIP3   OH275231   3.498   2.160   2.874 -0.3252 -0.6141  0.3054
17939TIP3    H175232   3.547   2.220   2.931  0.1608  1.3094 -2.0593
17939TIP3    H275233   3.408   2.165   2.906  0.0858 -0.1876  1.4146
17940TIP3   OH275234   5.688   0.787  14.183  0.4270  0.4477  0.3493
17940TIP3    H175235   5.672   0.703  14.226 -0.2826  0.3702 -0.0664
17940TIP3    H275236   5.747   0.833  14.243  1.8524 -0.8451 -0.0320
17941TIP3   OH275237   5.144   0.154  14.319  0.0896  0.1022  0.2790
17941TIP3    H175238   5.210   0.222  14.330 -0.0754  0.1554  0.9372
17941TIP3    H275239   5.072   0.181  14.376  0.1203 -0.7467  0.7160
17942TIP3   OH275240   1.239   5.145   3.284  0.2099 -0.2014 -0.4689
17942TIP3    H175241   1.303   5.095   3.233  1.1659 -0.1401  0.6532
17942TIP3    H275242   1.292   5.192   3.349 -0.9130  0.3938  0.0233
17943TIP3   OH275243   0.098   0.954   1.318 -0.0706  0.1835  0.2319
17943TIP3    H175244   0.181   0.919   1.350 -1.5648 -1.8442  2.0163
17943TIP3    H275245   0.094   0.927   1.227  0.6118 -0.8593  0.5064
17944TIP3   OH275246   3.172   3.943   6.835 -0.0642  0.1363  0.0430
17944TIP3    H175247   3.132   3.893   6.764  1.9051 -0.8030 -0.4571
17944TIP3    H275248   3.118   3.925   6.911 -0.4503 -1.2615 -0.5561
17945TIP3   OH275249   3.401   5.596  11.173 -0.5249 -0.3287 -0.1350
17945TIP3    H175250   3.412   5.614  11.079  0.1787  0.3225  0.0591
17945TIP3    H275251   3.468   5.650  11.215 -2.3381  1.2059  0.9009
17946TIP3   OH275252   2.130   5.610   4.170 -0.3467  0.1420  0.1011
17946TIP3    H175253   2.207   5.620   4.113 -0.6909 -0.1694 -0.4235
17946TIP3    H275254   2.107   5.518   4.163 -0.2626  0.0605  0.9229
17947TIP3   OH275255   1.746   4.468   5.832 -0.5991  0.6151  0.4260
17947TIP3    H175256   1.743   4.430   5.920  2.1346 -0.5418  0.0614
17947TIP3    H275257   1.823   4.525   5.834  0.1667 -0.3088 -1.5358
17948TIP3   OH275258   2.845   2.911   4.205 -0.3732 -0.3295  0.4232
17948TIP3    H175259   2.888   2.924   4.289  0.9103 -1.4500 -0.0313
17948TIP3    H275260   2.836   2.816   4.196 -1.2509 -0.1876 -0.3318
17949TIP3   OH275261   3.277   3.918   3.963  0.3605 -0.3908  0.5772
17949TIP3    H175262   3.293   3.834   3.921  0.3739 -0.2369  0.2776
17949TIP3    H275263   3.184   3.918   3.983  0.7483 -1.4170  2.5895
17950TIP3   OH275264   4.538   0.547   2.836 -0.3491 -0.1935  0.0850
17950TIP3    H175265   4.598   0.618   2.815 -0.6073  0.0480  0.1536
17950TIP3    H275266   4.586   0.467   2.816  0.5815 -0.0508  1.6393
17951TIP3   OH275267   0.863   0.948  17.186  0.6997 -0.0997  0.0118
17951TIP3    H175268   0.806   0.912  17.119 -0.2397  0.7024  0.3545
17951TIP3    H275269   0.869   0.880  17.253 -0.6140  0.1445  0.4010
17952TIP3   OH275270   3.301   4.237   2.555  0.5477  0.2057  0.0582
17952TIP3    H175271   3.243   4.215   2.481  0.8355  0.6568 -0.3076
17952TIP3    H275272   3.269   4.184   2.627 -0.2645  0.3761 -0.1686
17953TIP3   OH275273   3.925   4.950   4.617 -0.3150 -0.4291  0.5320
17953TIP3    H175274   4.016   4.937   4.643 -0.2141 -1.0154 -0.1196
17953TIP3    H275275   3.927   4.950   4.521 -0.8671  0.4863  0.5109
17954TIP3   OH275276   5.576   4.909  12.686  0.0467  0.1351 -0.0996
17954TIP3    H175277   5.553   4.855  12.610  1.0306  2.0464 -1.7920
17954TIP3    H275278   5.504   4.972  12.693 -0.5192 -0.6332  1.1637
17955TIP3   OH275279   5.770   2.853   2.053  0.0726  0.1390  0.1284
17955TIP3    H175280   5.799   2.901   1.977  0.7466 -0.2750  0.1227
17955TIP3    H275281   5.848   2.808   2.085  0.1921  1.7018  2.1046
17956TIP3   OH275282   0.512   1.861  16.032  0.3654 -0.8223  0.4739
17956TIP3    H175283   0.597   1.840  15.994  0.8287 -1.0411  1.6019
17956TIP3    H275284   0.496   1.952  16.007  0.0482 -1.3641 -1.3392
17957TIP3   OH275285   3.177   6.775   2.297 -0.8178 -0.8877  0.4825
17957TIP3    H175286   3.152   6.851   2.244 -0.8564 -0.6070  0.9037
17957TIP3    H275287   3.272   6.778   2.300 -0.7874 -1.2139 -0.0244
17958TIP3   OH275288   0.638   6.132  11.648 -0.3879  0.3787  0.1495
17958TIP3    H175289   0.608   6.059  11.595 -1.0864 -1.9763  3.6505
17958TIP3    H275290   0.560   6.186  11.660 -0.6886 -0.1170  0.4323
17959TIP3   OH275291   1.507   3.436   3.091  0.5189 -0.1794  0.4399
17959TIP3    H175292   1.581   3.386   3.055  1.4716  0.2250  1.8241
17959TIP3    H275293   1.541   3.524   3.103  0.6146 -0.5991  3.5139
17960TIP3   OH275294   3.967   5.511  14.071 -0.6925  0.5549  0.9537
17960TIP3    H175295   3.918   5.559  14.005  1.2375  3.1802  1.3315
17960TIP3    H275296   4.017   5.579  14.117  0.5573 -1.6098  2.8858
17961TIP3   OH275297   3.145   0.253   1.406  0.1608  0.6021 -0.6129
17961TIP3    H175298   3.138   0.268   1.312 -0.5624  1.7309 -0.3876
17961TIP3    H275299   3.233   0.218   1.419 -0.0643 -0.4352 -1.8189
17962TIP3   OH275300   5.925   1.196   0.130  0.3776 -0.9623  0.1442
17962TIP3    H175301   5.979   1.255   0.077 -0.1974 -0.6569 -0.1035
17962TIP3    H275302   5.886   1.136   0.067 -2.9363  1.4396 -0.2217
17963TIP3   OH275303   2.995   2.649   4.663  0.3788 -0.3769  0.4358
17963TIP3    H175304   2.937   2.723   4.684  0.4894  0.2304 -1.3406
17963TIP3    H275305   2.992   2.594   4.741 -1.2786  0.4999  1.0255
17964TIP3   OH275306   3.886   3.190   6.123  0.0482  0.0452  0.3037
17964TIP3    H175307   3.861   3.116   6.177 -0.6645 -0.2551 -0.4306
17964TIP3    H275308   3.804   3.220   6.084  0.4883  0.5397 -0.2513
17965TIP3   OH275309   3.283   2.457   1.584  0.3044  0.2983 -0.1765
17965TIP3    H175310   3.375   2.445   1.561  0.9109 -0.7193  2.6392
17965TIP3    H275311   3.270   2.552   1.582  1.6713  0.4990  0.3921
17966TIP3   OH275312   1.886   5.694  13.695  0.2019 -0.0460 -0.2367
17966TIP3    H175313   1.869   5.759  13.763  1.6477  1.1245 -0.9821
17966TIP3    H275314   1.956   5.640  13.732 -0.6283 -0.8786  0.1553
17967TIP3   OH275315   0.592   0.504  13.162 -0.0150  0.0435  0.4291
17967TIP3    H175316   0.615   0.499  13.070 -1.0612  2.4937 -0.0225
17967TIP3    H275317   0.532   0.431  13.177 -0.3764  0.0402 -1.0104
17968TIP3   OH275318   3.558   1.919  12.682 -0.0660 -0.0723 -0.2664
17968TIP3    H175319   3.544   1.960  12.596  1.2365 -0.0013 -0.4445
17968TIP3    H275320   3.533   1.987  12.744  0.3844  0.3758 -0.5737
17969TIP3   OH275321   6.126   0.680   5.456 -0.2531 -0.0141 -0.3315
17969TIP3    H175322   6.061   0.614   5.478 -0.7877  0.1172 -1.4868
17969TIP3    H275323   6.121   0.744   5.527 -2.2096  0.6097 -1.0096
17970TIP3   OH275324   0.799   1.749  16.574 -0.0213 -0.0369 -0.6370
17970TIP3    H175325   0.790   1.694  16.496  0.4378 -0.8567 -0.1252
17970TIP3    H275326   0.884   1.724  16.611 -0.2416  0.3382  0.1249
17971TIP3   OH275327   0.107   2.906   0.516 -0.2337  0.4003  0.0521
17971TIP3    H175328   0.102   2.952   0.600  0.7199 -0.9748  0.8913
17971TIP3    H275329   0.028   2.852   0.512  0.5086 -0.7788  0.8463
17972TIP3   OH275330   5.912   0.342  13.369 -0.3335  0.3386 -0.3646
17972TIP3    H175331   5.837   0.368  13.314  0.2577 -0.9713 -1.8296
17972TIP3    H275332   5.980   0.405  13.347 -0.9454  1.4680  0.8917
17973TIP3   OH275333   3.421   0.708   1.430  0.3853 -0.3298 -0.0588
17973TIP3    H175334   3.343   0.762   1.440  0.2964 -0.5733  0.5810
17973TIP3    H275335   3.393   0.636   1.373  0.1514 -0.4032  0.1510
17974TIP3   OH275336   1.786   2.361   5.240 -0.2318  0.1879 -0.0560
17974TIP3    H175337   1.765   2.360   5.147  0.5828  0.8682 -0.2636
17974TIP3    H275338   1.710   2.400   5.282  0.1642  1.6350 -0.6606
17975TIP3   OH275339   2.364   4.283  11.310  0.2997 -0.5187  0.0719
17975TIP3    H175340   2.312   4.294  11.389 -0.6066  0.2783 -0.6191
17975TIP3    H275341   2.431   4.351  11.316  0.3300 -0.5623  0.2292
17976TIP3   OH275342   3.317   4.716  14.066 -0.1811  0.5403  0.0011
17976TIP3    H175343   3.335   4.786  14.004 -3.1880  1.3579 -0.0277
17976TIP3    H275344   3.265   4.653  14.017  1.6629 -1.2902  0.3066
17977TIP3   OH275345   1.514   5.921  12.705  0.3463  0.3020  0.6324
17977TIP3    H175346   1.475   5.880  12.783  0.0088 -0.5091  0.0380
17977TIP3    H275347   1.605   5.893  12.706 -0.0452 -0.9906 -0.1348
17978TIP3   OH275348   1.596   1.521  11.152 -0.1284 -0.9691  0.2760
17978TIP3    H175349   1.552   1.534  11.236  1.3667 -0.2189  0.9779
17978TIP3    H275350   1.613   1.610  11.120  2.5543 -1.1965  0.9529
17979TIP3   OH275351   4.482   5.817   3.019  0.6223  0.7262 -0.4998
17979TIP3    H175352   4.408   5.812   3.080  0.8092  0.9447 -0.2548
17979TIP3    H275353   4.442   5.824   2.933  0.3556  2.0233 -0.2794
17980TIP3   OH275354   0.147   4.377  16.022 -0.3742  0.3683  0.3677
17980TIP3    H175355   0.063   4.378  15.977  0.6800 -1.1187 -1.7219
17980TIP3    H275356   0.144   4.296  16.075  1.0709 -1.5984 -2.4464
17981TIP3   OH275357   1.779   1.686  12.836 -0.0081 -0.0410  0.2022
17981TIP3    H175358   1.765   1.736  12.756  1.9706  1.4112  0.7134
17981TIP3    H275359   1.713   1.719  12.897  1.4272  2.1763  0.6136
17982TIP3   OH275360   5.657   5.544   2.311 -0.3361 -0.0905 -0.2512
17982TIP3    H175361   5.751   5.555   2.328 -0.7247  0.0908  1.9806
17982TIP3    H275362   5.617   5.624   2.346 -1.4846 -0.9322  0.3786
17983TIP3   OH275363   4.866   5.210  12.364  0.2529  0.2846 -0.4240
17983TIP3    H175364   4.903   5.191  12.277  0.8007  1.1841 -0.4013
17983TIP3    H275365   4.836   5.125  12.396 -1.4157  0.1710 -2.1504
17984TIP3   OH275366   5.960   4.666   2.275  0.2051  0.3135  0.4329
17984TIP3    H175367   5.945   4.692   2.185 -1.8273 -0.2081  0.5951
17984TIP3    H275368   5.979   4.572   2.270 -2.1209 -0.2053  0.7167
17985TIP3   OH275369   0.753   4.007   5.075  0.2424 -0.7491  0.3047
17985TIP3    H175370   0.724   3.993   4.985  0.7472 -0.9934  0.1770
17985TIP3    H275371   0.682   3.972   5.129 -0.5054  0.2826  0.0104
17986TIP3   OH275372   1.761   4.034   1.162  0.0902 -0.3857 -0.7452
17986TIP3    H175373   1.789   4.094   1.093  2.9145 -0.8630 -0.0827
17986TIP3    H275374   1.731   3.956   1.116 -2.0360  0.8868 -1.5538
17987TIP3   OH275375   5.677   0.240   1.731  0.3520 -0.2910  0.1886
17987TIP3    H175376   5.721   0.306   1.678 -0.6996 -0.5080 -0.9677
17987TIP3    H275377   5.603   0.287   1.770  0.9663 -0.1989  1.2568
17988TIP3   OH275378   6.374   2.072  14.941  0.7454 -0.0247 -0.1610
17988TIP3    H175379   6.406   2.030  15.021  0.2966 -0.6054 -0.2825
17988TIP3    H275380   6.280   2.082  14.954  0.4599 -1.2933 -1.1330
17989TIP3   OH275381   3.067   5.575   5.667 -0.1505 -0.1473  0.2366
17989TIP3    H175382   2.990   5.620   5.701 -0.8043 -0.5109 -0.7559
17989TIP3    H275383   3.107   5.637   5.606 -0.4208 -0.4688 -0.2753
17990TIP3   OH275384   1.437   5.272  13.172 -0.1558 -0.1704 -0.0293
17990TIP3    H175385   1.443   5.216  13.094  1.2700 -1.9756  1.3401
17990TIP3    H275386   1.366   5.233  13.223 -2.9778  2.6196 -1.6041
17991TIP3   OH275387   0.815   6.378   1.055 -0.2190  0.1572  0.0599
17991TIP3    H175388   0.896   6.373   1.004  0.8402  0.1968  1.6965
17991TIP3    H275389   0.837   6.433   1.130 -1.3777 -0.9009  1.2183
17992TIP3   OH275390   6.564   1.754  13.982  0.1106  0.7626  0.3441
17992TIP3    H175391   6.476   1.718  13.975  0.3667  0.5928 -2.4487
17992TIP3    H275392   6.604   1.704  14.054 -1.4187 -0.5386  0.3214
17993TIP3   OH275393   6.190   5.388   5.492 -0.1125  0.4031 -0.4773
17993TIP3    H175394   6.161   5.298   5.476  0.8710  0.0033 -0.0794
17993TIP3    H275395   6.231   5.385   5.579 -2.6660  1.8712  0.8334
17994TIP3   OH275396   5.198   3.301   0.575 -0.5171  0.4827 -0.3548
17994TIP3    H175397   5.209   3.386   0.531 -0.1581  0.2213 -0.7685
17994TIP3    H275398   5.242   3.238   0.518 -2.5405 -0.3051 -1.1266
17995TIP3   OH275399   6.390   6.378  16.589  0.6119  0.1188 -0.5403
17995TIP3    H175400   6.342   6.429  16.653 -0.9955 -0.5306 -1.2071
17995TIP3    H275401   6.444   6.319  16.642 -1.1762 -0.8555  0.2396
17996TIP3   OH275402   3.099   3.324   4.104  0.2275  0.0245 -0.5723
17996TIP3    H175403   3.105   3.367   4.019  0.4050  0.3964 -0.3715
17996TIP3    H275404   3.020   3.359   4.144 -0.5648 -1.1120 -1.1164
17997TIP3   OH275405   0.201   1.620  16.234  0.0517  0.0517 -0.6963
17997TIP3    H175406   0.186   1.526  16.241 -0.6449  0.1771 -0.5405
17997TIP3    H275407   0.295   1.629  16.248 -0.3389 -0.3077  2.5634
17998TIP3   OH275408   4.762   1.541  12.142  0.5596  0.5694 -0.3564
17998TIP3    H175409   4.746   1.502  12.228  2.2096 -1.7745 -1.0349
17998TIP3    H275410   4.847   1.584  12.150  1.4132 -0.9086 -1.1720
17999TIP3   OH275411   1.085   3.125  13.022 -0.5133  0.0464 -0.5863
17999TIP3    H175412   1.169   3.155  13.057 -0.3505 -1.3368  0.2284
17999TIP3    H275413   1.021   3.188  13.055 -0.3538 -1.1448  2.1285
18000TIP3   OH275414   4.211   2.180  13.157 -0.4170 -0.3336  0.1061
18000TIP3    H175415   4.181   2.262  13.118 -2.2072 -1.1647 -0.3251
18000TIP3    H275416   4.188   2.113  13.093  1.3232 -1.1521  0.3133
18001TIP3   OH275417   5.963   5.532   5.217 -0.3028  0.8781 -0.2353
18001TIP3    H175418   6.044   5.583   5.211  0.8714 -1.0996 -1.5308
18001TIP3    H275419   5.949   5.520   5.311  0.6519  1.5957  0.0089
18002TIP3   OH275420   1.442   0.078  14.539  0.1183  0.1013 -0.6729
18002TIP3    H175421   1.508   0.146  14.555  1.1903 -0.6763 -1.7111
18002TIP3    H275422   1.443   0.066  14.444 -1.2362 -0.2146 -0.6511
18003TIP3   OH275423   3.946   5.145  13.278 -0.4309 -0.1191  0.1429
18003TIP3    H175424   3.910   5.230  13.304 -0.4868  0.4704 -1.7250
18003TIP3    H275425   4.040   5.161  13.271 -0.4391 -0.2115 -0.1835
18004TIP3   OH275426   6.667   5.829   6.299  0.3565  0.2319  0.6197
18004TIP3    H175427   6.605   5.757   6.313  1.4394 -0.4649  1.9464
18004TIP3    H275428   6.752   5.793   6.325  0.9736  1.8758  0.9247
18005TIP3   OH275429   0.648   4.328   1.863  0.2797 -0.4323  0.3046
18005TIP3    H175430   0.717   4.325   1.796 -0.8126 -0.8355 -0.8230
18005TIP3    H275431   0.607   4.242   1.859  0.3900 -0.5581  1.7054
18006TIP3   OH275432   3.915   1.175   1.743  0.2361 -0.2104  0.5701
18006TIP3    H175433   3.974   1.131   1.683  0.8262  1.0888  0.1838
18006TIP3    H275434   3.972   1.211   1.811 -0.2114  0.1950  0.7347
18007TIP3   OH275435   2.810   5.063  11.430 -0.0280 -0.1931  0.5105
18007TIP3    H175436   2.727   5.042  11.386  0.6853  1.5342 -1.7234
18007TIP3    H275437   2.876   5.053  11.362  1.3608  0.5381  1.7350
18008TIP3   OH275438   4.596   3.462  16.611  1.0413  0.3153 -0.0589
18008TIP3    H175439   4.626   3.466  16.702 -0.3799  1.5683  0.3723
18008TIP3    H275440   4.589   3.554  16.585  0.3877 -0.0248 -1.0814
18009TIP3   OH275441   6.569   6.651   0.335 -0.3708  0.0297  0.0490
18009TIP3    H175442   6.571   6.734   0.287  2.0168  1.0036  1.7488
18009TIP3    H275443   6.624   6.592   0.284 -0.7750 -0.0243 -0.3229
18010TIP3   OH275444   4.448   4.184   0.271  0.4461  0.5326 -0.2588
18010TIP3    H175445   4.438   4.095   0.306  0.3536  0.2681 -0.9398
18010TIP3    H275446   4.543   4.197   0.269  0.4323  0.8194  0.7436
18011TIP3   OH275447   2.483   0.685   0.197  0.1081  0.2061  0.0096
18011TIP3    H175448   2.411   0.628   0.169  0.4352  0.0160 -0.4633
18011TIP3    H275449   2.562   0.634   0.179  0.3463  0.2744  0.8573
18012TIP3   OH275450   4.310   5.178  12.400 -0.2162 -0.1700  0.3611
18012TIP3    H175451   4.262   5.200  12.480  0.7316 -0.1863  0.9373
18012TIP3    H275452   4.374   5.248  12.390  1.5647 -1.6544  1.1747
18013TIP3   OH275453   6.011   0.502   0.200 -0.8630  0.3081 -0.5020
18013TIP3    H175454   5.978   0.413   0.191 -2.6705  0.9358 -0.2620
18013TIP3    H275455   6.078   0.510   0.131  0.0537 -1.5368  0.1478
18014TIP3   OH275456   3.786   3.063   5.212  0.0048  0.1177 -0.0019
18014TIP3    H175457   3.851   3.133   5.214  0.0814  0.0687 -0.6973
18014TIP3    H275458   3.720   3.093   5.151 -0.0034 -0.3810 -0.2394
18015TIP3   OH275459   6.482   5.634   0.588  0.2772  0.1767 -0.0691
18015TIP3    H175460   6.474   5.573   0.515 -0.4592  0.3534 -0.1340
18015TIP3    H275461   6.395   5.637   0.627 -0.0899  2.3283 -0.9944
18016TIP3   OH275462   5.717   5.628   2.691 -0.2993  0.2760  0.2890
18016TIP3    H175463   5.803   5.615   2.651 -0.0140  0.2436  0.9018
18016TIP3    H275464   5.706   5.723   2.693  0.0420  0.3087  0.8641
18017TIP3   OH275465   3.936   1.306   6.069  0.5391 -0.4390  0.1427
18017TIP3    H175466   3.923   1.337   6.159 -2.0959 -1.9823  0.3317
18017TIP3    H275467   3.990   1.228   6.079  0.0908 -0.7161  0.3926
18018TIP3   OH275468   4.495   1.948   0.811  0.8333 -0.0224 -0.7108
18018TIP3    H175469   4.422   1.953   0.873  1.1831  0.6799 -0.3514
18018TIP3    H275470   4.492   2.031   0.764  1.5688  0.1240 -0.5030
18019TIP3   OH275471   5.564   6.764   0.411 -0.0736  0.3691 -0.1418
18019TIP3    H175472   5.638   6.801   0.363  0.1278  0.6880  0.4127
18019TIP3    H275473   5.586   6.778   0.503 -1.5118  1.8340  0.0031
18020TIP3   OH275474   0.898   6.506   1.632  0.5707  0.3366  0.3691
18020TIP3    H175475   0.806   6.479   1.632  0.7301 -0.3414  2.6104
18020TIP3    H275476   0.897   6.594   1.596 -1.0936  0.6915  1.2252
18021TIP3   OH275477   6.670   3.191   3.909 -0.1051 -0.6710  0.2448
18021TIP3    H175478   6.708   3.124   3.965  0.9766  1.5220  2.1860
18021TIP3    H275479   6.586   3.212   3.950  0.1669  0.1240  0.3967
18022TIP3   OH275480   5.216   4.296  11.828  0.1863 -0.5157 -0.2677
18022TIP3    H175481   5.128   4.263  11.845 -0.0652 -0.1314 -0.8001
18022TIP3    H275482   5.202   4.383  11.791  0.8448  0.1994  1.1374
18023TIP3   OH275483   5.215   5.709   3.092 -0.7927 -0.6215  1.0223
18023TIP3    H175484   5.141   5.724   3.033  1.8870 -0.6950 -2.5319
18023TIP3    H275485   5.218   5.614   3.104 -1.7470 -0.5560  1.9097
18024TIP3   OH275486   4.277   4.126  14.970  0.4651 -0.3086 -0.5632
18024TIP3    H175487   4.358   4.174  14.988  0.2359 -0.9674  2.4005
18024TIP3    H275488   4.301   4.033  14.979 -0.6099 -0.5103  0.3659
18025TIP3   OH275489   1.317   2.726  15.140 -0.1775 -0.3351  0.7011
18025TIP3    H175490   1.265   2.801  15.112 -1.2457 -0.9678  0.9527
18025TIP3    H275491   1.345   2.684  15.058 -0.5004 -0.2945  0.5718
18026TIP3   OH275492   5.147   1.467  12.196  0.0942  0.6538  0.1204
18026TIP3    H175493   5.099   1.541  12.160 -0.4970 -0.1163 -0.7135
18026TIP3    H275494   5.103   1.390  12.160  0.3710 -0.1190  1.3940
18027TIP3   OH275495   3.974   0.965   3.874 -0.6985  0.0643  0.1773
18027TIP3    H175496   3.977   0.928   3.786  0.2362 -0.8961  0.6054
18027TIP3    H275497   3.913   1.039   3.867 -0.7828 -0.1302 -1.2195
18028TIP3   OH275498   2.382   4.595   0.600  0.1663  0.5333  0.2270
18028TIP3    H175499   2.437   4.650   0.543 -1.9067 -1.4264 -3.9368
18028TIP3    H275500   2.405   4.505   0.576 -0.9297 -0.3684  2.4266
18029TIP3   OH275501   5.690   5.559  14.432 -0.4510  0.5189 -0.6723
18029TIP3    H175502   5.636   5.481  14.442 -1.4142  1.2731  0.2255
18029TIP3    H275503   5.698   5.571  14.337  0.4486 -1.1473 -0.8274
18030TIP3   OH275504   2.342   1.435   4.897  0.2677 -0.0160 -0.3394
18030TIP3    H175505   2.367   1.450   4.988  1.7743 -1.2340 -0.5551
18030TIP3    H275506   2.388   1.356   4.871 -1.7710 -0.8538 -1.5434
18031TIP3   OH275507   4.636   0.679   0.073  0.1659 -0.3677 -0.0805
18031TIP3    H175508   4.558   0.629   0.049 -0.9320  0.2717  2.0283
18031TIP3    H275509   4.645   0.744   0.004 -1.3943 -0.1964 -0.1337
18032TIP3   OH275510   1.599   3.259  16.552 -0.1312  0.0565  0.0361
18032TIP3    H175511   1.688   3.269  16.518  0.1107 -0.7609  0.4250
18032TIP3    H275512   1.593   3.322  16.623  1.0668 -1.7959  1.8404
18033TIP3   OH275513   1.770   0.174  12.948  0.1200  0.5162  0.7712
18033TIP3    H175514   1.846   0.176  12.891  0.2203  1.4816  0.9268
18033TIP3    H275515   1.775   0.089  12.992  2.0639  1.2771  2.0767
18034TIP3   OH275516   0.765   1.543  15.734 -0.2392 -0.5705 -0.0991
18034TIP3    H175517   0.697   1.553  15.800 -0.9943  1.1298 -1.1144
18034TIP3    H275518   0.729   1.584  15.655  2.0208  0.5902 -0.5804
18035TIP3   OH275519   1.935   2.171   5.802  0.0157  0.1406  0.4409
18035TIP3    H175520   1.947   2.105   5.871 -0.1043 -1.5777 -1.1369
18035TIP3    H275521   1.972   2.130   5.724 -0.6175  1.7211 -0.7052
18036TIP3   OH275522   5.087   2.444  16.216  0.7031 -0.5643  0.4024
18036TIP3    H175523   5.143   2.477  16.146 -0.2834  0.9444  0.3023
18036TIP3    H275524   5.103   2.503  16.290 -1.1161  0.1826  0.2135
18037TIP3   OH275525   2.589   4.672  15.958 -0.2993 -0.4160 -0.2216
18037TIP3    H175526   2.657   4.634  15.903  0.9674 -0.9564  1.6665
18037TIP3    H275527   2.637   4.728  16.019 -1.3765 -1.9796  2.1201
18038TIP3   OH275528   0.183   1.956  13.023  0.1432 -0.0891 -0.3429
18038TIP3    H175529   0.142   1.869  13.021  1.3307 -0.6464 -3.5524
18038TIP3    H275530   0.277   1.938  13.013  0.3249  1.5927 -1.8048
18039TIP3   OH275531   4.925   3.160  14.012  0.1770 -0.1667 -0.1181
18039TIP3    H175532   4.901   3.123  13.927  0.2474  0.1193 -0.2656
18039TIP3    H275533   4.903   3.253  14.004  1.4969  0.1382 -0.3186
18040TIP3   OH275534   2.475   4.304   2.832 -0.4210  0.3020 -0.0302
18040TIP3    H175535   2.404   4.357   2.796 -0.6968 -0.1736 -0.1812
18040TIP3    H275536   2.555   4.347   2.802 -0.6305 -0.8189 -2.2755
18041TIP3   OH275537   6.113   6.535   2.676 -0.5363 -0.1289 -0.6044
18041TIP3    H175538   6.201   6.569   2.657 -0.2851 -0.7963 -0.6490
18041TIP3    H275539   6.116   6.510   2.768 -0.9074  0.5314 -0.4127
18042TIP3   OH275540   6.528   5.559   5.492  0.8901 -0.6328  0.0579
18042TIP3    H175541   6.451   5.612   5.513  1.2202 -0.5362  1.0473
18042TIP3    H275542   6.584   5.616   5.440  0.3263 -0.6852 -0.6217
18043TIP3   OH275543   5.044   3.367  11.370 -0.0283  0.1320 -0.2018
18043TIP3    H175544   4.967   3.386  11.317 -1.7220  0.0284  2.1322
18043TIP3    H275545   5.112   3.424  11.335 -1.3283  0.7128 -1.8721
18044TIP3   OH275546   1.271   2.238  16.038 -0.7187 -0.2385  0.1375
18044TIP3    H175547   1.283   2.281  15.953  1.1349 -1.0352 -0.0362
18044TIP3    H275548   1.337   2.169  16.039 -0.3542  0.1047  2.4550
18045TIP3   OH275549   5.753   0.867  15.367 -0.2960 -0.0662  0.1215
18045TIP3    H175550   5.848   0.878  15.365 -0.3597  0.4901  0.2788
18045TIP3    H275551   5.740   0.772  15.374  0.2526 -0.0486  1.4501
18046TIP3   OH275552   3.699   2.620  11.175 -0.6945  0.2818  0.2731
18046TIP3    H175553   3.731   2.530  11.176  0.4693  0.6760 -0.5335
18046TIP3    H275554   3.659   2.631  11.089 -0.1018  0.7830  0.0586
18047TIP3   OH275555   0.772   6.178   0.686  0.5082 -0.7644 -0.1060
18047TIP3    H175556   0.849   6.131   0.656  0.0771 -1.7985  0.3661
18047TIP3    H275557   0.716   6.187   0.609  1.6009  1.0237 -0.7144
18048TIP3   OH275558   3.712   4.844  11.836 -0.5373 -0.1715 -0.1853
18048TIP3    H175559   3.712   4.767  11.779  2.5577 -0.2058 -0.2482
18048TIP3    H275560   3.678   4.812  11.920 -0.9759 -1.1702 -0.7378
18049TIP3   OH275561   0.610   3.643   3.891 -0.1579 -0.0801  0.4160
18049TIP3    H175562   0.532   3.605   3.850  0.1989 -1.1608  0.7509
18049TIP3    H275563   0.681   3.620   3.832  0.1891 -0.6644  1.0670
18050TIP3   OH275564   0.586   4.975   2.418  0.1003 -0.3172  0.0682
18050TIP3    H175565   0.640   4.897   2.411  1.0353  0.0971  2.4208
18050TIP3    H275566   0.645   5.047   2.396 -0.9660 -0.2595 -2.9506
18051TIP3   OH275567   3.623   3.814   6.202 -0.2377  0.6787  0.6811
18051TIP3    H175568   3.555   3.754   6.233  0.1933  0.4174  1.1431
18051TIP3    H275569   3.615   3.891   6.258  0.0567  0.5151  0.9473
18052TIP3   OH275570   6.192   3.464   0.233 -0.1666 -0.5366 -0.2065
18052TIP3    H175571   6.237   3.515   0.301 -2.7047 -0.9927  1.9029
18052TIP3    H275572   6.166   3.530   0.168 -0.1742  0.3405  0.6624
18053TIP3   OH275573   3.066   5.422   1.920  0.0536 -0.0083  0.0149
18053TIP3    H175574   3.013   5.496   1.889 -2.0570 -1.4675 -0.0008
18053TIP3    H275575   3.090   5.375   1.840  0.1404 -0.1485  0.1238
18054TIP3   OH275576   1.994   1.352   6.302 -0.0294 -0.5330  0.9058
18054TIP3    H175577   2.046   1.280   6.338 -0.0129 -1.3166 -0.5935
18054TIP3    H275578   1.932   1.308   6.243 -0.2681  0.6465  0.2661
18055TIP3   OH275579   4.847   3.304  12.621 -0.2511  0.4109  0.5567
18055TIP3    H175580   4.936   3.304  12.654 -0.6282 -0.0756  1.5739
18055TIP3    H275581   4.804   3.376  12.667 -0.1709  1.1639 -0.5237
18056TIP3   OH275582   3.524   0.113  15.945  0.0054 -0.1685  0.0320
18056TIP3    H175583   3.515   0.023  15.916 -1.1051 -0.3149  0.8107
18056TIP3    H275584   3.508   0.166  15.866 -0.5634 -0.6194 -0.1554
18057TIP3   OH275585   3.704   2.957   0.218 -0.2527 -0.0695  0.0742
18057TIP3    H175586   3.744   3.038   0.189  0.0748 -0.0581  0.5479
18057TIP3    H275587   3.619   2.955   0.175 -0.4616  0.7599  0.4364
18058TIP3   OH275588   5.014   2.038  12.437  0.1501  0.4521  0.3595
18058TIP3    H175589   4.997   2.092  12.514  2.8698 -0.3447  1.5996
18058TIP3    H275590   5.004   2.098  12.363 -0.5633  1.7257  1.4728
18059TIP3   OH275591   0.503   2.361   3.139  0.2183 -0.6609  0.0892
18059TIP3    H175592   0.481   2.322   3.224  0.9022 -2.7551 -0.6662
18059TIP3    H275593   0.418   2.376   3.098 -0.1291  0.7081  1.2887
18060TIP3   OH275594   4.903   2.144   1.000  0.2446 -0.9564 -0.1722
18060TIP3    H175595   4.903   2.155   0.905 -2.2550 -2.3425 -0.3784
18060TIP3    H275596   4.810   2.136   1.023  0.6573  1.2733  2.6407
18061TIP3   OH275597   2.670   5.895  10.741  0.0101  0.5649 -0.8152
18061TIP3    H175598   2.725   5.960  10.783 -0.1033  0.7598 -0.9634
18061TIP3    H275599   2.727   5.820  10.726 -0.5477 -0.4634  1.9100
18062TIP3   OH275600   4.276   4.778  14.277 -0.7997 -0.1534 -0.1888
18062TIP3    H175601   4.238   4.841  14.338  0.5373 -0.8089  1.3616
18062TIP3    H275602   4.347   4.825  14.234 -1.5293  0.2081 -1.0075
18063TIP3   OH275603   3.264   1.500   6.642 -0.0011  0.3729  0.4105
18063TIP3    H175604   3.259   1.552   6.561  2.4912 -0.2934 -0.2250
18063TIP3    H275605   3.216   1.420   6.622 -0.8894  0.9628  0.1852
18064TIP3   OH275606   0.923   0.408   1.564 -0.0103  0.1619  0.0832
18064TIP3    H175607   0.853   0.472   1.551  0.4151  0.9148  1.4314
18064TIP3    H275608   0.980   0.418   1.487 -2.0814 -1.4224 -1.7394
18065TIP3   OH275609   6.783   2.148   1.945 -0.2313  0.2255 -0.1304
18065TIP3    H175610   6.776   2.241   1.963 -1.0532 -0.1364  1.4374
18065TIP3    H275611   6.864   2.121   1.989 -0.3962  0.0318  0.0483
18066TIP3   OH275612   5.010   4.296  16.330  0.2766  0.1604 -0.3216
18066TIP3    H175613   5.002   4.301  16.235  0.1371 -0.1911 -0.3270
18066TIP3    H275614   4.978   4.381  16.361 -0.9863 -0.2285 -0.5114
18067TIP3   OH275615   3.180   1.548   5.125 -0.2589  0.1547 -0.0840
18067TIP3    H175616   3.263   1.538   5.171 -0.1685  0.4446 -0.1852
18067TIP3    H275617   3.199   1.520   5.035 -0.4226 -0.3621  0.0406
18068TIP3   OH275618   4.592   1.837  15.961 -0.5498  0.0462  0.1400
18068TIP3    H175619   4.502   1.839  15.930  0.4376  1.4731 -2.8321
18068TIP3    H275620   4.602   1.917  16.013 -0.6032  0.6326 -0.7424
18069TIP3   OH275621   1.921   0.351  16.431  0.6331 -0.2403 -0.6557
18069TIP3    H175622   1.875   0.418  16.380  0.3567 -0.0989 -0.2121
18069TIP3    H275623   1.960   0.293  16.364 -1.5036 -1.2855 -1.0205
18070TIP3   OH275624   2.973   5.224   6.146 -0.4703  0.2095 -0.1379
18070TIP3    H175625   2.892   5.174   6.156 -1.9347  2.0757 -2.1623
18070TIP3    H275626   2.949   5.313   6.173  1.5630  0.3021  1.4713
18071TIP3   OH275627   5.644   1.411  13.040 -0.4304 -0.3292 -0.2819
18071TIP3    H175628   5.643   1.426  13.134 -3.4065  2.7008 -0.6948
18071TIP3    H275629   5.587   1.335  13.026 -0.9302 -0.0564  0.2733
18072TIP3   OH275630   6.755   2.183   3.791  0.1324  0.2219  0.3579
18072TIP3    H175631   6.773   2.257   3.733 -1.2166  1.0525  0.9641
18072TIP3    H275632   6.803   2.203   3.871  1.5964 -0.6858 -0.2654
18073TIP3   OH275633   6.028   5.726  12.825 -0.2191  0.7388  0.6082
18073TIP3    H175634   6.093   5.791  12.850  0.2265  0.4251  0.2704
18073TIP3    H275635   5.958   5.777  12.782  0.4300  0.9261 -0.2409
18074TIP3   OH275636   6.038   6.039  15.260  0.5463  0.2278 -0.3510
18074TIP3    H175637   6.073   5.996  15.337 -2.8275 -0.0186  1.1633
18074TIP3    H275638   6.006   6.124  15.292 -1.3401 -0.0827 -1.2972
18075TIP3   OH275639   2.906   0.145   3.783  0.0156 -0.0376  0.5444
18075TIP3    H175640   2.941   0.225   3.824 -2.4975  0.2467  2.2451
18075TIP3    H275641   2.847   0.177   3.715  0.5769 -0.4874 -0.1646
18076TIP3   OH275642   0.829   4.503   1.012 -0.4139  0.0323  0.2231
18076TIP3    H175643   0.764   4.434   1.018 -0.0481 -0.3279  0.0650
18076TIP3    H275644   0.778   4.584   1.019 -0.8359 -0.2492  0.4525
18077TIP3   OH275645   6.463   5.840  11.421 -0.1915 -0.5823  0.1581
18077TIP3    H175646   6.378   5.825  11.460 -1.2789  1.1572 -1.4503
18077TIP3    H275647   6.488   5.755  11.383 -2.0563 -0.6730 -0.9266
18078TIP3   OH275648   1.400   2.363  15.641 -0.0774  0.2954  0.8246
18078TIP3    H175649   1.394   2.283  15.589 -0.2810  1.4543 -1.0200
18078TIP3    H275650   1.312   2.376  15.675  0.0869 -0.5529  1.5732
18079TIP3   OH275651   1.200   3.817  11.912  0.0905  0.5483  0.4990
18079TIP3    H175652   1.140   3.760  11.863  1.2343 -0.8377  0.6718
18079TIP3    H275653   1.171   3.808  12.003  0.8930 -0.5577  0.6535
18080TIP3   OH275654   3.156   4.621  13.866  0.1675  0.6940  0.4917
18080TIP3    H175655   3.217   4.679  13.819  0.9498 -1.9202 -1.8218
18080TIP3    H275656   3.074   4.670  13.869  1.8629  3.5497  2.0902
18081TIP3   OH275657   3.145   2.483  14.120 -0.0770  0.0009  0.2300
18081TIP3    H175658   3.057   2.452  14.097  0.3911 -0.4194 -1.0237
18081TIP3    H275659   3.131   2.574  14.148 -0.8363  0.1244 -0.5135
18082TIP3   OH275660   1.005   2.504  14.159  0.6525  0.5426 -0.0880
18082TIP3    H175661   0.920   2.541  14.137 -0.3889 -1.7195 -0.0468
18082TIP3    H275662   1.037   2.467  14.077  2.1207  2.3614 -0.3517
18083TIP3   OH275663   5.646   3.985   5.006 -0.6134  0.0172 -0.0532
18083TIP3    H175664   5.656   4.079   4.994 -0.1278  0.2208  1.6755
18083TIP3    H275665   5.574   3.960   4.949  0.6429  1.0602 -2.1404
18084TIP3   OH275666   0.361   2.507  10.754  0.3659 -0.6473 -0.1976
18084TIP3    H175667   0.292   2.568  10.781  0.6333 -0.2017 -0.5152
18084TIP3    H275668   0.314   2.433  10.716  0.0457 -0.5510  0.0073
18085TIP3   OH275669   4.449   5.419  13.037  0.2710 -0.4016  0.1072
18085TIP3    H175670   4.520   5.387  12.982  1.0176  0.8829  0.2995
18085TIP3    H275671   4.414   5.494  12.989 -1.1533 -1.1820 -0.1172
18086TIP3   OH275672   2.405   3.028  14.344 -0.9869  0.3886 -0.4619
18086TIP3    H175673   2.388   2.991  14.258  0.2461  0.1674 -0.6113
18086TIP3    H275674   2.325   3.009  14.394 -1.7317  0.5933 -1.5648
18087TIP3   OH275675   1.249   1.099   2.204 -0.1432 -0.6752 -0.5130
18087TIP3    H175676   1.216   1.162   2.139 -0.2092 -1.7122 -1.5067
18087TIP3    H275677   1.180   1.095   2.270  0.1215  0.7301 -0.1316
18088TIP3   OH275678   1.627   5.420   3.043  0.2525 -0.1874  0.1904
18088TIP3    H175679   1.623   5.497   2.987  1.9428 -0.6537 -0.6019
18088TIP3    H275680   1.578   5.445   3.121 -1.3338  0.8043 -1.0814
18089TIP3   OH275681   5.600   4.469  14.716  0.4101  0.6216 -0.3311
18089TIP3    H175682   5.653   4.406  14.667  0.6842 -0.9649  1.8699
18089TIP3    H275683   5.640   4.554  14.698  2.2296 -0.2694 -0.6033
18090TIP3   OH275684   1.214   0.758   4.828 -0.3473 -0.0589 -0.2027
18090TIP3    H175685   1.141   0.696   4.819 -0.6944  0.0419  1.6026
18090TIP3    H275686   1.189   0.813   4.902  1.3230  0.3284  0.0888
18091TIP3   OH275687   5.974   2.063   4.067 -0.4149 -0.0388  0.0580
18091TIP3    H175688   5.931   2.026   4.145 -1.6219  1.5025  0.1361
18091TIP3    H275689   6.032   2.131   4.102 -0.3022  0.0566 -0.3198
18092TIP3   OH275690   3.884   5.340  11.597  0.4845  0.4087 -1.0248
18092TIP3    H175691   3.919   5.251  11.608  1.0280  0.6193 -1.0565
18092TIP3    H275692   3.961   5.397  11.599  0.1248  0.8932 -0.8737
18093TIP3   OH275693   1.622   6.529   6.134 -0.6220  0.0998  0.4320
18093TIP3    H175694   1.627   6.457   6.197 -1.9329 -0.4558 -0.0860
18093TIP3    H275695   1.616   6.608   6.187  1.1648 -0.1340  1.0064
18094TIP3   OH275696   3.665   4.005  16.283 -0.4365  0.6185 -0.5401
18094TIP3    H175697   3.677   4.098  16.299  2.1637  0.1842  0.1883
18094TIP3    H275698   3.738   3.981  16.226 -0.9452 -1.0368 -0.5170
18095TIP3   OH275699   5.227   5.417  13.048  0.2720 -0.6437  0.0379
18095TIP3    H175700   5.246   5.500  13.006 -1.1240  0.3787  1.3497
18095TIP3    H275701   5.312   5.375  13.060  1.2250  1.6638  1.5401
18096TIP3   OH275702   0.397   1.517   0.299  0.6189 -0.7790 -0.5564
18096TIP3    H175703   0.376   1.604   0.332 -1.1805 -0.7440 -1.6923
18096TIP3    H275704   0.485   1.499   0.331  1.4897  1.9515 -1.2835
18097TIP3   OH275705   1.149   1.130  12.607 -0.1652 -0.6247  0.7746
18097TIP3    H175706   1.244   1.126  12.618 -0.3449  0.6436  3.2920
18097TIP3    H275707   1.136   1.158  12.516  1.8845 -0.3303  0.5501
18098TIP3   OH275708   2.254   3.884  10.809  0.3783  0.5105  0.3152
18098TIP3    H175709   2.302   3.874  10.728  0.3444 -0.7004  0.4271
18098TIP3    H275710   2.170   3.840  10.793  1.3862 -2.0605  1.8479
18099TIP3   OH275711   1.273   3.795  14.102 -0.1634 -0.1148 -0.5978
18099TIP3    H175712   1.344   3.761  14.047 -1.4301 -1.0343 -1.6888
18099TIP3    H275713   1.239   3.870  14.054 -1.2947 -0.9376 -1.0857
18100TIP3   OH275714   3.973   4.869   2.532 -0.2606  0.7032 -0.2340
18100TIP3    H175715   3.987   4.946   2.586  0.3204  0.8367 -0.5695
18100TIP3    H275716   3.904   4.895   2.470 -0.3956  0.7958 -0.0434
18101TIP3   OH275717   5.043   4.576  12.090 -0.2826 -0.1192  0.1581
18101TIP3    H175718   5.013   4.495  12.048  1.8053  0.7411 -3.1904
18101TIP3    H275719   5.003   4.646  12.038  2.6473  0.9934 -0.6854
18102TIP3   OH275720   4.891   6.108  14.267  0.2526 -0.1971 -0.3105
18102TIP3    H175721   4.914   6.027  14.313 -0.2643 -0.3909 -0.3842
18102TIP3    H275722   4.907   6.177  14.331  2.3970 -0.1788 -0.8208
18103TIP3   OH275723   4.672   6.423  16.831 -0.0546 -0.0167  0.0460
18103TIP3    H175724   4.577   6.417  16.839 -0.0656 -0.2020 -0.2416
18103TIP3    H275725   4.693   6.381  16.748  0.3131 -0.2876  0.2709
18104TIP3   OH275726   3.565   4.008   3.832 -0.5094 -0.2835  0.7048
18104TIP3    H175727   3.544   4.098   3.860 -2.0886  0.2960 -2.1928
18104TIP3    H275728   3.536   3.954   3.906  0.2197  1.5460  2.3903
18105TIP3   OH275729   0.719   6.552  16.157 -0.3544 -0.3973 -0.1672
18105TIP3    H175730   0.727   6.488  16.086  0.1539 -1.2444  0.6526
18105TIP3    H275731   0.625   6.560  16.171 -0.4327 -0.6893 -0.5209
18106TIP3   OH275732   6.312   3.735  13.753  0.4234 -0.1145 -0.6442
18106TIP3    H175733   6.397   3.744  13.797  1.0183 -1.6547 -1.4457
18106TIP3    H275734   6.323   3.782  13.670 -0.2864  1.6899  0.2520
18107TIP3   OH275735   2.193   5.978  13.749  0.1817 -0.7613 -0.1138
18107TIP3    H175736   2.175   5.937  13.833 -1.6613 -0.8055 -0.4984
18107TIP3    H275737   2.237   5.911  13.697 -0.4628 -1.3796  0.1438
18108TIP3   OH275738   6.721   4.828   4.442  0.1042 -0.2541 -0.4361
18108TIP3    H175739   6.704   4.832   4.536  1.0892 -0.1688 -0.2535
18108TIP3    H275740   6.656   4.886   4.403  0.9837  1.3143  0.3676
18109TIP3   OH275741   5.253   6.585   2.036 -0.3877 -0.1368 -0.4681
18109TIP3    H175742   5.170   6.540   2.023 -0.3492 -0.3660  0.0676
18109TIP3    H275743   5.228   6.672   2.068 -0.4050 -0.5520  0.7030
18110TIP3   OH275744   0.493   0.383  12.868  0.7855 -0.0528  0.6809
18110TIP3    H175745   0.456   0.403  12.782 -0.0066  0.8624  1.2317
18110TIP3    H275746   0.417   0.363  12.923  1.3295 -1.2324  1.0262
18111TIP3   OH275747   3.976   1.599  13.087 -0.0172 -0.3435  0.2315
18111TIP3    H175748   4.051   1.638  13.132 -1.0897  1.6234  0.3833
18111TIP3    H275749   3.996   1.610  12.994  0.1210 -0.3132  0.2641
18112TIP3   OH275750   6.403   2.420   1.264  0.2314  0.1901 -0.6788
18112TIP3    H175751   6.365   2.345   1.310  1.7111 -1.1651 -1.5988
18112TIP3    H275752   6.373   2.409   1.173 -0.4960  1.3572 -0.5808
18113TIP3   OH275753   4.499   0.139   6.047  0.5833 -0.9918 -0.0797
18113TIP3    H175754   4.518   0.083   5.972  1.3282 -0.9574  0.0833
18113TIP3    H275755   4.493   0.079   6.122  0.2870 -0.9761 -0.0905
18114TIP3   OH275756   3.554   6.645   1.023 -0.4705 -0.3734  0.9147
18114TIP3    H175757   3.494   6.571   1.026  0.4562 -1.2550 -1.4785
18114TIP3    H275758   3.633   6.613   1.066 -1.1318  0.2778  2.6653
18115TIP3   OH275759   3.340   6.429  13.945  0.3198 -0.2787  0.0839
18115TIP3    H175760   3.313   6.391  13.862 -0.3789 -0.8056  0.5443
18115TIP3    H275761   3.282   6.389  14.010 -0.3102  1.4300  0.6091
18116TIP3   OH275762   4.880   5.499   1.773  0.1227  0.1296 -0.4052
18116TIP3    H175763   4.957   5.513   1.829  0.8770 -0.2794 -1.3333
18116TIP3    H275764   4.813   5.558   1.810  0.8992  0.5532  0.3514
18117TIP3   OH275765   6.366   2.943   4.385 -0.5950 -0.2866  0.3792
18117TIP3    H175766   6.302   2.901   4.327  0.4677  0.4486 -1.3494
18117TIP3    H275767   6.434   2.975   4.326 -0.6705  2.6177  1.7791
18118TIP3   OH275768   0.736   6.264   4.941 -0.2811 -0.5922  0.0133
18118TIP3    H175769   0.654   6.269   4.892 -0.3118 -1.4761 -0.0373
18118TIP3    H275770   0.803   6.287   4.877 -0.4529 -0.3434 -0.0751
18119TIP3   OH275771   6.610   2.134  12.394  0.4126  0.1415  0.8365
18119TIP3    H175772   6.554   2.165  12.465 -1.1987  0.4772 -0.5530
18119TIP3    H275773   6.689   2.187  12.401 -0.8782  2.1183  0.6632
18120TIP3   OH275774   0.741   0.568   1.175 -0.3697  0.1735  0.2366
18120TIP3    H175775   0.731   0.499   1.108 -1.9188  1.3346 -0.7641
18120TIP3    H275776   0.655   0.572   1.218 -0.1659  1.2097  0.5571
18121TIP3   OH275777   4.954   5.447  15.535 -0.2641 -0.2594  0.6946
18121TIP3    H175778   4.952   5.435  15.440  0.9012  0.0913  0.6099
18121TIP3    H275779   4.877   5.501  15.554 -0.1997  0.1353 -0.1295
18122TIP3   OH275780   4.079   5.724   3.982  0.3951 -0.4229 -0.4758
18122TIP3    H175781   4.159   5.672   3.978  0.0467 -0.8705 -1.7444
18122TIP3    H275782   4.103   5.808   3.944  0.0451 -0.8435 -1.6357
18123TIP3   OH275783   1.581   5.135   0.503 -0.3459  1.1751 -0.2513
18123TIP3    H175784   1.489   5.130   0.477  0.1751 -1.5594 -1.8372
18123TIP3    H275785   1.615   5.047   0.487  1.9385  1.4488  2.7314
18124TIP3   OH275786   1.669   3.238  12.572 -0.2030  0.0512  0.4041
18124TIP3    H175787   1.620   3.304  12.622 -1.1035 -1.1779  1.1876
18124TIP3    H275788   1.758   3.272  12.568 -0.4624  0.8972  1.5543
18125TIP3   OH275789   6.650   2.904  15.607  0.0333  0.3033 -0.2633
18125TIP3    H175790   6.631   2.905  15.513  2.0638 -2.0344 -0.7596
18125TIP3    H275791   6.571   2.866  15.646  0.4344 -1.8535 -1.4220
18126TIP3   OH275792   5.866   4.309   2.553  0.2613 -0.0227  0.4201
18126TIP3    H175793   5.809   4.365   2.605  1.6496  1.9058 -0.1010
18126TIP3    H275794   5.834   4.318   2.463 -0.3928 -1.1999  0.5156
18127TIP3   OH275795   0.773   6.525   1.905  0.3865  0.3993  0.2628
18127TIP3    H175796   0.849   6.479   1.939  0.2635  0.1183  0.1546
18127TIP3    H275797   0.770   6.504   1.812 -1.1040 -1.4061  0.6956
18128TIP3   OH275798   6.227   1.934  11.877  0.3427 -0.0756  0.3357
18128TIP3    H175799   6.168   1.945  11.803 -0.5102 -1.5451  0.7830
18128TIP3    H275800   6.244   2.023  11.908 -0.2771  0.4648 -0.8463
18129TIP3   OH275801   4.253   5.970   5.609 -0.0981  0.0167  0.1018
18129TIP3    H175802   4.179   5.948   5.665 -0.9179  1.0780 -0.5537
18129TIP3    H275803   4.214   5.984   5.523  0.6074  2.5786  0.1766
18130TIP3   OH275804   2.242   3.985   4.352 -0.2372  0.0513  0.5601
18130TIP3    H175805   2.314   4.033   4.312  0.4488 -1.7452 -0.4210
18130TIP3    H275806   2.274   3.895   4.359 -1.1893 -0.1249  3.0920
18131TIP3   OH275807   4.491   3.090  10.946  0.0804  0.1418  0.6490
18131TIP3    H175808   4.470   3.172  10.989  1.9061  0.8696  0.1914
18131TIP3    H275809   4.587   3.087  10.944  0.0378 -1.6084 -0.0545
18132TIP3   OH275810   2.442   4.708   6.607  0.3927 -0.1269 -0.1296
18132TIP3    H175811   2.531   4.741   6.594  1.4534 -1.8621  2.3244
18132TIP3    H275812   2.427   4.651   6.532  0.8068  1.2381 -1.2803
18133TIP3   OH275813   5.865   3.629  13.516  0.2309 -0.0589 -0.0584
18133TIP3    H175814   5.941   3.594  13.563 -1.2592 -0.5761  2.0503
18133TIP3    H275815   5.816   3.551  13.488 -0.1940  0.2725 -0.2425
18134TIP3   OH275816   2.219   2.373   1.098  0.1707 -0.2141  0.1049
18134TIP3    H175817   2.213   2.424   1.017  0.1369  0.4666  0.5304
18134TIP3    H275818   2.309   2.344   1.102  0.9970  2.2975  1.3275
18135TIP3   OH275819   4.171   1.762   1.538 -0.1402  0.8105 -0.1565
18135TIP3    H175820   4.192   1.750   1.445 -1.8526 -0.6764 -0.3864
18135TIP3    H275821   4.242   1.816   1.572  1.7192 -0.5095 -1.8285
18136TIP3   OH275822   0.229   1.583  15.360 -0.5225 -0.1254  0.5762
18136TIP3    H175823   0.236   1.488  15.346  0.1237  0.0179 -0.0887
18136TIP3    H275824   0.158   1.610  15.301  0.7097  0.1308 -0.7975
18137TIP3   OH275825   0.934   6.577  13.910 -0.1004 -0.7854 -0.2665
18137TIP3    H175826   0.924   6.610  13.999 -0.6185  0.0018 -0.6070
18137TIP3    H275827   0.871   6.505  13.904  0.3363 -1.2046  0.1776
18138TIP3   OH275828   1.368   1.909  14.506  0.1461  0.5271 -0.2077
18138TIP3    H175829   1.372   1.978  14.440  0.4963  0.5097 -0.2064
18138TIP3    H275830   1.451   1.861  14.496  0.0997  0.3834  0.0909
18139TIP3   OH275831   3.881   4.844  16.396 -0.4360  0.8223 -0.2452
18139TIP3    H175832   3.824   4.819  16.468  0.5054 -1.0370 -0.1263
18139TIP3    H275833   3.825   4.840  16.318 -0.4771 -0.9476 -0.1245
18140TIP3   OH275834   1.534   1.903   6.759  0.3141 -0.2972  0.1832
18140TIP3    H175835   1.579   1.959   6.696 -0.3621  0.1019  0.0462
18140TIP3    H275836   1.474   1.851   6.707  1.0556 -1.2717  0.2966
18141TIP3   OH275837   5.556   3.916  13.317  0.1202 -0.1001 -0.2437
18141TIP3    H175838   5.571   3.873  13.402  1.1221 -0.9070 -0.8166
18141TIP3    H275839   5.598   4.001  13.325 -1.0164  0.3909  0.5609
18142TIP3   OH275840   2.003   4.134  10.801 -0.3151  0.6156  0.1224
18142TIP3    H175841   2.047   4.217  10.822  1.7388 -0.0344 -1.4898
18142TIP3    H275842   2.071   4.080  10.762 -2.1563 -1.0697 -0.8314
18143TIP3   OH275843   2.305   6.028   6.433 -0.4172  0.2030 -0.6431
18143TIP3    H175844   2.347   6.053   6.351  0.5221 -0.0102 -0.2276
18143TIP3    H275845   2.259   6.107   6.461  0.2589  0.6427 -0.7613
18144TIP3   OH275846   2.203   1.720  15.201  0.2711 -0.2169 -0.2352
18144TIP3    H175847   2.252   1.651  15.245  0.9835  0.9594  0.8155
18144TIP3    H275848   2.117   1.719  15.243  0.3585 -0.2940 -0.0610
18145TIP3   OH275849   0.226   6.702  13.621 -0.3010 -0.3376  0.2886
18145TIP3    H175850   0.279   6.631  13.656  0.3646  0.9168  1.8630
18145TIP3    H275851   0.289   6.763  13.583 -0.6204  1.0007  1.8735
18146TIP3   OH275852   3.221   1.822   1.429 -0.4682  0.2190  0.2846
18146TIP3    H175853   3.133   1.827   1.466 -0.5790 -1.8913  0.3838
18146TIP3    H275854   3.279   1.850   1.501 -1.0752  2.4473 -0.0496
18147TIP3   OH275855   4.286   0.358   5.324  0.0152  0.2276 -0.5623
18147TIP3    H175856   4.309   0.270   5.353  0.9404  0.5783 -0.1973
18147TIP3    H275857   4.366   0.390   5.282  0.2029  1.4653  0.6884
18148TIP3   OH275858   1.860   1.150   6.175  0.0383  1.1935  0.2131
18148TIP3    H175859   1.803   1.075   6.191 -0.8990  1.6907 -0.7541
18148TIP3    H275860   1.946   1.123   6.207 -0.4959  0.0302  0.6543
18149TIP3   OH275861   0.182   4.479  16.301 -0.4289  0.4742  0.2639
18149TIP3    H175862   0.119   4.409  16.323  0.3392 -0.4613 -0.4735
18149TIP3    H275863   0.201   4.466  16.208  2.3456 -0.4794  0.9195
18150TIP3   OH275864   6.517   4.053   0.004 -0.5963 -0.2545 -0.2847
18150TIP3    H175865   6.477   4.113  -0.059 -1.8567 -0.0687  0.6790
18150TIP3    H275866   6.500   3.966  -0.032 -0.1284 -0.1054 -0.8805
18151TIP3   OH275867   3.690   4.152  15.659  0.1487 -0.4093  0.2430
18151TIP3    H175868   3.774   4.107  15.649  0.1378 -0.1875 -0.8529
18151TIP3    H275869   3.671   4.145  15.753 -0.0647 -3.0942  0.0571
18152TIP3   OH275870   0.378   1.007  13.841 -0.0078 -0.5462 -0.7514
18152TIP3    H175871   0.326   1.085  13.821 -0.1398 -0.4309  0.0523
18152TIP3    H275872   0.427   0.990  13.760 -0.1807  0.2100 -1.0172
18153TIP3   OH275873   6.393   6.059   1.366  0.1118 -0.5013  0.1648
18153TIP3    H175874   6.319   6.110   1.333  0.9071  1.7326  1.7260
18153TIP3    H275875   6.353   5.979   1.400 -1.2376 -0.6320 -1.6659
18154TIP3   OH275876   4.727   5.440   6.262 -0.4146  0.5829  0.2607
18154TIP3    H175877   4.794   5.384   6.301 -1.1291  0.7898  1.8768
18154TIP3    H275878   4.745   5.527   6.298  0.5472  1.3714 -2.0544
18155TIP3   OH275879   4.529   5.663   0.215  0.4394  0.0430 -0.6960
18155TIP3    H175880   4.594   5.656   0.146  2.2386  0.9618  0.8480
18155TIP3    H275881   4.550   5.592   0.276 -0.1872  0.1639 -0.3306
18156TIP3   OH275882   2.807   6.456  14.834  0.2374 -0.0635 -0.2625
18156TIP3    H175883   2.895   6.442  14.868 -0.1313 -1.0641  0.3150
18156TIP3    H275884   2.760   6.498  14.906 -0.3602 -1.5733  0.2528
18157TIP3   OH275885   3.919   6.137   4.178 -0.6670  0.5421 -0.1133
18157TIP3    H175886   3.873   6.201   4.233 -1.0351 -1.1743  1.6035
18157TIP3    H275887   3.959   6.076   4.240  0.9283 -0.0638 -1.6867
18158TIP3   OH275888   2.051   5.608  11.780 -0.2545 -0.5979 -0.1423
18158TIP3    H175889   2.039   5.609  11.685  0.3053  1.6335 -0.2040
18158TIP3    H275890   2.131   5.558  11.793  0.6432  0.5860 -0.9797
18159TIP3   OH275891   6.189   6.591  14.258 -0.0905 -0.5433  0.1545
18159TIP3    H175892   6.268   6.590  14.203  0.1435  0.8164  0.4474
18159TIP3    H275893   6.117   6.603  14.197  0.1941  1.2795  0.1562
18160TIP3   OH275894   5.026   6.496  12.210 -0.2301 -0.2888 -0.6109
18160TIP3    H175895   5.089   6.427  12.227 -1.0232 -1.1781 -1.2162
18160TIP3    H275896   4.971   6.500  12.288  0.1259  0.0048 -0.3735
18161TIP3   OH275897   5.638   5.438   4.003  0.8875 -0.3258 -0.5358
18161TIP3    H175898   5.688   5.360   4.025  1.6353  0.0957 -0.7364
18161TIP3    H275899   5.669   5.463   3.916 -0.5732 -0.7925 -1.2051
18162TIP3   OH275900   3.754   2.356   3.523  0.0257  0.1940 -0.4029
18162TIP3    H175901   3.740   2.447   3.497  1.5522  0.3895 -0.6055
18162TIP3    H275902   3.732   2.305   3.444  0.8750  0.5259 -0.8676
18163TIP3   OH275903   1.871   6.241  16.855  0.5822  0.0597  1.0278
18163TIP3    H175904   1.892   6.203  16.769  0.0734  0.9061  0.5293
18163TIP3    H275905   1.948   6.294  16.876  0.8865 -0.4772  1.2931
18164TIP3   OH275906   0.447   5.517  15.872  0.3447 -0.4185 -0.3001
18164TIP3    H175907   0.484   5.605  15.868  2.5341 -1.2349  1.2320
18164TIP3    H275908   0.483   5.479  15.952  1.4405 -3.5851 -2.1904
18165TIP3   OH275909   2.459   0.310   0.305  0.7378  0.2140  0.1260
18165TIP3    H175910   2.468   0.215   0.314  2.0788  0.3232  0.1550
18165TIP3    H275911   2.533   0.345   0.355  1.0756  1.2285 -1.0711
18166TIP3   OH275912   3.090   4.629   3.503 -0.1486  0.6015  0.3455
18166TIP3    H175913   3.013   4.617   3.448 -0.2502  3.0562 -0.1050
18166TIP3    H275914   3.161   4.649   3.442  0.9534 -1.9474  0.7308
18167TIP3   OH275915   3.008   4.813   2.268 -0.2613  0.6005  0.1637
18167TIP3    H175916   3.072   4.750   2.233 -1.9737 -0.4162 -1.2207
18167TIP3    H275917   2.951   4.761   2.325  0.5600  1.6420  1.9757
18168TIP3   OH275918   3.277   1.892   2.366 -0.0714  0.4646 -0.1981
18168TIP3    H175919   3.282   1.844   2.283  0.9203  0.4177 -0.1117
18168TIP3    H275920   3.358   1.942   2.370  0.0845  0.1341  0.9607
18169TIP3   OH275921   4.478   3.785   1.544 -0.3061 -0.2188  0.2887
18169TIP3    H175922   4.523   3.867   1.523  1.1507 -1.2901 -0.9046
18169TIP3    H275923   4.414   3.775   1.474  0.5913 -0.8662 -0.4600
18170TIP3   OH275924   4.688   2.713  15.752 -0.6123 -0.0536  0.8709
18170TIP3    H175925   4.767   2.692  15.802 -1.2403  1.2196  2.4428
18170TIP3    H275926   4.632   2.636  15.762  0.4664 -1.0138 -0.3535
18171TIP3   OH275927   4.860   0.342  11.310  0.0259  0.6734  0.0030
18171TIP3    H175928   4.918   0.398  11.258  0.1946 -0.4878 -1.0809
18171TIP3    H275929   4.812   0.403  11.366  0.8969  1.8187 -0.4692
18172TIP3   OH275930   6.418   5.388   5.308  0.1353 -0.1716 -0.1429
18172TIP3    H175931   6.331   5.384   5.346  0.4771  0.1004  0.6844
18172TIP3    H275932   6.473   5.427   5.377  1.0144 -0.8568 -0.4414
18173TIP3   OH275933   1.336   1.626   3.106  0.2595  0.3116 -0.2878
18173TIP3    H175934   1.343   1.639   3.201  2.5570 -0.0071 -0.3835
18173TIP3    H275935   1.391   1.695   3.069 -2.4290  1.8656 -1.5196
18174TIP3   OH275936   0.989   4.754  11.884 -0.1601  0.5119  0.1680
18174TIP3    H175937   1.007   4.661  11.901  1.2832  0.8824  0.7705
18174TIP3    H275938   0.906   4.771  11.929  0.6254  0.0184  1.8706
18175TIP3   OH275939   1.922   0.514  14.459  0.0949 -0.1439 -0.4680
18175TIP3    H175940   1.972   0.486  14.535  1.2201  1.5338 -0.5657
18175TIP3    H275941   1.915   0.609  14.469  0.3429  0.1032 -2.5104
18176TIP3   OH275942   3.010   0.582  11.637  0.1767 -0.3952 -0.2168
18176TIP3    H175943   3.048   0.644  11.699 -3.3293  1.1483  0.5205
18176TIP3    H275944   2.987   0.505  11.689 -3.5859  1.2466  0.7172
18177TIP3   OH275945   2.268   4.286   5.393  0.1471  0.1187  0.5484
18177TIP3    H175946   2.318   4.368   5.393 -0.8550  0.7778 -1.4543
18177TIP3    H275947   2.311   4.231   5.327  0.7211 -0.9174  1.7761
18178TIP3   OH275948   3.609   5.240   5.145 -0.1964  0.5913 -0.1168
18178TIP3    H175949   3.606   5.334   5.164 -0.7340  1.0418 -2.2219
18178TIP3    H275950   3.518   5.212   5.150  0.1348 -0.1573  1.9899
18179TIP3   OH275951   2.046   0.324   5.878  0.2785 -0.2886  0.0129
18179TIP3    H175952   2.089   0.382   5.814 -2.0529  1.4998 -0.0122
18179TIP3    H275953   1.997   0.383   5.934 -0.1823 -2.0988  1.5539
18180TIP3   OH275954   1.520   6.605   4.303 -0.5934 -0.0972  0.3849
18180TIP3    H175955   1.530   6.517   4.267 -1.3751  0.7724 -2.0987
18180TIP3    H275956   1.605   6.624   4.342  0.3810 -1.0650 -1.1785
18181TIP3   OH275957   1.088   5.847   6.219 -0.0941  0.5476 -0.0597
18181TIP3    H175958   1.159   5.906   6.245  0.2006  0.4113 -0.5480
18181TIP3    H275959   1.108   5.764   6.264  0.3957  0.3218 -0.6978
18182TIP3   OH275960   2.245   4.351  12.203  0.3485  0.2240  0.2253
18182TIP3    H175961   2.233   4.398  12.285 -1.9218  0.4373 -0.1905
18182TIP3    H275962   2.157   4.342  12.167  1.0554 -1.7691 -1.1398
18183TIP3   OH275963   0.636   0.644  15.167 -0.0525 -0.1610  0.7082
18183TIP3    H175964   0.652   0.668  15.259  0.2961 -0.3949  0.7096
18183TIP3    H275965   0.680   0.560  15.156  0.8595  0.3874  0.0312
18184TIP3   OH275966   4.636   5.931   6.121 -0.6034 -0.1488  0.5483
18184TIP3    H175967   4.609   5.869   6.189  1.4034  0.4073  1.8794
18184TIP3    H275968   4.682   6.001   6.168  0.4273  0.4716 -1.3237
18185TIP3   OH275969   2.587   5.700   5.514 -0.3340 -0.1346  0.6095
18185TIP3    H175970   2.588   5.791   5.545  0.7709  0.2264 -0.4700
18185TIP3    H275971   2.616   5.705   5.423 -1.7288 -1.4015  0.0748
18186TIP3   OH275972   1.676   2.929   0.523  0.0020  0.0050 -0.0959
18186TIP3    H175973   1.605   2.939   0.459 -1.2273  1.8769  1.5133
18186TIP3    H275974   1.651   2.853   0.574  0.4135 -0.8170 -1.0968
18187TIP3   OH275975   0.509   5.180  12.213  0.7276 -0.0681 -0.3685
18187TIP3    H175976   0.556   5.143  12.138  0.6190 -0.3253 -0.3062
18187TIP3    H275977   0.454   5.109  12.245 -0.0648  0.3735 -0.7361
18188TIP3   OH275978   4.857   4.704  13.949  0.1912  0.0642 -0.3460
18188TIP3    H175979   4.828   4.636  14.010  1.1021  0.0112  0.0254
18188TIP3    H275980   4.915   4.658  13.889 -1.4611 -0.1068 -1.8757
18189TIP3   OH275981   6.027   1.214  14.288 -0.3418  0.4212 -0.0628
18189TIP3    H175982   6.033   1.254  14.202  0.1029  0.5539  0.0282
18189TIP3    H275983   5.940   1.237  14.320 -0.5276  0.3248 -0.4981
18190TIP3   OH275984   0.853   2.165   3.724 -0.5338  0.7006  0.6109
18190TIP3    H175985   0.829   2.074   3.709 -1.3549  0.9508  0.3598
18190TIP3    H275986   0.869   2.201   3.636 -0.6852  0.9183  0.6701
18191TIP3   OH275987   2.297   4.863  14.481  0.1553 -0.0602  0.2838
18191TIP3    H175988   2.338   4.903  14.404 -1.2918  0.8813 -0.0287
18191TIP3    H275989   2.347   4.784  14.497  1.7481  0.7850 -0.4063
18192TIP3   OH275990   5.334   1.809  15.154  0.2494 -0.3784  0.0645
18192TIP3    H175991   5.399   1.835  15.089 -0.2175 -0.1220 -0.3080
18192TIP3    H275992   5.315   1.717  15.134  0.0705 -0.2856 -0.1903
18193TIP3   OH275993   0.032   0.584  11.471 -0.1980  0.1861  0.0956
18193TIP3    H175994   0.096   0.520  11.504 -0.0458  0.8825  1.1956
18193TIP3    H275995  -0.014   0.538  11.401  0.1997 -0.9881  0.5854
18194TIP3   OH275996   6.054   2.615  15.371  0.3479  0.5083  0.2503
18194TIP3    H175997   6.113   2.662  15.312  0.3421 -0.2272 -0.3486
18194TIP3    H275998   6.015   2.684  15.425  0.8895  1.1167 -0.1144
18195TIP3   OH275999   2.057   5.595  12.566  0.1060 -0.4132 -0.0368
18195TIP3    H176000   1.975   5.550  12.548  0.2116 -0.5901 -0.0749
18195TIP3    H276001   2.113   5.573  12.492  0.2489 -0.4366  0.0793
18196TIP3   OH276002   3.668   0.295   1.489  0.3385 -0.2483  0.3161
18196TIP3    H176003   3.651   0.244   1.409 -1.7083  1.1596 -0.1805
18196TIP3    H276004   3.729   0.241   1.539  0.9590 -1.5569 -1.8036
18197TIP3   OH276005   4.396   0.721  16.456 -0.2990  0.0153  0.3155
18197TIP3    H176006   4.301   0.722  16.454 -0.2982  0.1849  0.3660
18197TIP3    H276007   4.421   0.668  16.380 -0.4309 -0.0437  0.3136
18198TIP3   OH276008   5.726   6.132  10.985 -0.0951 -0.1720  0.9095
18198TIP3    H176009   5.718   6.109  11.077 -0.9061 -0.6780  0.7142
18198TIP3    H276010   5.756   6.052  10.942 -0.1586 -0.0661  0.6653
18199TIP3   OH276011   3.472   4.236   3.200  0.8351 -0.4465 -0.0672
18199TIP3    H176012   3.423   4.273   3.273  0.0503 -0.3651 -0.6261
18199TIP3    H276013   3.477   4.143   3.219 -0.2240 -0.5746 -0.3965
18200TIP3   OH276014   3.037   6.521   1.286  0.2321 -0.0865 -0.2269
18200TIP3    H176015   2.953   6.553   1.319 -0.4999 -1.5587 -0.6116
18200TIP3    H276016   3.021   6.428   1.268  1.4288  0.0447 -2.0197
18201TIP3   OH276017   4.276   4.768  17.038  0.0395  0.3658  0.2694
18201TIP3    H176018   4.326   4.687  17.038 -2.2647 -1.0920 -0.3704
18201TIP3    H276019   4.316   4.821  16.970  1.7468 -0.0878  0.8898
18202TIP3   OH276020   3.286   2.326   3.937 -0.1533  0.2461 -0.2648
18202TIP3    H176021   3.336   2.402   3.905 -1.0436  1.9192  2.1758
18202TIP3    H276022   3.350   2.256   3.942  1.3573  1.6361  0.2585
18203TIP3   OH276023   3.085   2.737   6.630  0.4604  0.4209 -0.2570
18203TIP3    H176024   3.171   2.779   6.631  1.0355 -0.7260 -0.5766
18203TIP3    H276025   3.103   2.646   6.605 -0.8116  0.0998 -0.0364
18204TIP3   OH276026   5.888   4.680  16.977  0.2776 -0.6295 -0.6334
18204TIP3    H176027   5.881   4.691  16.882 -0.3416 -0.0219 -0.5228
18204TIP3    H276028   5.797   4.669  17.006  0.6331 -2.8761 -0.3487
18205TIP3   OH276029   1.806   4.637   2.525  0.8671 -0.7369  0.0124
18205TIP3    H176030   1.742   4.616   2.458  0.9481 -1.0707  0.0358
18205TIP3    H276031   1.756   4.637   2.607  0.4831  1.0865 -0.1970
18206TIP3   OH276032   2.403   4.926  15.957  0.3392  0.6786  0.6183
18206TIP3    H176033   2.337   4.878  15.906  0.5270  0.1751  0.8447
18206TIP3    H276034   2.484   4.878  15.942  0.5928  1.1147  0.5948
18207TIP3   OH276035   2.805   2.841   1.821 -0.1808 -0.3811  0.7630
18207TIP3    H176036   2.851   2.917   1.786 -0.9996  0.5105  1.5743
18207TIP3    H276037   2.863   2.806   1.888 -0.0617 -0.0946  0.8104
18208TIP3   OH276038   3.838   1.177  14.621 -0.5101  0.2758 -0.1347
18208TIP3    H176039   3.789   1.122  14.559 -0.7105 -0.0922  0.3546
18208TIP3    H276040   3.790   1.170  14.703  2.1864 -2.7159  1.2731
18209TIP3   OH276041   1.378   2.414  11.757 -0.1182 -0.3377  0.3289
18209TIP3    H176042   1.389   2.397  11.664 -1.4991 -1.4417  0.3488
18209TIP3    H276043   1.337   2.334  11.791 -1.2556  0.7467  1.5505
18210TIP3   OH276044   4.267   6.146   1.620  0.0753 -0.4894  0.4490
18210TIP3    H176045   4.318   6.221   1.590 -4.1788  2.7672  0.8560
18210TIP3    H276046   4.288   6.138   1.713 -0.4078  1.0555  0.6993
18211TIP3   OH276047   3.983   5.808  11.637 -0.5262  0.3400 -0.0880
18211TIP3    H176048   3.950   5.805  11.727 -0.6103 -0.5386 -0.1427
18211TIP3    H276049   4.055   5.870  11.639 -1.4615  1.4207  0.2834
18212TIP3   OH276050   1.059   6.356   4.452 -0.0412  0.3234  0.1742
18212TIP3    H176051   1.095   6.418   4.515 -0.2927  0.8845 -0.2348
18212TIP3    H276052   0.966   6.376   4.449 -0.0188  0.3404 -0.4206
18213TIP3   OH276053   1.499   0.401  13.355  0.2445  0.0938 -0.4134
18213TIP3    H176054   1.534   0.334  13.413  1.0865  1.3873  0.5871
18213TIP3    H276055   1.524   0.372  13.267  2.7977  0.3659  0.1956
18214TIP3   OH276056   3.536   0.860  14.613 -0.3784 -0.2457 -0.2932
18214TIP3    H176057   3.448   0.897  14.612 -1.0367 -1.7642  0.1414
18214TIP3    H276058   3.555   0.845  14.705 -0.9658 -2.8808 -0.5540
18215TIP3   OH276059   0.201   3.532  12.470 -0.4329  0.0843  0.2087
18215TIP3    H176060   0.149   3.508  12.393 -2.0912 -0.2971  1.4168
18215TIP3    H276061   0.141   3.581  12.525  0.7905  0.4960  1.1980
18216TIP3   OH276062   4.839   1.430  15.027  0.6922  0.9973 -0.0434
18216TIP3    H176063   4.870   1.377  15.101  0.1024 -0.6707 -0.9647
18216TIP3    H276064   4.781   1.495  15.067 -0.7257 -0.7626  0.8261
18217TIP3   OH276065   3.851   0.108  13.484 -0.6350  0.1889 -0.0390
18217TIP3    H176066   3.934   0.074  13.452  0.3193  0.2507  2.2781
18217TIP3    H276067   3.789   0.091  13.413  0.8163 -2.1050 -0.7952
18218TIP3   OH276068   1.240   6.096  14.372  0.5435  0.2931 -0.3072
18218TIP3    H176069   1.202   6.052  14.448  0.2403 -1.8396 -1.6596
18218TIP3    H276070   1.173   6.158  14.343 -0.2089 -0.4722 -0.1927
18219TIP3   OH276071   0.363   2.769   2.207  0.1608 -0.2991 -0.4826
18219TIP3    H176072   0.416   2.721   2.271 -0.9830  0.6588  1.2489
18219TIP3    H276073   0.427   2.811   2.150  1.2176 -1.2089  0.0088
18220TIP3   OH276074   4.686   2.513  13.148 -0.4080 -0.1612  0.0983
18220TIP3    H176075   4.718   2.603  13.148 -1.3217  0.1728  0.8035
18220TIP3    H276076   4.673   2.491  13.056 -0.6043  0.5744 -0.0490
18221TIP3   OH276077   6.047   2.218   4.654  0.5401  0.3926 -0.2578
18221TIP3    H176078   6.058   2.238   4.747  0.3340 -0.9419  0.0524
18221TIP3    H276079   5.954   2.235   4.637  0.9093  2.2058 -0.6155
18222TIP3   OH276080   2.923   6.159  15.597  0.3125  0.1115  0.4157
18222TIP3    H176081   3.010   6.158  15.636  0.3117 -1.1692  0.4211
18222TIP3    H276082   2.883   6.077  15.626 -1.0592  0.8789  0.7640
18223TIP3   OH276083   3.196   5.073   0.338  0.9048 -0.2606  0.1345
18223TIP3    H176084   3.290   5.090   0.328  1.4885 -3.1037  0.3841
18223TIP3    H276085   3.174   5.111   0.423  2.0841 -0.5081  0.5661
18224TIP3   OH276086   5.558   3.421  14.069  0.0716  0.4532  0.1616
18224TIP3    H176087   5.592   3.332  14.064  2.4761  1.3978 -1.0345
18224TIP3    H276088   5.615   3.465  14.132  1.2580  2.1163 -2.0068
18225TIP3   OH276089   4.446   6.742  13.740 -0.2342 -0.3501 -0.6456
18225TIP3    H176090   4.540   6.760  13.739 -0.7862  2.8186  0.1232
18225TIP3    H276091   4.415   6.774  13.655 -0.7048 -1.1610 -0.7901
18226TIP3   OH276092   0.218   0.795   4.505  0.3482 -0.1302 -0.2831
18226TIP3    H176093   0.249   0.868   4.452 -0.7609  0.6371  0.1085
18226TIP3    H276094   0.165   0.836   4.573  0.9149 -1.1874  0.8030
18227TIP3   OH276095   4.298   4.387  15.981  0.3663 -0.3007 -0.4049
18227TIP3    H176096   4.242   4.398  16.057 -0.1566 -0.7617 -0.7250
18227TIP3    H276097   4.241   4.353  15.913  1.3505 -2.3108 -0.2634
18228TIP3   OH276098   4.366   4.873  16.278 -0.1294 -0.2667 -0.0737
18228TIP3    H176099   4.290   4.899  16.226 -1.1302 -1.4948  0.7153
18228TIP3    H276100   4.427   4.836  16.215 -1.2147 -1.4793 -0.4463
18229TIP3   OH276101   6.531   2.967   1.208 -0.0212 -0.0231 -0.0045
18229TIP3    H176102   6.441   2.956   1.177 -0.3216 -0.1067  0.8774
18229TIP3    H276103   6.531   2.927   1.295  0.7653  0.3475  0.1662
18230TIP3   OH276104   4.760   2.862   4.981  0.3345  0.1617 -0.0859
18230TIP3    H176105   4.790   2.909   4.904  2.1926 -0.7240  0.0763
18230TIP3    H276106   4.780   2.919   5.054 -0.4140  0.5163 -0.1470
18231TIP3   OH276107   3.765   2.808  14.130 -0.0799 -0.7334  0.1746
18231TIP3    H176108   3.817   2.832  14.207 -0.2115 -3.5357  1.1646
18231TIP3    H276109   3.718   2.889  14.108  1.0666  0.5261  2.1193
18232TIP3   OH276110   5.871   3.237   3.532  0.5893  0.4442 -0.3537
18232TIP3    H176111   5.912   3.279   3.457 -2.0520 -1.1396 -2.7542
18232TIP3    H276112   5.872   3.143   3.511  0.3819 -0.0878  1.8713
18233TIP3   OH276113   0.221   5.906  15.636 -0.1146  0.2023 -0.1339
18233TIP3    H176114   0.149   5.865  15.588  0.3283 -2.0905  1.1300
18233TIP3    H276115   0.295   5.900  15.577 -0.6039  1.3438 -0.8896
18234TIP3   OH276116   6.481   0.271   5.339  0.6758 -0.3092  0.5142
18234TIP3    H176117   6.405   0.319   5.373  0.5604  0.1810 -0.4300
18234TIP3    H276118   6.553   0.334   5.341 -0.1648  0.9317 -3.6322
18235TIP3   OH276119   6.462   5.996  16.218 -0.0289 -0.1404  0.0923
18235TIP3    H176120   6.499   6.083  16.204 -0.4706  0.0521  0.1113
18235TIP3    H276121   6.532   5.936  16.193 -0.2738  0.2074 -1.4597
18236TIP3   OH276122   1.996   0.856  15.406  0.5358 -0.2050  0.1774
18236TIP3    H176123   1.989   0.761  15.415 -0.6549 -0.0946  0.4686
18236TIP3    H276124   1.976   0.891  15.493 -3.4325  0.5019 -0.9365
18237TIP3   OH276125   0.735   1.444  13.191 -0.3458  0.2919 -0.1407
18237TIP3    H176126   0.706   1.477  13.106 -0.4623  0.2438 -0.1204
18237TIP3    H276127   0.753   1.523  13.242 -0.1438  0.3191 -0.2559
18238TIP3   OH276128   5.072   3.658  15.440 -0.2877 -0.4592  0.3681
18238TIP3    H176129   5.020   3.653  15.360 -0.2988 -1.2225  0.4172
18238TIP3    H276130   5.161   3.635  15.412 -0.5068 -1.9039  0.7671
18239TIP3   OH276131   1.066   3.022  11.854  0.0808 -0.9137  0.2489
18239TIP3    H176132   1.031   2.936  11.877 -0.4827 -0.9736 -0.8386
18239TIP3    H276133   1.159   3.007  11.839  0.0706 -1.2395  0.5085
18240TIP3   OH276134   0.437   1.934  16.430  0.5178 -0.0453 -0.4239
18240TIP3    H176135   0.439   1.941  16.526 -1.2904 -0.0675 -0.3584
18240TIP3    H276136   0.390   2.012  16.402  0.2086 -0.5174 -1.2374
18241TIP3   OH276137   2.969   0.065   1.016  0.2396 -0.1429 -0.1527
18241TIP3    H176138   2.961  -0.031   1.013  1.2348 -0.2027 -0.8637
18241TIP3    H276139   2.998   0.090   0.929 -0.1782  0.8316 -0.0182
18242TIP3   OH276140   6.605   5.144   1.302 -0.0666  0.2469 -0.7405
18242TIP3    H176141   6.571   5.232   1.317  1.0396  0.3807  1.1620
18242TIP3    H276142   6.543   5.104   1.241 -2.0330  1.4457  0.4196
18243TIP3   OH276143   1.149   3.570   4.942 -0.6819  0.3135  0.1379
18243TIP3    H176144   1.210   3.624   4.992 -0.1927  0.5093 -0.6644
18243TIP3    H276145   1.112   3.509   5.007 -1.3526  1.6956  1.0712
18244TIP3   OH276146   5.757   2.134  13.121 -0.3384  0.0834  0.7739
18244TIP3    H176147   5.765   2.200  13.051 -0.7121 -3.2223 -2.5483
18244TIP3    H276148   5.847   2.123  13.153 -0.3050  2.3290  1.5101
18245TIP3   OH276149   1.387   0.376   3.792 -0.1151  0.0707  0.1977
18245TIP3    H176150   1.386   0.306   3.728  0.8605  1.1167 -0.9957
18245TIP3    H276151   1.299   0.414   3.789 -0.8847 -1.5690  1.4047
18246TIP3   OH276152   5.943   0.843   0.665  0.6574 -0.2881 -0.5735
18246TIP3    H176153   5.891   0.923   0.673  0.0783 -0.6366 -0.8193
18246TIP3    H276154   5.938   0.820   0.572  1.8384  0.0706 -0.7234
18247TIP3   OH276155   2.419   3.865  11.938  0.0608 -0.3192  0.1417
18247TIP3    H176156   2.341   3.812  11.918 -0.4442  0.4670  0.0018
18247TIP3    H276157   2.396   3.913  12.017 -1.1015  2.8483 -1.9966
18248TIP3   OH276158   5.621   0.221  15.665 -0.4297  0.4108 -0.1528
18248TIP3    H176159   5.654   0.222  15.755 -1.8621 -0.7644  0.3961
18248TIP3    H276160   5.548   0.282  15.665 -1.4744 -0.8274 -0.1092
18249TIP3   OH276161   2.856   4.517  13.045 -0.1230 -0.2054  0.0146
18249TIP3    H176162   2.904   4.530  13.126  0.0296 -1.7426  0.1926
18249TIP3    H276163   2.890   4.584  12.986  0.5833  0.1961  0.8587
18250TIP3   OH276164   4.994   1.907  13.830  0.0381  0.2691 -0.1543
18250TIP3    H176165   4.950   1.841  13.883 -0.7286  1.0768  0.2322
18250TIP3    H276166   4.953   1.990  13.856  1.7467  1.0335  0.1729
18251TIP3   OH276167   0.412   5.820   1.320 -0.1503 -0.9624 -0.5862
18251TIP3    H176168   0.422   5.869   1.238  1.7291 -0.6546 -0.1990
18251TIP3    H276169   0.490   5.765   1.325  1.1005  0.9318  2.2322
18252TIP3   OH276170   1.892   6.635  16.214  0.4980 -0.5126  0.2530
18252TIP3    H176171   1.987   6.621  16.209  0.5281 -0.1055 -0.2859
18252TIP3    H276172   1.862   6.635  16.123 -0.2433 -2.1227  0.4829
18253TIP3   OH276173   4.091   3.599  16.877  0.4580  0.3014 -0.3086
18253TIP3    H176174   4.131   3.516  16.849 -0.2743 -0.5410  1.0967
18253TIP3    H276175   4.129   3.616  16.963 -0.4781  0.6923  0.0341
18254TIP3   OH276176   6.251   0.157  13.493  0.7936  0.1294 -0.1145
18254TIP3    H176177   6.162   0.165  13.528  0.5215 -0.4012 -0.6718
18254TIP3    H276178   6.308   0.191  13.563  0.2847 -1.2488  0.9981
18255TIP3   OH276179   0.596   5.531  13.289 -0.2104  0.2228  0.2422
18255TIP3    H176180   0.678   5.514  13.242  0.1355 -0.9441  1.2379
18255TIP3    H276181   0.596   5.468  13.361 -1.0989  1.4819  1.3663
18256TIP3   OH276182   1.374   0.932  12.681  0.1862  0.1450 -0.8351
18256TIP3    H176183   1.440   0.894  12.624  1.6024  0.9091  0.2738
18256TIP3    H276184   1.385   1.027  12.671 -1.2179  0.2893 -1.1745
18257TIP3   OH276185   3.533   2.957   2.267 -0.1247 -0.0793 -0.0618
18257TIP3    H176186   3.473   2.999   2.206 -0.3878  1.0357  0.9462
18257TIP3    H276187   3.494   2.972   2.353  0.6850 -0.8856  0.4557
18258TIP3   OH276188   1.351   2.246  15.150 -0.2529 -0.3628  0.2037
18258TIP3    H176189   1.379   2.161  15.116 -1.6509 -0.6383 -0.2980
18258TIP3    H276190   1.374   2.308  15.080 -2.0026 -0.7641 -0.7803
18259TIP3   OH276191   5.882   6.667  11.561  0.1674  0.0242 -0.6809
18259TIP3    H176192   5.826   6.694  11.635  1.1544 -1.2850  0.5708
18259TIP3    H276193   5.963   6.715  11.575  0.8925 -1.3588 -0.0618
18260TIP3   OH276194   4.753   3.610  11.995  0.8687 -0.4963 -0.2848
18260TIP3    H176195   4.756   3.665  11.917 -0.9984 -2.4066 -1.7613
18260TIP3    H276196   4.829   3.553  11.987  3.0413  2.0279  1.4524
18261TIP3   OH276197   6.677   3.429   0.291  0.5009  0.2386  0.4299
18261TIP3    H176198   6.759   3.389   0.318  1.0375  1.2033  0.2473
18261TIP3    H276199   6.652   3.484   0.366 -0.9490 -1.4796  1.2536
18262TIP3   OH276200   5.941   4.969  16.606  0.1004  0.3233  0.1106
18262TIP3    H176201   6.022   4.987  16.558  0.7456  2.5818  1.9729
18262TIP3    H276202   5.882   5.040  16.582 -0.4396  0.1006  0.7532
18263TIP3   OH276203   0.620   5.332  16.601  0.2600 -0.4007 -0.0658
18263TIP3    H176204   0.673   5.314  16.524  0.6982 -1.5136  0.4785
18263TIP3    H276205   0.675   5.385  16.658  0.3130 -0.4433 -0.0778
18264TIP3   OH276206   1.032   6.100  11.498 -0.1560 -0.9966 -0.2776
18264TIP3    H176207   1.100   6.066  11.556  0.4983  1.8006  0.6700
18264TIP3    H276208   1.080   6.137  11.424 -0.7194 -0.3152 -0.3076
18265TIP3   OH276209   4.454   1.049   0.535  0.1167  0.1198 -0.6984
18265TIP3    H176210   4.423   1.139   0.547  2.6756  1.0401 -0.7481
18265TIP3    H276211   4.459   1.038   0.440 -0.4150 -0.1732 -0.6968
18266TIP3   OH276212   3.041   4.006   5.938 -0.2777 -0.1181  0.0734
18266TIP3    H176213   2.999   3.967   6.015 -1.7917 -0.2411 -0.7880
18266TIP3    H276214   3.115   4.055   5.973  0.2209 -1.7769  1.4119
18267TIP3   OH276215   3.028   0.570  13.588 -0.3810  0.1633  0.0506
18267TIP3    H176216   2.994   0.632  13.652  1.1593  1.0450  0.0370
18267TIP3    H276217   3.053   0.624  13.513 -0.6751 -0.6744 -0.6595
18268TIP3   OH276218   1.066   5.256  12.335  0.6546  0.7548 -0.0251
18268TIP3    H176219   1.059   5.161  12.327 -1.9423  0.9857 -1.2229
18268TIP3    H276220   1.049   5.273  12.428  0.9728  0.0648  0.1675
18269TIP3   OH276221   2.004   0.038   4.139  0.6283  0.2405 -0.4339
18269TIP3    H176222   1.914   0.047   4.107  0.2049  0.4009  0.7888
18269TIP3    H276223   2.047  -0.017   4.073 -0.5195 -0.3151 -0.7312
18270TIP3   OH276224   5.711   2.722  10.698  0.4445 -0.2140  0.1688
18270TIP3    H176225   5.621   2.754  10.699  0.5280  0.1320 -1.3472
18270TIP3    H276226   5.764   2.802  10.690  1.0771 -0.1445  4.2008
18271TIP3   OH276227   0.159   2.239   4.049  0.2107 -0.4701 -0.4769
18271TIP3    H176228   0.255   2.232   4.045  0.4582  1.2219  1.2987
18271TIP3    H276229   0.130   2.158   4.091  1.1605  0.2737  1.7035
18272TIP3   OH276230   3.766   1.660   0.802 -0.3908 -0.3333 -0.3832
18272TIP3    H176231   3.707   1.681   0.875 -1.0240  0.8752 -1.2108
18272TIP3    H276232   3.820   1.738   0.792  1.1438 -1.3129  0.1532
18273TIP3   OH276233   2.831   0.373  11.034 -0.0987 -0.3395  0.6890
18273TIP3    H176234   2.883   0.294  11.049 -0.1930 -0.1514  2.0114
18273TIP3    H276235   2.803   0.366  10.942 -0.5109 -2.0711  0.9379
18274TIP3   OH276236   5.275   1.238   0.611 -0.0015 -0.0430 -0.5018
18274TIP3    H176237   5.345   1.268   0.668  0.1801  0.8088 -1.1601
18274TIP3    H276238   5.197   1.286   0.640 -0.3286 -1.0254  0.2623
18275TIP3   OH276239   4.754   1.230   2.835  0.0510  0.4355 -0.2308
18275TIP3    H176240   4.689   1.244   2.767 -0.4314 -0.7745 -0.0394
18275TIP3    H276241   4.839   1.240   2.791 -0.2411  2.9843 -0.2737
18276TIP3   OH276242   5.861   3.353   5.434  0.1919 -0.3627 -0.6066
18276TIP3    H176243   5.902   3.266   5.429  1.4054  0.0614  1.3449
18276TIP3    H276244   5.921   3.411   5.387  0.5376 -0.2016  0.0214
18277TIP3   OH276245   5.915   2.442  15.520  0.4350 -0.2475 -0.3381
18277TIP3    H176246   5.976   2.514  15.508  0.0582  0.2849  0.8729
18277TIP3    H276247   5.922   2.419  15.613 -0.9181 -0.4299 -0.2690
18278TIP3   OH276248   5.206   5.500  15.614 -0.2140 -0.2828  0.0962
18278TIP3    H176249   5.259   5.424  15.636 -0.4374 -0.7017 -0.8259
18278TIP3    H276250   5.125   5.464  15.579 -0.4454  0.3781 -0.0556
18279TIP3   OH276251   5.084   4.480   6.799  0.2749 -0.2601  0.2446
18279TIP3    H176252   5.003   4.459   6.845  1.4255  0.6510  2.7616
18279TIP3    H276253   5.141   4.404   6.815  0.8166  0.2282  0.6604
18280TIP3   OH276254   2.433   3.662   1.606 -0.2358  0.1401  0.0245
18280TIP3    H176255   2.436   3.686   1.514  0.3271  1.1967  0.3006
18280TIP3    H276256   2.505   3.601   1.618  1.3296  1.9826  0.2813
18281TIP3   OH276257   3.915   6.061  16.971 -0.1031 -0.5194  0.3850
18281TIP3    H176258   3.928   5.968  16.991  0.3498 -0.4606  0.3695
18281TIP3    H276259   3.820   6.073  16.975 -0.0357 -0.5212  2.4080
18282TIP3   OH276260   1.860   2.726   6.058 -0.9730  0.1844 -0.3918
18282TIP3    H176261   1.815   2.701   6.138  2.2029 -2.1530  0.7707
18282TIP3    H276262   1.834   2.661   5.993 -1.4760  0.5240 -0.5344
18283TIP3   OH276263   3.214   4.402   0.100 -0.2428  0.1161  0.6050
18283TIP3    H176264   3.124   4.398   0.130 -0.5301  0.4807 -0.2036
18283TIP3    H276265   3.220   4.335   0.032  0.0346  0.2525  0.4953
18284TIP3   OH276266   4.355   4.202  14.376 -0.6125  0.5752  0.5992
18284TIP3    H176267   4.418   4.256  14.423 -0.3018 -0.5193  1.4238
18284TIP3    H276268   4.405   4.127  14.344 -1.0976  0.6458 -0.3656
18285TIP3   OH276269   1.987   6.564   3.973 -0.4976 -0.5441 -0.0099
18285TIP3    H176270   2.073   6.587   3.937 -1.0529 -1.6635 -2.1066
18285TIP3    H276271   1.927   6.571   3.899 -1.8129 -2.0848  0.8828
18286TIP3   OH276272   1.183   2.035   1.505 -0.3286  0.1550  0.4559
18286TIP3    H176273   1.137   2.103   1.555  0.2676  1.8573 -1.2524
18286TIP3    H276274   1.232   2.083   1.438  0.9444 -1.8920 -0.1473
18287TIP3   OH276275   0.693   0.394  15.997 -0.3986  0.0278  0.0310
18287TIP3    H176276   0.667   0.419  16.086  1.7918  0.1633  0.6784
18287TIP3    H276277   0.727   0.475  15.959 -0.5305 -0.2255 -0.6165
18288TIP3   OH276278   0.891   4.762   3.086 -0.4896 -0.0438  0.4652
18288TIP3    H176279   0.959   4.764   3.019  0.0819  0.8614  1.0681
18288TIP3    H276280   0.930   4.805   3.162 -1.6755  0.3284  0.8799
18289TIP3   OH276281   2.010   4.601   2.753 -0.1922 -0.6240 -0.4745
18289TIP3    H176282   2.068   4.582   2.827 -1.8260  1.3702  1.3807
18289TIP3    H276283   1.949   4.527   2.752 -0.3140 -0.5440  0.3360
18290TIP3   OH276284   5.264   5.254  12.442 -0.8578  0.3791  0.1011
18290TIP3    H176285   5.259   5.298  12.357 -4.7356  1.1366  0.6357
18290TIP3    H276286   5.340   5.294  12.485 -0.6727  2.1614 -1.8155
18291TIP3   OH276287   0.328   0.001   1.668 -0.2632  0.3338 -0.2761
18291TIP3    H176288   0.417   0.007   1.702 -1.1528 -0.4156  2.3294
18291TIP3    H276289   0.321   0.073   1.605  2.2886  0.1405 -0.8587
18292TIP3   OH276290   3.408   0.198   4.089  0.2287  0.2089  0.2167
18292TIP3    H176291   3.479   0.136   4.103 -0.8268 -1.2559 -0.7578
18292TIP3    H276292   3.342   0.149   4.040 -0.3093  2.3197 -1.2506
18293TIP3   OH276293   1.565   6.707  13.370  0.0462 -0.3198 -0.5279
18293TIP3    H176294   1.470   6.700  13.370  0.0656 -0.6252 -1.1983
18293TIP3    H276295   1.582   6.800  13.352 -0.1416  0.2505  2.1112
18294TIP3   OH276296   0.810   0.145  14.271  0.0007 -0.1880 -0.4212
18294TIP3    H176297   0.749   0.102  14.211  0.5333 -0.4596 -0.7715
18294TIP3    H276298   0.792   0.106  14.356 -0.4263 -0.1503 -0.4933
18295TIP3   OH276299   1.820   3.018   3.568 -0.4855 -0.0344 -0.4572
18295TIP3    H176300   1.738   3.050   3.530  0.4699  0.4007 -2.1810
18295TIP3    H276301   1.888   3.070   3.526  0.7049 -0.5026  0.8471
18296TIP3   OH276302   3.538   5.895  14.162  0.6380 -0.3712  0.4389
18296TIP3    H176303   3.601   5.947  14.211 -0.1816 -0.7212  1.8962
18296TIP3    H276304   3.588   5.820  14.130  0.9578 -0.7013  1.6799
18297TIP3   OH276305   3.584   3.734  14.838 -0.2036 -0.0285  0.1773
18297TIP3    H176306   3.525   3.757  14.767 -0.7793  1.4628  1.1293
18297TIP3    H276307   3.571   3.802  14.904  2.6190  0.3963  0.3760
18298TIP3   OH276308   3.327   4.060   2.213  0.0928 -0.2824  0.3769
18298TIP3    H176309   3.302   4.075   2.122  0.7970 -0.9658  0.0619
18298TIP3    H276310   3.409   4.108   2.224 -0.2806  0.2559  0.8078
18299TIP3   OH276311   2.286   5.249   0.807  0.5614 -0.1846 -0.0311
18299TIP3    H176312   2.334   5.306   0.867  1.4175 -1.0390  0.1024
18299TIP3    H276313   2.200   5.239   0.847  1.0387 -0.5338  0.9410
18300TIP3   OH276314   5.426   5.348   4.507 -0.1970  0.1877  0.3511
18300TIP3    H176315   5.513   5.383   4.526 -0.1260  0.9574 -1.3386
18300TIP3    H276316   5.369   5.390   4.571  0.7809 -0.9714  2.0329
18301TIP3   OH276317   4.152   4.739   2.705 -0.7359 -0.0011  0.5865
18301TIP3    H176318   4.087   4.762   2.639  0.8015  0.1005 -0.8991
18301TIP3    H276319   4.232   4.783   2.678  0.8629 -2.7521  0.5938
18302TIP3   OH276320   0.139   5.836  15.928  0.4467  0.3361  0.2399
18302TIP3    H176321   0.156   5.748  15.896 -0.3660  0.0055  0.6975
18302TIP3    H276322   0.125   5.889  15.849  0.3214 -0.0747 -0.0112
18303TIP3   OH276323   2.805   3.844   1.633 -0.2788 -0.7925  0.1463
18303TIP3    H176324   2.713   3.845   1.608 -0.3736 -3.5663  0.2998
18303TIP3    H276325   2.805   3.878   1.723 -1.0980 -0.4933  0.0367
18304TIP3   OH276326   5.886   2.158   2.541  0.2630  0.0356  0.6705
18304TIP3    H176327   5.859   2.084   2.596 -0.5496  0.3987  0.7719
18304TIP3    H276328   5.964   2.192   2.584  1.4658 -1.6039 -0.1314
18305TIP3   OH276329   2.626   5.012   5.912 -0.2948  0.5789 -0.0440
18305TIP3    H176330   2.660   5.056   5.990 -0.3215  1.5241 -0.5637
18305TIP3    H276331   2.668   4.926   5.913 -0.9760  0.2420  1.4964
18306TIP3   OH276332   6.272   4.401  11.420 -0.1822  0.5288  0.4000
18306TIP3    H176333   6.214   4.337  11.378 -0.1338  0.8302 -0.1370
18306TIP3    H276334   6.213   4.467  11.456 -0.1928  0.6034  0.2452
18307TIP3   OH276335   3.811   4.929   5.485  0.1614 -0.5974 -0.0703
18307TIP3    H176336   3.767   4.843   5.490 -0.7659 -0.2185 -1.4638
18307TIP3    H276337   3.896   4.915   5.526 -0.2456 -2.0145  0.3230
18308TIP3   OH276338   0.331   0.473  14.947 -0.4651 -0.5513 -0.0930
18308TIP3    H176339   0.360   0.532  14.877  1.3906 -2.3798 -0.9019
18308TIP3    H276340   0.308   0.532  15.020  1.0154  1.1780 -0.9949
18309TIP3   OH276341   6.728   6.168   1.701 -0.0790  0.4785 -0.6254
18309TIP3    H176342   6.736   6.184   1.795 -0.2838  1.2745 -0.7382
18309TIP3    H276343   6.710   6.254   1.664 -1.0831  0.0073 -1.2718
18310TIP3   OH276344   4.966   4.135   3.719 -0.2345  0.2376  0.3010
18310TIP3    H176345   5.048   4.183   3.720 -0.2660  0.2835  1.4344
18310TIP3    H276346   4.967   4.087   3.636  0.2037  1.4719 -0.4251
18311TIP3   OH276347   1.719   6.337  16.572 -0.0536  0.4939 -0.1360
18311TIP3    H176348   1.642   6.358  16.518  0.0151  1.0835 -0.0033
18311TIP3    H276349   1.794   6.359  16.517  0.0407 -1.1520 -0.6933
18312TIP3   OH276350   6.534   6.578  15.024 -0.3559 -0.1178 -0.0626
18312TIP3    H176351   6.503   6.668  15.030  2.1991  0.8361 -0.5568
18312TIP3    H276352   6.545   6.562  14.930 -2.0911 -1.4277 -0.0630
18313TIP3   OH276353   5.669   1.682   2.234  0.1228 -0.5389 -0.2717
18313TIP3    H176354   5.765   1.683   2.229  0.1510 -1.2459  0.0934
18313TIP3    H276355   5.650   1.704   2.325 -0.0736  0.1161 -0.4731
18314TIP3   OH276356   3.093   0.049   0.442 -0.0038  0.0669  0.0066
18314TIP3    H176357   3.184   0.080   0.443  0.3230 -0.7686 -1.6255
18314TIP3    H276358   3.060   0.067   0.530  2.1313 -0.7767  1.0076
18315TIP3   OH276359   4.985   3.159   4.220  0.2573 -0.3218 -0.2279
18315TIP3    H176360   4.949   3.138   4.134 -1.3279  2.7597 -0.3766
18315TIP3    H276361   4.921   3.125   4.282  1.4539 -2.6442 -0.2198
18316TIP3   OH276362   6.525   6.410   1.966  0.6585  0.3961 -0.2798
18316TIP3    H176363   6.476   6.329   1.981 -0.4745  0.6199 -2.6536
18316TIP3    H276364   6.471   6.479   2.006 -0.4559  0.5031 -1.9401
18317TIP3   OH276365   0.749   1.767  15.222 -0.1371 -0.5703  0.0869
18317TIP3    H176366   0.713   1.714  15.150  1.2968 -2.1023  0.4450
18317TIP3    H276367   0.725   1.719  15.301 -1.5912  1.0425  0.6384
18318TIP3   OH276368   5.766   6.599   4.631 -0.1004  0.1304 -0.1854
18318TIP3    H176369   5.800   6.563   4.713  1.8594  2.4032  0.0445
18318TIP3    H276370   5.682   6.639   4.656 -0.3007 -0.6218  0.3655
18319TIP3   OH276371   6.242   0.922  15.799 -0.3584 -0.5261 -0.6482
18319TIP3    H176372   6.200   0.910  15.714 -0.7260 -0.2137 -0.5154
18319TIP3    H276373   6.196   0.862  15.857  0.5276 -1.4259 -0.8750
18320TIP3   OH276374   4.695   6.200   5.416  0.3414  0.3172 -0.1299
18320TIP3    H176375   4.768   6.216   5.476 -0.6486 -1.2036  1.5075
18320TIP3    H276376   4.625   6.166   5.471 -0.7021 -0.8289 -2.1095
18321TIP3   OH276377   1.709   5.390   2.765  0.2613  0.3902  0.1978
18321TIP3    H176378   1.676   5.415   2.851 -2.8450 -2.7341  0.0233
18321TIP3    H276379   1.754   5.307   2.780  1.5231  0.8554 -0.8964
18322TIP3   OH276380   0.693   5.735   5.400 -0.5915  0.5548 -0.5537
18322TIP3    H176381   0.631   5.799   5.434 -1.4077 -0.6168  0.1857
18322TIP3    H276382   0.655   5.706   5.317 -0.4551  0.6808 -0.6606
18323TIP3   OH276383   0.167   1.401   5.237  0.2236  0.3338 -0.2602
18323TIP3    H176384   0.112   1.478   5.226  0.8537  0.8189 -0.0581
18323TIP3    H276385   0.217   1.395   5.156 -0.2483 -0.2020 -0.5114
18324TIP3   OH276386   5.765   3.113   2.677  0.0363 -0.2167  0.0787
18324TIP3    H176387   5.837   3.099   2.615  1.5666 -0.5564  1.8926
18324TIP3    H276388   5.727   3.026   2.691  0.0267 -0.2204  0.0290
18325TIP3   OH276389   4.814   2.579   5.425  0.5779  0.5279 -0.3004
18325TIP3    H176390   4.767   2.496   5.435  1.0236  0.3471  0.3150
18325TIP3    H276391   4.906   2.555   5.433  0.6212  1.4015  2.2255
18326TIP3   OH276392   4.944   0.914   0.602 -0.2452 -0.0877 -0.4112
18326TIP3    H176393   5.029   0.929   0.561 -0.5882  2.8227 -0.1267
18326TIP3    H276394   4.880   0.942   0.537 -0.9790 -0.9325 -0.0788
18327TIP3   OH276395   4.020   2.190   3.790 -0.1249  0.2686  0.3045
18327TIP3    H176396   4.103   2.149   3.814  0.0611 -0.5728 -1.6714
18327TIP3    H276397   4.044   2.256   3.724 -1.0753 -0.4180 -0.7519
18328TIP3   OH276398   6.671   4.781  15.922 -0.1140  0.1767 -0.1245
18328TIP3    H176399   6.701   4.871  15.907 -1.2568  0.5520 -0.2357
18328TIP3    H276400   6.751   4.729  15.926  0.5258  1.1071 -0.6825
18329TIP3   OH276401   4.621   3.012   0.171  0.0104 -0.3709 -0.1386
18329TIP3    H176402   4.549   3.073   0.156 -0.4829 -0.5172  1.4943
18329TIP3    H276403   4.578   2.928   0.190  0.6237 -0.6390  0.0737
18330TIP3   OH276404   3.844   1.362  11.583  0.3173 -0.3938 -0.2656
18330TIP3    H176405   3.899   1.441  11.578  0.7270 -0.7621 -1.8483
18330TIP3    H276406   3.901   1.291  11.553 -0.1973 -1.2213  0.6888
18331TIP3   OH276407   4.668   2.983  15.971 -0.4467  0.1137 -0.2158
18331TIP3    H176408   4.628   3.045  15.910  1.3089  0.5200 -1.0016
18331TIP3    H276409   4.761   3.007  15.971 -0.3311 -0.2132  2.2373
18332TIP3   OH276410   0.269   5.169  10.485  0.1058  0.6016  0.2135
18332TIP3    H176411   0.259   5.263  10.469  0.4965  0.2189 -2.5683
18332TIP3    H276412   0.363   5.157  10.499 -0.0100  0.6928  1.0715
18333TIP3   OH276413   2.712   0.064  15.944 -0.6324 -0.0446 -0.3555
18333TIP3    H176414   2.758   0.037  16.023 -0.2172  0.5544 -0.3900
18333TIP3    H276415   2.777   0.111  15.893 -1.0973  0.2186 -0.7122
18334TIP3   OH276416   1.476   5.297   5.400  0.0203 -0.2259 -0.3965
18334TIP3    H176417   1.495   5.346   5.480 -0.6655 -2.2137  1.0073
18334TIP3    H276418   1.395   5.336   5.366  1.0895  1.5761 -0.9411
18335TIP3   OH276419   0.431   0.313   3.698 -0.3555 -0.6608 -0.0445
18335TIP3    H176420   0.466   0.394   3.661  0.2077 -0.8021  0.1686
18335TIP3    H276421   0.363   0.341   3.759  0.9583 -0.2644  1.2569
18336TIP3   OH276422   1.110   1.473  11.336  0.1468  0.0297 -0.4638
18336TIP3    H176423   1.188   1.451  11.284 -0.4562 -1.1502 -0.8912
18336TIP3    H276424   1.092   1.394  11.386 -1.6943 -0.2565 -1.5299
18337TIP3   OH276425   1.903   5.663   0.352 -0.0325 -0.6529  0.3471
18337TIP3    H176426   1.887   5.586   0.407  1.1943 -0.2788  1.2538
18337TIP3    H276427   1.868   5.737   0.403  0.2137 -0.4193  0.1800
18338TIP3   OH276428   6.126   5.479  16.893  0.6516  0.1468 -1.0114
18338TIP3    H176429   6.163   5.482  16.981  1.5448 -0.4467 -1.3598
18338TIP3    H276430   6.151   5.393  16.859 -0.5409 -0.0178 -1.4758
18339TIP3   OH276431   6.030   0.572  16.905  0.6078  0.1102  0.1317
18339TIP3    H176432   6.044   0.665  16.885 -1.0055  0.1641 -0.8968
18339TIP3    H276433   6.085   0.526  16.842  1.2035  0.3710  0.4600
18340TIP3   OH276434   3.240   6.741  16.139 -0.5451 -0.1439  0.3932
18340TIP3    H176435   3.176   6.744  16.067 -0.8761 -1.3209  0.6390
18340TIP3    H276436   3.316   6.696  16.102 -0.1817  0.4811  0.3700
18341TIP3   OH276437   0.105   3.770   4.729  0.8444  0.6216  0.0874
18341TIP3    H176438   0.105   3.783   4.823 -2.7698 -3.8988  0.8931
18341TIP3    H276439   0.195   3.748   4.707  0.9786 -2.1839  3.1934
18342TIP3   OH276440   2.608   3.191  12.018 -0.2807 -0.1448  0.3479
18342TIP3    H176441   2.536   3.242  11.981  0.5912  0.6768 -0.2388
18342TIP3    H276442   2.667   3.175  11.944  0.0850 -0.9195  0.7959
18343TIP3   OH276443   3.607   2.902  15.463  0.1231  0.0010  0.5736
18343TIP3    H176444   3.516   2.902  15.494 -0.2395 -2.0676 -0.4232
18343TIP3    H276445   3.659   2.899  15.543 -0.7138 -0.2697  1.1192
18344TIP3   OH276446   6.508   0.038  16.595 -0.3295  0.3092 -0.3630
18344TIP3    H176447   6.572  -0.027  16.624 -1.1283 -0.0795  0.5425
18344TIP3    H276448   6.445  -0.011  16.542  0.1502  0.7053 -1.3275
18345TIP3   OH276449   1.296   5.613  16.049 -0.2559  0.4051 -0.0558
18345TIP3    H176450   1.371   5.633  16.104 -0.6335 -0.1611  0.6800
18345TIP3    H276451   1.244   5.552  16.102 -1.1939  0.7392 -0.5831
18346TIP3   OH276452   3.622   0.354  16.379  0.0362  0.6603 -0.4788
18346TIP3    H176453   3.712   0.355  16.347 -0.0910 -0.3251 -0.8810
18346TIP3    H276454   3.569   0.335  16.301 -0.2965 -1.5193  0.2598
18347TIP3   OH276455   0.227   2.505  12.330  0.3973 -0.0002  0.0866
18347TIP3    H176456   0.262   2.421  12.299 -0.0939 -0.0579 -0.3244
18347TIP3    H276457   0.188   2.486  12.415 -1.5875 -0.6552 -0.9251
18348TIP3   OH276458   2.088   1.106   0.327 -0.3623  0.1291 -0.5499
18348TIP3    H176459   2.141   1.037   0.369 -0.4274 -0.6415 -1.7119
18348TIP3    H276460   2.099   1.091   0.234 -0.0399  1.9749 -0.8319
18349TIP3   OH276461   2.279   5.756   5.896  0.1282 -0.0906 -0.0354
18349TIP3    H176462   2.305   5.846   5.880 -0.5856  0.3600  1.2177
18349TIP3    H276463   2.187   5.752   5.869 -0.0397 -0.2506  0.5414
18350TIP3   OH276464   4.034   1.445   5.696 -0.4769 -0.6340 -0.7344
18350TIP3    H176465   4.067   1.529   5.727  0.5985 -0.8442 -1.2903
18350TIP3    H276466   3.977   1.467   5.623  1.0783 -0.4971 -1.9095
18351TIP3   OH276467   0.843   4.439  16.031 -0.9505  0.0818  0.7201
18351TIP3    H176468   0.919   4.470  16.081 -0.4460  0.2392 -0.1333
18351TIP3    H276469   0.822   4.354  16.069 -1.2253  0.6562  1.8957
18352TIP3   OH276470   3.491   5.221  12.681  0.0788 -0.3740  0.1490
18352TIP3    H176471   3.483   5.135  12.639  2.9364 -0.2111 -0.8667
18352TIP3    H276472   3.434   5.278  12.629 -1.7150 -1.6149  0.7336
18353TIP3   OH276473   5.077   0.249  13.015 -0.5040  0.4103  0.1062
18353TIP3    H176474   5.134   0.210  13.081 -1.4356 -2.0595 -0.4750
18353TIP3    H276475   5.000   0.278  13.065 -0.6097 -0.1821  0.2855
18354TIP3   OH276476   0.430   0.090  13.534 -0.5986 -0.0038  0.5843
18354TIP3    H176477   0.446   0.089  13.439 -0.9766 -0.0646  0.5187
18354TIP3    H276478   0.513   0.118  13.572  0.2103 -2.0163  0.3580
18355TIP3   OH276479   2.003   6.659  11.575  0.0401 -0.5233 -0.1860
18355TIP3    H176480   1.951   6.579  11.582 -0.6006 -0.1651 -0.8266
18355TIP3    H276481   1.942   6.729  11.595  0.6463 -0.1986  0.5544
18356TIP3   OH276482   4.018   2.891  11.439  0.7348 -0.1334  0.0725
18356TIP3    H176483   4.083   2.937  11.492  0.7224  0.2172 -0.2104
18356TIP3    H276484   3.991   2.817  11.493  0.9444  0.0473  0.4303
18357TIP3   OH276485   1.306   5.118   4.242  0.5980  0.4434 -0.5198
18357TIP3    H176486   1.245   5.190   4.261  1.4894  1.2291 -0.6154
18357TIP3    H276487   1.288   5.095   4.151  1.8308  2.0387 -1.1840
18358TIP3   OH276488   2.123   2.596   6.273 -0.1154 -0.1538 -0.1021
18358TIP3    H176489   2.111   2.552   6.357 -0.4138  0.3711  0.1389
18358TIP3    H276490   2.171   2.676   6.295  1.1534 -0.7568 -0.6451
18359TIP3   OH276491   0.803   2.856   3.813 -0.1015  0.6816  0.0702
18359TIP3    H176492   0.871   2.790   3.824  1.0033  1.8776  0.6644
18359TIP3    H276493   0.767   2.868   3.901 -0.8181  0.3275 -0.1721
18360TIP3   OH276494   3.399   5.502  11.955  0.4106 -0.2835 -0.2940
18360TIP3    H176495   3.360   5.580  11.915 -0.2841  0.8625  2.5061
18360TIP3    H276496   3.493   5.511  11.938  0.3438  1.2068  0.0834
18361TIP3   OH276497   4.491   5.535   6.539  0.0279 -0.0789  0.0645
18361TIP3    H176498   4.576   5.507   6.572  0.3644  0.0889 -0.6571
18361TIP3    H276499   4.469   5.611   6.593  1.6114  1.5715 -1.5526
18362TIP3   OH276500   2.247   0.641   3.861 -0.1111  0.3561 -0.4669
18362TIP3    H176501   2.215   0.644   3.951  0.3146  1.3387 -0.3505
18362TIP3    H276502   2.338   0.612   3.868 -0.6227 -1.4290 -0.7302
18363TIP3   OH276503   6.465   3.091   2.250  0.2579  0.2043 -0.0669
18363TIP3    H176504   6.456   3.094   2.155 -0.7817  1.0261  0.0520
18363TIP3    H276505   6.378   3.112   2.283  1.0950  2.0050  1.0821
18364TIP3   OH276506   6.646   5.483   3.771 -0.7518  0.2607  0.4551
18364TIP3    H176507   6.642   5.578   3.756 -0.9899  0.1149 -0.4821
18364TIP3    H276508   6.740   5.462   3.766 -0.8340  0.1871 -1.1630
18365TIP3   OH276509   0.715   1.420  10.728 -0.0735  0.3365  0.0199
18365TIP3    H176510   0.668   1.477  10.668 -0.9942  0.4351  0.8197
18365TIP3    H276511   0.727   1.472  10.808 -1.1784 -0.6645  0.8583
18366TIP3   OH276512   6.184   5.344   2.850  0.4339  0.7018 -0.2988
18366TIP3    H176513   6.145   5.260   2.824 -1.0006  1.0878  0.5107
18366TIP3    H276514   6.112   5.407   2.842  1.1487  1.6187  0.3422
18367TIP3   OH276515   3.786   0.321   4.281  0.1606 -0.1542 -0.8609
18367TIP3    H176516   3.714   0.286   4.229  0.9698 -2.3320 -0.5690
18367TIP3    H276517   3.767   0.292   4.371  0.1191  1.3718 -0.3614
18368TIP3   OH276518   6.597   1.150   1.136 -0.4207 -0.2971  0.0735
18368TIP3    H176519   6.595   1.075   1.196 -0.0244  0.3813  0.9384
18368TIP3    H276520   6.664   1.208   1.173  1.8849 -1.1685 -2.5602
18369TIP3   OH276521   1.265   4.788   0.780 -0.3540  0.7218  0.2850
18369TIP3    H176522   1.255   4.788   0.876 -1.1213 -0.8380  0.2345
18369TIP3    H276523   1.177   4.768   0.747  0.1513  0.0853 -0.7006
18370TIP3   OH276524   3.217   0.440   4.822 -0.4004 -0.5986  0.8924
18370TIP3    H176525   3.248   0.401   4.740 -0.3501  1.2315  0.0114
18370TIP3    H276526   3.283   0.416   4.887  0.0028 -1.3481  0.2008
18371TIP3   OH276527   1.013   6.216   5.602  0.3265  0.1137 -0.1004
18371TIP3    H176528   0.932   6.242   5.645  0.8501  0.6437  0.5894
18371TIP3    H276529   1.058   6.299   5.584  0.1616 -0.1003 -1.5932
18372TIP3   OH276530   1.746   6.158   1.846  0.4930 -0.2511  0.0072
18372TIP3    H176531   1.824   6.116   1.883 -0.1811  0.1345  1.9578
18372TIP3    H276532   1.762   6.160   1.752  1.5861 -2.7012  0.1112
18373TIP3   OH276533   5.740   4.429  10.597 -0.7175  0.4771  0.1118
18373TIP3    H176534   5.816   4.403  10.649  0.4759  1.6220 -1.0217
18373TIP3    H276535   5.694   4.347  10.579  1.3920 -0.5017 -0.9717
18374TIP3   OH276536   5.312   6.079   1.555 -0.6167 -0.0184 -0.0882
18374TIP3    H176537   5.328   6.045   1.643  1.0984  1.1761  0.1037
18374TIP3    H276538   5.391   6.056   1.506 -0.8517  0.7571 -0.8449
18375TIP3   OH276539   5.414   4.688  15.955 -0.9910  0.2798  0.0049
18375TIP3    H176540   5.406   4.684  15.860 -1.6746 -0.3758  0.0902
18375TIP3    H276541   5.466   4.611  15.978  0.3237  1.1621  0.0417
18376TIP3   OH276542   0.855   5.708  16.960  0.9797  0.3187 -0.0099
18376TIP3    H176543   0.782   5.749  17.007  2.2936  0.7322  1.7258
18376TIP3    H276544   0.830   5.616  16.951 -0.0608  0.6008 -0.0583
18377TIP3   OH276545   5.157   3.589  17.140  0.5759 -0.5799 -0.1847
18377TIP3    H176546   5.075   3.634  17.120  0.4146 -0.6452  0.3359
18377TIP3    H276547   5.155   3.575  17.234  1.9489  0.8899  0.0774
18378TIP3   OH276548   0.707   4.796   0.291  0.2845 -0.1144 -0.3214
18378TIP3    H176549   0.669   4.823   0.374  0.8789 -0.2210 -0.0064
18378TIP3    H276550   0.704   4.700   0.293  1.7347 -0.1559  0.2693
18379TIP3   OH276551   2.584   2.262  13.295 -0.0601 -0.2337 -0.6940
18379TIP3    H176552   2.595   2.332  13.231 -1.6517 -0.0140 -0.7554
18379TIP3    H276553   2.534   2.195  13.249  0.3402 -0.8575 -0.2295
18380TIP3   OH276554   1.642   2.455  13.872 -0.6542  0.2037  0.1821
18380TIP3    H176555   1.728   2.464  13.912 -1.2215 -0.8368  1.6403
18380TIP3    H276556   1.591   2.528  13.908 -0.2630  1.1197 -1.0660
18381TIP3   OH276557   2.673   4.842   3.865  0.3917 -0.2439 -0.3493
18381TIP3    H176558   2.648   4.752   3.889 -0.1128 -0.4338 -1.5671
18381TIP3    H276559   2.592   4.892   3.873  0.7357  0.1746  0.6088
18382TIP3   OH276560   4.245   3.379  10.525  0.1615  0.3911  1.0932
18382TIP3    H176561   4.172   3.366  10.464  0.0485 -0.4406  1.4064
18382TIP3    H276562   4.313   3.320  10.493  0.8167  1.3821  0.6258
18383TIP3   OH276563   4.496   2.873   4.784  0.7327  0.0740 -0.2099
18383TIP3    H176564   4.459   2.949   4.737 -1.4055  1.3187  3.2860
18383TIP3    H276565   4.572   2.908   4.829 -1.8541  1.0207  3.7115
18384TIP3   OH276566   6.102   0.601  12.621 -0.2613 -0.0695  0.4354
18384TIP3    H176567   6.052   0.572  12.697 -1.8308  0.6381 -0.2968
18384TIP3    H276568   6.119   0.521  12.571  1.4576 -0.6435  1.9001
18385TIP3   OH276569   2.652   4.281  10.975 -0.3625 -0.0811  0.0901
18385TIP3    H176570   2.663   4.357  10.917  0.8360 -0.9625 -0.8506
18385TIP3    H276571   2.655   4.206  10.916 -1.5566 -0.8625  1.0260
18386TIP3   OH276572   4.259   3.329  14.619 -0.4446 -0.1398 -0.0983
18386TIP3    H176573   4.214   3.313  14.702 -1.0240  2.4329  0.1298
18386TIP3    H276574   4.192   3.313  14.552 -0.8464  0.7389  0.0897
18387TIP3   OH276575   3.482   2.613   4.578 -0.1433  0.1008  0.3630
18387TIP3    H176576   3.539   2.665   4.523 -0.1097 -1.0989 -0.7589
18387TIP3    H276577   3.424   2.677   4.620 -0.3943  1.0126 -1.3275
18388TIP3   OH276578   2.068   1.361  14.959 -0.1140 -0.0290 -0.2146
18388TIP3    H176579   2.135   1.293  14.968  0.6653  0.4334 -2.1236
18388TIP3    H276580   1.999   1.320  14.908 -0.0116  0.3394 -0.6584
18389TIP3   OH276581   5.009   3.373   3.050  0.2321 -0.4120 -0.3034
18389TIP3    H176582   5.021   3.289   3.006  0.4491 -0.0592 -0.9132
18389TIP3    H276583   5.090   3.387   3.098 -0.1151 -0.9360  0.4644
18390TIP3   OH276584   1.781   3.590  15.837  0.4973  0.5232  0.2729
18390TIP3    H176585   1.814   3.665  15.788 -1.3577  2.3143  1.6807
18390TIP3    H276586   1.689   3.611  15.854  0.3619 -1.3600  2.0392
18391TIP3   OH276587   0.466   5.115  14.622 -0.0574 -0.2336 -0.2413
18391TIP3    H176588   0.462   5.203  14.585 -0.8067 -0.0055  0.3639
18391TIP3    H276589   0.510   5.126  14.706 -1.1997 -0.2411  0.3712
18392TIP3   OH276590   2.849   4.199  12.429  0.4128 -0.2738 -0.6314
18392TIP3    H176591   2.923   4.257  12.412  1.1744 -0.8826  0.5535
18392TIP3    H276592   2.872   4.118  12.383  0.2037 -0.2584 -0.7631
18393TIP3   OH276593   3.175   6.327   6.235 -0.4355  0.2980  0.5317
18393TIP3    H176594   3.092   6.310   6.279 -1.6635  0.7927 -1.5444
18393TIP3    H276595   3.187   6.421   6.240 -1.4861  0.5830 -1.7168
18394TIP3   OH276596   2.982   0.866   5.358 -0.4799 -0.1681  0.0854
18394TIP3    H176597   2.977   0.771   5.349 -1.9091 -0.0882 -0.0427
18394TIP3    H276598   2.895   0.897   5.334 -0.1855  1.1358  0.6573
18395TIP3   OH276599   4.143   5.113  15.948 -0.0518 -0.2535  0.6411
18395TIP3    H176600   4.218   5.055  15.961  2.0033  2.1806  0.0680
18395TIP3    H276601   4.074   5.056  15.912  1.7732 -2.3709  0.3939
18396TIP3   OH276602   6.673   6.289   0.436  0.0491  0.2237  0.1741
18396TIP3    H176603   6.705   6.360   0.493 -0.3772  0.2549  0.3792
18396TIP3    H276604   6.715   6.210   0.471  1.0396  0.4551 -0.4564
18397TIP3   OH276605   1.080   5.023  14.697 -0.1606  0.2865  0.0864
18397TIP3    H176606   1.109   4.946  14.746  1.6869  1.1152  0.3756
18397TIP3    H276607   1.110   5.008  14.608 -1.7480 -0.3106 -0.3593
18398TIP3   OH276608   6.686   3.078  12.187  0.5230  1.0655  0.4999
18398TIP3    H176609   6.681   3.116  12.274  0.0158  2.0325  0.0616
18398TIP3    H276610   6.778   3.084  12.163  0.4808  1.8333  0.5199
18399TIP3   OH276611   2.149   4.913  15.757  0.7253 -0.0947  0.0733
18399TIP3    H176612   2.107   4.855  15.694 -0.1577  0.1527  0.4349
18399TIP3    H276613   2.089   4.988  15.765  0.4855 -0.4580  1.7362
18400TIP3   OH276614   3.846   6.009   5.259  0.5659  0.2454  0.1274
18400TIP3    H176615   3.819   5.921   5.232  0.6688  0.8763 -2.1504
18400TIP3    H276616   3.795   6.027   5.337 -0.4208 -1.3429 -0.1337
18401TIP3   OH276617   1.457   2.835   0.916 -0.0116  0.6008 -0.8462
18401TIP3    H176618   1.484   2.757   0.866  1.7024 -0.1800  1.2258
18401TIP3    H276619   1.410   2.800   0.991  2.3791  1.4148  1.0920
18402TIP3   OH276620   0.459   3.774   0.008  0.0089  0.4076 -0.1418
18402TIP3    H176621   0.454   3.850   0.066 -1.0552  0.4290 -0.2539
18402TIP3    H276622   0.386   3.785  -0.052 -0.1843 -0.7325 -0.1268
18403TIP3   OH276623   1.410   0.684   2.740 -0.2068 -0.3232  0.1564
18403TIP3    H176624   1.375   0.715   2.823  0.4637 -0.6161  0.5476
18403TIP3    H276625   1.414   0.588   2.750  1.0140 -0.2626  0.2308
18404TIP3   OH276626   6.107   2.004  11.341 -0.1320  0.6972 -0.1185
18404TIP3    H176627   6.146   2.036  11.260  0.0720  0.8191  0.0248
18404TIP3    H276628   6.014   1.994  11.321 -0.5658  3.2839  0.3972
18405TIP3   OH276629   0.303   1.226   2.575  0.0102 -0.1702  0.4106
18405TIP3    H176630   0.348   1.310   2.572  1.2459 -0.7828  1.2183
18405TIP3    H276631   0.218   1.246   2.614  0.6851  0.5498  1.5601
18406TIP3   OH276632   3.323   1.113  12.205  0.2768  0.4743  0.0948
18406TIP3    H176633   3.305   1.058  12.129  0.4586  1.5245 -0.7086
18406TIP3    H276634   3.246   1.100  12.261  1.2591 -2.2537  0.9349
18407TIP3   OH276635   4.712   5.115  13.727 -0.0313 -0.1874  0.1507
18407TIP3    H176636   4.703   5.056  13.653 -0.3096  0.8847 -0.6689
18407TIP3    H276637   4.693   5.060  13.804 -0.8388 -1.0160 -0.6371
18408TIP3   OH276638   2.464   5.518  12.348 -0.0073 -0.0150 -0.4688
18408TIP3    H176639   2.373   5.521  12.319 -0.4299  1.8448  0.9707
18408TIP3    H276640   2.486   5.609  12.368  2.1527 -0.4520 -0.7397
18409TIP3   OH276641   1.768   5.588   0.110  0.1252  0.1143  0.3900
18409TIP3    H176642   1.795   5.562   0.198  1.8596 -1.3521 -0.5319
18409TIP3    H276643   1.834   5.652   0.083 -0.4631  0.6383  0.1945
18410TIP3   OH276644   0.025   4.706  10.654  0.0339 -0.6322 -0.1477
18410TIP3    H176645  -0.004   4.655  10.578 -0.6406  0.4382 -0.6314
18410TIP3    H276646   0.065   4.784  10.616  0.0229 -0.2658  0.5971
18411TIP3   OH276647   6.298   1.005   1.977 -0.0855  0.6372 -0.0714
18411TIP3    H176648   6.294   1.022   1.883  0.9308  2.6671  0.2155
18411TIP3    H276649   6.391   0.988   1.994  0.0474  2.2567  0.8651
18412TIP3   OH276650   0.818   6.765  15.480  0.2283 -0.5215  0.5690
18412TIP3    H176651   0.768   6.688  15.454 -0.3920 -0.6599  2.0960
18412TIP3    H276652   0.769   6.801  15.555  0.8800  0.9546  0.3005
18413TIP3   OH276653   5.026   3.483  12.015  0.0750  0.2257  0.5719
18413TIP3    H176654   5.011   3.500  12.108 -1.1303  2.4138  0.0120
18413TIP3    H276655   5.059   3.393  12.012 -2.4734 -0.8558  2.8855
18414TIP3   OH276656   0.378   5.209   5.571  0.0033  0.0079 -0.3417
18414TIP3    H176657   0.390   5.216   5.477  1.9968 -2.7528 -0.3612
18414TIP3    H276658   0.421   5.286   5.607  1.2896 -0.1362 -1.5545
18415TIP3   OH276659   3.954   4.132   0.023  0.3132 -0.3324 -0.4911
18415TIP3    H176660   4.036   4.163  -0.016 -1.1713  1.1875 -2.4642
18415TIP3    H276661   3.915   4.209   0.063 -0.5419 -0.8884 -0.2356
18416TIP3   OH276662   3.123   1.905  15.935 -0.4722  0.2305  0.1605
18416TIP3    H176663   3.080   1.943  15.858  2.8088  3.1638 -0.3492
18416TIP3    H276664   3.063   1.923  16.007 -0.6631  3.2566 -0.6821
18417TIP3   OH276665   1.722   0.748  12.018 -0.2765 -0.3569  0.8843
18417TIP3    H176666   1.642   0.795  12.038 -1.3966 -2.5711  1.8337
18417TIP3    H276667   1.767   0.802  11.953 -2.0510  1.3988  1.0904
18418TIP3   OH276668   0.522   4.085  13.040 -0.5058 -0.7435  0.1927
18418TIP3    H176669   0.468   4.029  12.985 -0.9206 -0.3104  0.1585
18418TIP3    H276670   0.534   4.165  12.990  0.0004 -0.7564  0.2869
18419TIP3   OH276671   3.672   2.395  15.923 -0.2139 -0.3290  0.4794
18419TIP3    H176672   3.675   2.331  15.994 -1.1148 -2.5088 -1.4156
18419TIP3    H276673   3.681   2.344  15.843 -1.1533  1.8839 -1.1064
18420TIP3   OH276674   0.187   2.063   0.832 -0.7771 -0.8553  0.2730
18420TIP3    H176675   0.168   2.140   0.885  0.0494  1.4289 -2.5816
18420TIP3    H276676   0.199   1.992   0.895  0.6348  1.7957  3.1173
18421TIP3   OH276677   3.208   2.796  12.825 -0.5422  0.3142 -0.0850
18421TIP3    H176678   3.216   2.743  12.745  0.8815  0.1965  0.1151
18421TIP3    H276679   3.114   2.812  12.833 -0.9226 -1.4092 -0.6611
18422TIP3   OH276680   5.331   1.923  10.420  0.0241 -0.1267 -0.3938
18422TIP3    H176681   5.335   1.847  10.478 -1.4384 -0.8958 -1.2639
18422TIP3    H276682   5.250   1.967  10.444  0.4609  0.7049 -0.4410
18423TIP3   OH276683   1.066   2.021   6.000 -0.0747 -0.1492  0.2148
18423TIP3    H176684   1.023   1.994   6.081 -0.3522 -1.8267 -0.4521
18423TIP3    H276685   1.125   1.948   5.980 -0.1043  0.1932 -1.1413
18424TIP3   OH276686   0.905   1.152   0.228  0.1920  0.1312  0.0142
18424TIP3    H176687   0.960   1.184   0.300 -1.8660  0.8556  1.3043
18424TIP3    H276688   0.923   1.058   0.225  1.4741  0.3491  0.4428
18425TIP3   OH276689   5.398   1.287   0.860 -0.1074 -0.5733  0.1482
18425TIP3    H176690   5.377   1.195   0.872 -2.3974  0.0758  1.3110
18425TIP3    H276691   5.333   1.334   0.913  2.0373  1.6443  0.9111
18426TIP3   OH276692   5.850   4.111   1.427 -0.4394 -0.4445 -0.4136
18426TIP3    H176693   5.782   4.044   1.441 -0.3271 -0.5773 -0.5068
18426TIP3    H276694   5.924   4.082   1.479 -0.4243 -0.3387 -0.3755
18427TIP3   OH276695   2.948   1.124  15.524  0.1405  0.0512  0.2217
18427TIP3    H176696   3.014   1.194  15.526  1.6909 -1.3698  0.0580
18427TIP3    H276697   2.999   1.043  15.527 -1.6880 -1.0756  1.8737
18428TIP3   OH276698   6.272   3.253   4.771  0.1279  0.1049  0.6760
18428TIP3    H176699   6.264   3.201   4.691 -1.2255 -0.3570  1.0827
18428TIP3    H276700   6.278   3.344   4.741 -2.0657  0.0838  0.0744
18429TIP3   OH276701   0.981   4.258  10.898  0.1902 -0.0994 -0.0454
18429TIP3    H176702   1.049   4.291  10.839  1.5198  0.2625  1.6520
18429TIP3    H276703   1.028   4.235  10.978 -1.5641 -0.7243  0.8240
18430TIP3   OH276704   0.037   5.594  11.178 -0.4485 -0.8449 -0.0631
18430TIP3    H176705   0.090   5.634  11.247 -1.9354 -1.7177  1.6347
18430TIP3    H276706   0.100   5.544  11.126  0.7268 -0.0029  0.5300
18431TIP3   OH276707   5.929   2.618   2.898 -0.4303 -0.3444  0.2911
18431TIP3    H176708   6.022   2.641   2.895 -0.2375 -1.1693 -0.0994
18431TIP3    H276709   5.887   2.679   2.838  0.2860 -1.9831 -1.9146
18432TIP3   OH276710   4.285   0.318   3.486  0.5117  0.0191  0.0739
18432TIP3    H176711   4.267   0.244   3.428 -0.6135  0.0310  0.3826
18432TIP3    H276712   4.369   0.353   3.456  0.9912 -1.2948 -0.1600
18433TIP3   OH276713   3.288   6.248  16.377 -0.1459  0.0028  0.1761
18433TIP3    H176714   3.374   6.208  16.369 -0.0812  0.7881 -4.1930
18433TIP3    H276715   3.288   6.289  16.464  3.4549 -0.8811  0.6450
18434TIP3   OH276716   5.531   2.309   0.474 -0.3836 -0.0571 -0.4697
18434TIP3    H176717   5.449   2.263   0.457  0.3542 -1.2704 -0.7884
18434TIP3    H276718   5.537   2.312   0.570 -0.8325  0.1039 -0.4445
18435TIP3   OH276719   0.247   1.309  12.888  0.1675  0.0124 -0.3026
18435TIP3    H176720   0.198   1.375  12.938 -1.5933 -2.7905  1.7939
18435TIP3    H276721   0.319   1.285  12.946 -0.8370 -1.9432  0.1588
18436TIP3   OH276722   3.081   6.467  14.688  0.0835  0.0176 -1.2031
18436TIP3    H176723   3.083   6.526  14.763  1.3330 -0.8366 -0.5401
18436TIP3    H276724   3.014   6.504  14.629 -0.8545  0.7377  0.2865
18437TIP3   OH276725   0.953   3.933  12.088 -0.0675  0.3230  0.1187
18437TIP3    H176726   0.976   4.016  12.047 -0.2312  0.5648  0.5158
18437TIP3    H276727   0.894   3.957  12.160 -0.8439 -0.2143 -0.3321
18438TIP3   OH276728   5.337   3.760  10.739  0.6323  0.2206  0.0227
18438TIP3    H176729   5.251   3.801  10.747  0.9539  0.9036 -0.0310
18438TIP3    H276730   5.399   3.831  10.752  1.2018 -0.5000  1.2876
18439TIP3   OH276731   4.260   0.504  11.582 -0.4369  0.2008  0.5473
18439TIP3    H176732   4.252   0.409  11.567 -2.2757  0.2246  1.2765
18439TIP3    H276733   4.330   0.512  11.647 -1.9844 -0.8867  2.4370
18440TIP3   OH276734   2.489   6.003   1.103  0.3593  0.0910  0.4628
18440TIP3    H176735   2.565   6.022   1.050  1.7396 -1.4848  1.8194
18440TIP3    H276736   2.473   6.084   1.153  1.2709  0.3530  0.3275
18441TIP3   OH276737   1.538   1.914   0.520 -0.0912  0.5876 -0.1282
18441TIP3    H176738   1.538   2.010   0.514  2.5764  0.7220  1.5903
18441TIP3    H276739   1.588   1.885   0.444 -0.3371  0.5686 -0.2849
18442TIP3   OH276740   6.248   1.887   2.384  0.6507  0.2430 -0.1424
18442TIP3    H176741   6.320   1.919   2.439  0.2349  0.1296  0.4686
18442TIP3    H276742   6.173   1.883   2.442  0.7026 -1.8971 -0.1733
18443TIP3   OH276743   3.900   0.237   1.797  0.0452 -0.3473 -0.3418
18443TIP3    H176744   3.994   0.251   1.793  0.0563  0.0081  0.8887
18443TIP3    H276745   3.877   0.202   1.711  1.2780 -0.3341 -0.6853
18444TIP3   OH276746   2.076   4.780   2.527 -0.7946  0.5869 -0.2496
18444TIP3    H176747   2.048   4.871   2.528 -2.6963  0.0265 -0.3892
18444TIP3    H276748   2.007   4.733   2.573  1.8871 -0.3509  2.9957
18445TIP3   OH276749   1.388   6.021  15.971 -0.1913 -0.6706  0.5046
18445TIP3    H176750   1.428   6.011  16.057 -0.1261 -2.1045  0.3189
18445TIP3    H276751   1.462   6.036  15.912 -0.3306  1.4604  0.8605
18446TIP3   OH276752   6.618   3.129  13.583  0.8471 -0.0554  0.3689
18446TIP3    H176753   6.614   3.033  13.579 -1.6450  0.0499 -0.2189
18446TIP3    H276754   6.580   3.158  13.500 -2.7940  1.5139  2.4916
18447TIP3   OH276755   2.281   2.438  12.247 -0.1741 -0.1935 -0.2788
18447TIP3    H176756   2.236   2.362  12.283 -0.1247 -0.1455 -0.1142
18447TIP3    H276757   2.296   2.495  12.323  1.4030 -0.8415 -0.0793
18448TIP3   OH276758   5.893   1.012  14.048 -0.2183 -0.4171  0.4846
18448TIP3    H176759   5.834   1.078  14.013  0.2652  1.2356  2.6655
18448TIP3    H276760   5.964   1.007  13.985 -0.4169  0.9282  0.1520
18449TIP3   OH276761   4.147   1.490   2.853  0.0805 -0.2103 -0.1635
18449TIP3    H176762   4.115   1.510   2.765  1.1805  0.8002 -0.3461
18449TIP3    H276763   4.194   1.569   2.880 -1.6379  0.1008  1.9952
18450TIP3   OH276764   3.095   6.269   0.447 -0.2433 -0.2353 -0.1645
18450TIP3    H176765   3.054   6.342   0.493  0.2995  0.7895 -1.3018
18450TIP3    H276766   3.027   6.202   0.442 -0.0070 -0.8052  3.0939
18451TIP3   OH276767   2.665   6.160  16.880  0.1103  0.1082 -0.3759
18451TIP3    H176768   2.711   6.108  16.815 -1.3619 -1.5348 -0.1349
18451TIP3    H276769   2.714   6.145  16.961  1.0808  0.9997 -0.7825
18452TIP3   OH276770   1.466   2.428  14.991 -0.2785  0.9027 -0.5952
18452TIP3    H176771   1.541   2.457  14.938  0.5104 -0.8412 -0.4562
18452TIP3    H276772   1.389   2.463  14.944  0.6040  3.0684 -0.5050
18453TIP3   OH276773   4.795   5.153   0.940 -0.1308  0.6104 -0.7552
18453TIP3    H176774   4.774   5.063   0.917  0.5845  0.9255 -2.7451
18453TIP3    H276775   4.723   5.205   0.905 -1.0423  0.7524  1.2462
18454TIP3   OH276776   0.727   1.847  11.303  0.1981  0.3733 -0.1126
18454TIP3    H176777   0.632   1.860  11.305  0.3992  1.8721  1.8872
18454TIP3    H276778   0.744   1.803  11.220 -2.2700 -0.0922 -0.3979
18455TIP3   OH276779   5.426   2.832  15.111  0.4924 -0.3066 -0.7935
18455TIP3    H176780   5.494   2.783  15.065 -0.4699 -1.5140 -0.9467
18455TIP3    H276781   5.347   2.819  15.058 -0.2141 -0.2431  0.2381
18456TIP3   OH276782   5.629   0.472  16.520 -0.1261 -0.0255  0.0757
18456TIP3    H176783   5.683   0.543  16.483 -1.0455  0.5648 -0.1560
18456TIP3    H276784   5.539   0.501  16.505 -0.5054 -0.8995  0.6643
18457TIP3   OH276785   1.107   4.655  17.051  0.0640  0.0967 -0.4362
18457TIP3    H176786   1.174   4.623  17.110 -0.2004 -0.7127 -0.5702
18457TIP3    H276787   1.097   4.585  16.986 -0.0974  0.7022 -1.0696
18458TIP3   OH276788   2.453   5.161  14.538  0.3779  0.2172  0.5732
18458TIP3    H176789   2.434   5.151  14.445  0.3069 -0.2033  0.6299
18458TIP3    H276790   2.540   5.123  14.549 -0.2092 -1.0648  0.9254
18459TIP3   OH276791   6.176   5.907  15.545  0.2549  0.6215 -0.1176
18459TIP3    H176792   6.269   5.891  15.531  0.6148  1.5136  1.1678
18459TIP3    H276793   6.173   5.974  15.613 -1.3236  0.8724 -0.4107
18460TIP3   OH276794   6.294   3.591   0.435 -0.1196 -0.1358  0.5065
18460TIP3    H176795   6.256   3.561   0.517 -0.2481  0.7314  0.7638
18460TIP3    H276796   6.386   3.564   0.440 -0.3473 -0.9237  0.5168
18461TIP3   OH276797   2.339   2.944  13.316  0.5173  0.1763 -0.0983
18461TIP3    H176798   2.357   3.033  13.343 -0.3141  0.2760  0.1537
18461TIP3    H276799   2.391   2.931  13.237  0.5271  0.9355 -0.2131
18462TIP3   OH276800   2.364   3.166   2.741  0.4269  0.2556  0.2121
18462TIP3    H176801   2.275   3.132   2.733 -0.7434  2.5854  2.5383
18462TIP3    H276802   2.398   3.124   2.820  0.0342  2.2051  1.4250
18463TIP3   OH276803   2.087   0.774   0.935  0.0360  0.3151  0.9698
18463TIP3    H176804   2.163   0.826   0.907  1.4049 -0.9269  2.2648
18463TIP3    H276805   2.088   0.697   0.879 -1.2690  1.0791 -0.1222
18464TIP3   OH276806   0.433   1.033   2.142  0.0600 -0.2802  0.1738
18464TIP3    H176807   0.504   1.049   2.079  0.0822  0.1452  0.3048
18464TIP3    H276808   0.359   1.084   2.109  0.3894  0.7808  1.0517
18465TIP3   OH276809   0.893   2.183   2.209 -0.0009 -0.0680  0.2158
18465TIP3    H176810   0.966   2.228   2.252 -0.5825  0.9685  0.1384
18465TIP3    H276811   0.872   2.239   2.134 -0.3508 -0.7837 -0.2202
18466TIP3   OH276812   3.219   3.385  13.341 -0.3909 -0.2698 -0.0863
18466TIP3    H176813   3.253   3.299  13.319 -0.8779 -0.7108  0.8489
18466TIP3    H276814   3.165   3.410  13.266  0.1228 -0.5817 -0.5537
18467TIP3   OH276815   0.073   3.209  16.599  0.4282  0.1201  0.0401
18467TIP3    H176816   0.066   3.300  16.572  0.5067 -0.3284 -1.5137
18467TIP3    H276817   0.084   3.160  16.518  2.2348 -1.1020  0.9729
18468TIP3   OH276818   4.249   2.582   0.562 -0.1045  0.3562  1.1206
18468TIP3    H176819   4.213   2.556   0.477  1.6927  1.9059 -0.1608
18468TIP3    H276820   4.281   2.500   0.600  0.5561 -0.1394 -0.4369
18469TIP3   OH276821   0.722   3.476   4.884  0.4432 -0.2374 -0.3368
18469TIP3    H176822   0.635   3.470   4.846  0.3586 -0.9647 -0.0469
18469TIP3    H276823   0.715   3.428   4.967  0.4063  1.9866  0.9977
18470TIP3   OH276824   0.438   0.183   2.449 -0.0916  0.6480 -0.5227
18470TIP3    H176825   0.344   0.180   2.431 -0.7174 -0.0736  2.4471
18470TIP3    H276826   0.478   0.130   2.380 -1.8278  1.1809 -1.9654
18471TIP3   OH276827   6.357   6.676   2.651 -0.4966  0.1720 -0.0481
18471TIP3    H176828   6.377   6.769   2.667 -0.1270  0.1764 -0.5269
18471TIP3    H276829   6.440   6.631   2.670 -0.7966 -0.1114  0.6162
18472TIP3   OH276830   2.670   2.936   3.421 -0.4366  0.6115 -0.2103
18472TIP3    H176831   2.679   2.931   3.517 -1.0939  1.1847 -0.1154
18472TIP3    H276832   2.576   2.927   3.406 -0.0393 -2.9938 -1.0325
18473TIP3   OH276833   3.463   5.824   3.379 -0.1839  0.1830 -0.6035
18473TIP3    H176834   3.546   5.844   3.421  0.0798  1.7550 -1.8271
18473TIP3    H276835   3.484   5.820   3.285 -1.9112  3.0014 -1.1631
18474TIP3   OH276836   4.937   6.012  12.454  0.0947 -0.2609  0.6415
18474TIP3    H176837   4.865   5.950  12.469  0.7333 -1.5645 -1.5451
18474TIP3    H276838   5.014   5.969  12.493  0.1867 -0.0295  0.7122
18475TIP3   OH276839   6.759   5.170   2.631 -0.2971 -0.0407  0.7622
18475TIP3    H176840   6.753   5.247   2.575 -1.9165 -0.2003  0.6829
18475TIP3    H276841   6.679   5.120   2.611 -0.1142 -0.8751  2.0732
18476TIP3   OH276842   0.359   5.645   5.295  0.0553  0.4779  0.5787
18476TIP3    H176843   0.446   5.649   5.254  0.7260 -0.2393  1.8911
18476TIP3    H276844   0.377   5.640   5.389 -1.4210  0.4233  0.8757
18477TIP3   OH276845   5.740   2.559   0.188  0.4839 -0.3867  0.2434
18477TIP3    H176846   5.807   2.550   0.121  1.4849  1.4799  0.9757
18477TIP3    H276847   5.741   2.474   0.233  1.1205 -0.9885 -0.8746
18478TIP3   OH276848   0.176   1.858   0.312 -0.0596 -0.3772 -0.2981
18478TIP3    H176849   0.235   1.792   0.348 -0.9660 -0.5939  0.8156
18478TIP3    H276850   0.093   1.812   0.299 -0.7210  0.5445  0.5593
18479TIP3   OH276851   4.814   1.921  13.548 -0.4543  0.2211 -0.3716
18479TIP3    H176852   4.813   1.972  13.629  0.1013 -0.8489  0.3131
18479TIP3    H276853   4.878   1.966  13.493 -1.6489  1.6186 -0.6792
18480TIP3   OH276854   6.481   0.053   4.137  0.1170 -0.3046  0.1091
18480TIP3    H176855   6.486   0.144   4.106  1.0621 -1.1016 -2.2061
18480TIP3    H276856   6.415   0.013   4.080  0.3532 -1.2819  0.5197
18481TIP3   OH276857   4.068   3.493   2.298 -0.0289 -0.7398  0.6512
18481TIP3    H176858   4.151   3.533   2.325 -0.1409  0.9581 -1.3670
18481TIP3    H276859   4.006   3.517   2.365  0.6579 -0.2796  1.1296
18482TIP3   OH276860   5.666   5.693  14.101 -0.1047 -0.1951  0.4485
18482TIP3    H176861   5.728   5.622  14.116  1.1695  0.2923 -2.2065
18482TIP3    H276862   5.584   5.649  14.079  0.1494 -0.8536  0.8245
18483TIP3   OH276863   4.082   5.108   1.472  0.4924  0.3152 -0.4919
18483TIP3    H176864   4.035   5.178   1.426 -0.5539 -0.4458 -0.5887
18483TIP3    H276865   4.050   5.113   1.562  0.5546  0.0716 -0.4571
18484TIP3   OH276866   3.232   1.951   5.083 -0.4374  0.5226 -0.0454
18484TIP3    H176867   3.219   2.045   5.067 -0.0027  1.1114  2.7142
18484TIP3    H276868   3.146   1.918   5.106 -0.3221  0.5963  0.5107
18485TIP3   OH276869   4.320   4.495   3.418  0.0839 -0.4967 -0.4759
18485TIP3    H176870   4.389   4.553   3.451 -1.2407  0.7673  0.1263
18485TIP3    H276871   4.257   4.490   3.489 -1.5236  0.1452 -1.8274
18486TIP3   OH276872   2.371   2.196   5.627  0.4615 -0.0950  0.1598
18486TIP3    H176873   2.415   2.262   5.574 -1.9938  0.6246 -1.0181
18486TIP3    H276874   2.427   2.119   5.619  0.6304  0.2652 -2.7510
18487TIP3   OH276875   4.376   3.569   4.401 -0.0345  0.0469 -0.1522
18487TIP3    H176876   4.440   3.503   4.429 -1.0297 -0.7940  0.1692
18487TIP3    H276877   4.358   3.546   4.309 -2.5834 -1.9572  0.8025
18488TIP3   OH276878   0.512   1.251  12.247 -0.1029 -0.6024  0.1541
18488TIP3    H176879   0.607   1.255  12.252 -0.0061 -1.8674 -0.6753
18488TIP3    H276880   0.482   1.325  12.301  1.3432  0.1229 -0.0255
18489TIP3   OH276881   4.589   0.168   0.929  0.2788  0.2136 -0.0998
18489TIP3    H176882   4.589   0.103   0.859  0.0269  0.9994 -0.8240
18489TIP3    H276883   4.510   0.148   0.980 -0.1439  0.3731 -0.6998
18490TIP3   OH276884   0.217   3.878  15.405  0.6939  0.3564  0.2551
18490TIP3    H176885   0.262   3.962  15.416 -0.0886  0.7248  0.7009
18490TIP3    H276886   0.149   3.896  15.339  0.2573  0.1905  0.6557
18491TIP3   OH276887   3.472   0.246  16.175  0.1836  0.6298 -0.1652
18491TIP3    H176888   3.498   0.187  16.104 -0.6845  0.7495 -0.5869
18491TIP3    H276889   3.472   0.333  16.135  0.5660  0.8047  0.2159
18492TIP3   OH276890   5.903   5.878  10.308 -0.0172  0.1589  0.6128
18492TIP3    H176891   5.831   5.817  10.324 -1.8338  2.4117  1.3071
18492TIP3    H276892   5.920   5.873  10.214 -0.5540 -0.9602  0.5763
18493TIP3   OH276893   1.295   1.012   1.213  0.1007 -0.3489  0.0430
18493TIP3    H176894   1.304   0.953   1.288 -0.9187 -1.1950 -0.4989
18493TIP3    H276895   1.201   1.024   1.202  0.2706  0.6533 -0.4290
18494TIP3   OH276896   3.610   3.341  11.025  0.3308  0.4301  0.1462
18494TIP3    H176897   3.599   3.271  11.090  0.2742  2.2398  2.1599
18494TIP3    H276898   3.703   3.364  11.029  0.0104  1.6882  0.8422
18495TIP3   OH276899   4.925   5.677   2.691 -0.0853  0.7580 -0.8997
18495TIP3    H176900   4.840   5.639   2.669  1.0320 -1.9264 -0.8098
18495TIP3    H276901   4.988   5.623   2.643  1.6136  2.4249 -0.6137
18496TIP3   OH276902   1.417   4.645   5.803 -0.2985 -0.3145  0.4060
18496TIP3    H176903   1.392   4.653   5.711 -0.3361 -1.7684  0.2787
18496TIP3    H276904   1.512   4.656   5.803 -0.2042 -1.1188  0.0897
18497TIP3   OH276905   2.485   0.465  15.394 -0.0892  0.0127  0.2328
18497TIP3    H176906   2.392   0.442  15.391 -0.2433  0.3975  1.6275
18497TIP3    H276907   2.507   0.463  15.487  0.7449  2.1027  0.1135
18498TIP3   OH276908   0.951   2.548  11.486  0.6125  0.1199  0.1815
18498TIP3    H176909   0.921   2.634  11.514  1.8718  0.1066  1.6706
18498TIP3    H276910   0.888   2.520  11.420 -0.6957  1.5100  0.8238
18499TIP3   OH276911   2.137   6.494  11.838 -0.4187 -0.2947 -0.5795
18499TIP3    H176912   2.165   6.556  11.771 -0.9000  1.1197  0.4955
18499TIP3    H276913   2.056   6.456  11.804 -1.1449  1.0772 -0.4146
18500TIP3   OH276914   1.001   2.577   4.983  0.0676  0.0083  0.1008
18500TIP3    H176915   0.905   2.582   4.983  0.1109  1.4102  1.6898
18500TIP3    H276916   1.020   2.489   4.952 -1.8025 -0.9733  1.6084
18501TIP3   OH276917   4.391   1.801  15.602 -0.0493 -0.1697  0.1666
18501TIP3    H176918   4.351   1.719  15.573 -3.0823  1.5104 -0.6059
18501TIP3    H276919   4.365   1.810  15.694 -1.9828  1.2151 -0.4986
18502TIP3   OH276920   2.105   4.242   3.086  0.0263  0.2875  0.0641
18502TIP3    H176921   2.121   4.244   2.992 -1.2651  0.7809 -0.1653
18502TIP3    H276922   2.013   4.269   3.095  0.6796  2.1843  1.5730
18503TIP3   OH276923   0.229   1.683  14.104  0.0242  0.3125  0.8573
18503TIP3    H176924   0.312   1.637  14.086 -0.5823  0.3240 -2.2911
18503TIP3    H276925   0.242   1.770  14.068 -2.0760 -0.3750 -1.7419
18504TIP3   OH276926   6.172   1.596  10.939  0.3514  0.0290 -0.0200
18504TIP3    H176927   6.167   1.672  10.880 -2.9529  1.2522  1.6804
18504TIP3    H276928   6.096   1.542  10.915  0.1869 -0.5119  1.6761
18505TIP3   OH276929   0.098   4.329   3.465 -0.0791 -0.7034 -0.2507
18505TIP3    H176930   0.070   4.386   3.394 -0.3919  0.8455  1.1058
18505TIP3    H276931   0.026   4.329   3.527  1.1372 -0.1288  1.2024
18506TIP3   OH276932   0.278   0.734  12.564 -0.1926  0.2879 -0.0566
18506TIP3    H176933   0.210   0.676  12.531 -0.9177  0.6143  0.8359
18506TIP3    H276934   0.246   0.822  12.543 -0.2272  0.4559  0.6919
18507TIP3   OH276935   3.895   1.607  15.706  0.5994  0.1144 -0.1501
18507TIP3    H176936   3.888   1.693  15.747  0.9442 -0.2700  0.7115
18507TIP3    H276937   3.981   1.575  15.732 -0.0063 -0.9997  0.4829
18508TIP3   OH276938   0.354   4.697   2.907  0.0639  0.3174  0.3548
18508TIP3    H176939   0.425   4.754   2.937  0.3592 -0.1462  0.5267
18508TIP3    H276940   0.282   4.717   2.967  0.7815 -0.9026  1.6513
18509TIP3   OH276941   6.037   4.199   5.475 -0.3113  0.0684  0.0685
18509TIP3    H176942   5.957   4.241   5.445 -0.7325 -1.1697 -0.5792
18509TIP3    H276943   6.010   4.150   5.553  0.2503  1.2723  1.0325
18510TIP3   OH276944   2.552   6.132  11.254 -0.1051 -0.4093 -0.2497
18510TIP3    H176945   2.494   6.206  11.232 -0.5925  0.0480  2.2935
18510TIP3    H276946   2.589   6.104  11.171 -1.7779  1.1705 -1.5715
18511TIP3   OH276947   0.267   2.044   5.478  0.5275  0.5973 -0.1943
18511TIP3    H176948   0.222   1.994   5.410  0.9971 -0.2198  0.0896
18511TIP3    H276949   0.350   2.071   5.438  0.5751  0.5648 -0.1191
18512TIP3   OH276950   2.188   6.035  11.766 -0.1599 -0.5290  0.6007
18512TIP3    H176951   2.129   5.961  11.780 -0.9056 -0.4073 -1.5858
18512TIP3    H276952   2.145   6.086  11.697  1.6688  0.4839  0.1906
18513TIP3   OH276953   0.947   0.929  11.851  0.6576 -0.2110 -0.1691
18513TIP3    H176954   0.963   0.886  11.934 -1.3068  0.7397  0.7410
18513TIP3    H276955   0.877   0.992  11.869  0.0191 -0.1596 -2.5851
18514TIP3   OH276956   2.782   5.973   3.290 -0.2648 -0.3121  0.1266
18514TIP3    H176957   2.797   5.879   3.289 -0.9367 -0.4108 -1.1289
18514TIP3    H276958   2.749   5.993   3.203  3.6697  1.7065 -1.0245
18515TIP3   OH276959   2.979   2.526  13.796 -0.1611  0.1263 -0.7787
18515TIP3    H176960   2.997   2.526  13.890  2.2625  4.1493 -1.1162
18515TIP3    H276961   3.050   2.474  13.758  0.2234  0.4850 -0.5603
18516TIP3   OH276962   6.061   3.678  16.324  0.6089 -0.2234  0.0227
18516TIP3    H176963   6.145   3.634  16.317  0.9721  0.4804  0.0054
18516TIP3    H276964   6.065   3.726  16.406  0.0729 -0.5054  0.2191
18517TIP3   OH276965   4.813   0.685  12.071  0.0270 -0.4018 -0.2126
18517TIP3    H176966   4.904   0.697  12.044 -0.2078  1.2786 -0.3078
18517TIP3    H276967   4.763   0.742  12.013 -0.7060  1.5733  2.2772
18518TIP3   OH276968   2.767   6.613   3.503  0.1388 -0.1882  0.5335
18518TIP3    H176969   2.853   6.581   3.474  0.0423 -1.1555  1.2867
18518TIP3    H276970   2.705   6.559   3.454 -0.0482  0.4566  0.0509
18519TIP3   OH276971   0.330   1.621   5.041 -0.3707  0.6962  0.1568
18519TIP3    H176972   0.262   1.667   4.992 -0.7445 -1.6298 -1.6323
18519TIP3    H276973   0.315   1.528   5.020  1.5070 -0.0922  2.1161
18520TIP3   OH276974   2.423   2.508   0.546  0.0249 -0.5966  0.2884
18520TIP3    H176975   2.367   2.503   0.468  1.7595 -1.6626 -0.9346
18520TIP3    H276976   2.385   2.445   0.607 -1.1809  0.0281  0.1917
18521TIP3   OH276977   5.658   2.866  15.410 -0.0145 -0.5057  0.1335
18521TIP3    H176978   5.697   2.892  15.327 -3.2913  4.0768 -0.1446
18521TIP3    H276979   5.569   2.840  15.388 -0.8638  0.5783  2.1209
18522TIP3   OH276980   2.029   2.691   5.729  0.1795 -0.7000  0.4155
18522TIP3    H176981   1.965   2.736   5.674  1.4094  0.7989  0.1527
18522TIP3    H276982   2.012   2.598   5.715 -1.3707 -0.3282 -0.2976
18523TIP3   OH276983   1.437   0.917  16.990  0.0794 -0.3472  0.4568
18523TIP3    H176984   1.465   0.927  16.899 -0.0587 -0.8388  0.3575
18523TIP3    H276985   1.516   0.932  17.041  0.2059 -0.2852  0.2451
18524TIP3   OH276986   1.776   4.465  15.247  0.2024 -0.1133  0.3572
18524TIP3    H176987   1.782   4.372  15.225 -0.2284  0.3245 -1.7592
18524TIP3    H276988   1.740   4.506  15.168  2.2344  2.1268  0.5286
18525TIP3   OH276989   4.814   2.344  16.051  0.2587 -0.2164 -0.3325
18525TIP3    H176990   4.732   2.353  16.098  1.0969 -0.2648  1.1663
18525TIP3    H276991   4.878   2.393  16.103  1.4983 -1.4562 -0.6522
18526TIP3   OH276992   5.873   5.267   2.169  0.2007 -0.2027 -0.1569
18526TIP3    H176993   5.947   5.208   2.186  0.8052  0.1331 -1.5223
18526TIP3    H276994   5.913   5.354   2.167 -0.2402 -0.0206 -0.8916
18527TIP3   OH276995   2.900   2.157   4.474  0.1184  0.2127  0.3053
18527TIP3    H176996   2.847   2.080   4.492  0.4313  0.2699  1.5214
18527TIP3    H276997   2.989   2.124   4.464 -0.0132  0.2091 -0.9743
18528TIP3   OH276998   2.726   0.409   4.091  0.3266 -0.5025  0.3771
18528TIP3    H176999   2.722   0.329   4.145 -0.6777  0.4368  1.7382
18528TIP3    H277000   2.784   0.468   4.140  1.1982 -0.4355 -0.7065
18529TIP3   OH277001   5.762   3.162  13.143  0.3629  0.3466  0.2599
18529TIP3    H177002   5.802   3.182  13.059 -0.1606  0.4039  0.0234
18529TIP3    H277003   5.668   3.154  13.124  0.5710 -2.6744  0.2610
18530TIP3   OH277004   2.333   1.124  11.419  0.2321 -0.5192  0.5158
18530TIP3    H177005   2.406   1.151  11.363 -0.2724  0.3638  0.2803
18530TIP3    H277006   2.302   1.042  11.381  0.4058 -0.3343 -0.0229
18531TIP3   OH277007   3.241   6.532   4.446  0.4818  0.1101 -0.1793
18531TIP3    H177008   3.297   6.480   4.388 -0.4470  1.0071 -1.9088
18531TIP3    H277009   3.152   6.510   4.419  0.0662  1.9109 -0.3146
18532TIP3   OH277010   2.081   6.101  12.281 -0.4628 -0.1453  0.4834
18532TIP3    H177011   2.034   6.064  12.206 -0.3004  0.2064  0.2027
18532TIP3    H277012   2.088   6.194  12.260  0.8524 -0.2801  0.2548
18533TIP3   OH277013   1.361   5.246   0.364 -0.0746 -0.5819 -0.5225
18533TIP3    H177014   1.346   5.293   0.445  0.8313 -1.4489  0.1691
18533TIP3    H277015   1.442   5.283   0.329 -0.0938 -0.6846 -0.6808
18534TIP3   OH277016   5.009   6.785   5.288  0.5060 -0.1163 -0.4514
18534TIP3    H177017   5.049   6.768   5.203  1.0616  0.6213 -0.3429
18534TIP3    H277018   4.970   6.872   5.280 -0.9171 -0.7351 -0.4878
18535TIP3   OH277019   0.903   4.748   5.959  0.1199  0.5124  0.0858
18535TIP3    H177020   0.957   4.678   5.920  1.6005  0.7883  1.5538
18535TIP3    H277021   0.901   4.727   6.053 -0.3476  1.8228  0.3819
18536TIP3   OH277022   6.304   4.986   1.551  0.6042 -0.0281  0.1675
18536TIP3    H177023   6.365   5.036   1.605 -0.8018  0.8554  0.9523
18536TIP3    H277024   6.227   5.042   1.543 -0.0781 -1.0907 -0.8898
18537TIP3   OH277025   4.288   1.781  15.280 -0.9114  0.0478  0.1740
18537TIP3    H177026   4.247   1.717  15.221 -2.2065 -0.5509  1.6998
18537TIP3    H277027   4.217   1.810  15.337  0.6119 -0.3987  2.3524
18538TIP3   OH277028   6.186   0.359   1.652  0.2589 -0.1339  0.5417
18538TIP3    H177029   6.119   0.372   1.585 -0.2905 -2.2389  0.6411
18538TIP3    H277030   6.250   0.429   1.636  0.0464 -0.4711 -2.0818
18539TIP3   OH277031   2.561   0.853   3.846 -0.2317  0.4326  0.6725
18539TIP3    H177032   2.518   0.821   3.767  1.2501 -1.8626  0.7694
18539TIP3    H277033   2.489   0.870   3.907 -1.2604  0.5932 -0.5570
18540TIP3   OH277034   1.153   3.819   2.710  0.0160 -0.0841  0.1203
18540TIP3    H177035   1.225   3.870   2.673 -1.2919  0.6725 -1.4180
18540TIP3    H277036   1.074   3.870   2.691 -1.0069 -1.2038  1.2201
18541TIP3   OH277037   3.597   3.880  11.354 -0.5871 -0.2747 -0.0353
18541TIP3    H177038   3.572   3.818  11.285  0.7033 -1.0719  0.1893
18541TIP3    H277039   3.644   3.827  11.418  0.8985  1.0037 -0.0294
18542TIP3   OH277040   3.260   4.726   4.537 -0.0083  0.6890 -0.1213
18542TIP3    H177041   3.222   4.723   4.449  0.2268 -0.9925 -0.1839
18542TIP3    H277042   3.225   4.806   4.575 -1.8889  0.3063 -0.9603
18543TIP3   OH277043   6.723   3.918   4.250 -0.1403  0.3143  0.9522
18543TIP3    H177044   6.740   3.987   4.185  1.2914  0.1139  1.1010
18543TIP3    H277045   6.629   3.905   4.246 -0.0258 -0.0979 -1.5236
18544TIP3   OH277046   1.464   6.313  13.572 -0.6478  0.2497 -0.0935
18544TIP3    H177047   1.432   6.372  13.504  1.3779  0.6646 -0.7369
18544TIP3    H277048   1.553   6.344  13.591 -0.3918 -1.1812  1.1992
18545TIP3   OH277049   2.629   0.590   3.426 -0.3504 -0.0968 -0.5073
18545TIP3    H177050   2.626   0.518   3.362  3.6111 -1.5334  0.7829
18545TIP3    H277051   2.662   0.665   3.376  1.2994 -0.8186 -0.5412
18546TIP3   OH277052   5.779   0.069  12.669  0.5458 -0.3505 -1.0684
18546TIP3    H177053   5.730   0.117  12.602  1.2945  0.6081 -0.9352
18546TIP3    H277054   5.861   0.118  12.678  1.1260 -1.3983 -0.6099
18547TIP3   OH277055   5.519   4.833  13.730  0.3817 -0.4085  0.0878
18547TIP3    H177056   5.445   4.834  13.668  0.1906  0.1932  0.3183
18547TIP3    H277057   5.591   4.796  13.680  0.7380  1.7771 -1.0985
18548TIP3   OH277058   4.590   1.181  15.608  0.7398 -0.0799  0.5535
18548TIP3    H177059   4.666   1.153  15.658  0.4661 -1.7892  0.0663
18548TIP3    H277060   4.516   1.137  15.650  0.3230 -0.3101 -0.3989
18549TIP3   OH277061   2.567   6.217  12.148 -0.0568  0.1310  0.0485
18549TIP3    H177062   2.537   6.300  12.111 -1.2577 -0.4751 -0.3560
18549TIP3    H277063   2.585   6.162  12.071  1.9203  0.4136  0.2824
18550TIP3   OH277064   6.158   4.473  15.922  0.1456 -1.1640  0.2891
18550TIP3    H177065   6.115   4.431  15.996 -1.1567  0.4893  0.4930
18550TIP3    H277066   6.091   4.532  15.886  1.4752 -0.3338 -0.8544
18551TIP3   OH277067   0.376   4.964  15.785  0.1262 -0.6223 -0.2511
18551TIP3    H177068   0.411   4.884  15.823 -0.4879 -0.0077  1.6505
18551TIP3    H277069   0.298   4.936  15.737 -0.4860 -1.0760  0.9889
18552TIP3   OH277070   2.895   3.381  12.105  0.3726  0.1387  0.7285
18552TIP3    H177071   2.927   3.457  12.154 -0.2664  1.2323 -0.5372
18552TIP3    H277072   2.926   3.306  12.156  2.1649  1.2088  1.2788
18553TIP3   OH277073   6.651   1.796  14.340  0.9090  0.3901  0.0621
18553TIP3    H177074   6.633   1.884  14.306  0.2478  0.5025  0.6907
18553TIP3    H277075   6.697   1.752  14.269  1.0685  1.1805 -0.3324
18554TIP3   OH277076   4.454   1.900   5.740  0.2164  0.1427  0.3004
18554TIP3    H177077   4.491   1.815   5.764 -1.5200 -1.0188 -1.0686
18554TIP3    H277078   4.488   1.917   5.652  0.0083  0.5465  0.2972
18555TIP3   OH277079   3.035   3.286  11.591  0.1690  0.8067  0.4450
18555TIP3    H177080   3.013   3.313  11.680  1.5218  0.4209  0.9038
18555TIP3    H277081   2.958   3.237  11.562 -0.3348  1.0397  1.3571
18556TIP3   OH277082   3.954   2.862  15.802 -0.3618  0.1261 -0.6663
18556TIP3    H177083   3.976   2.949  15.836 -2.5108  0.1934  0.6778
18556TIP3    H277084   4.002   2.801  15.858 -0.1623  0.4149 -0.5252
18557TIP3   OH277085   5.184   2.778  14.715  0.1517 -0.3253 -0.1136
18557TIP3    H177086   5.171   2.805  14.625  1.1936  2.4637  0.5266
18557TIP3    H277087   5.276   2.796  14.733 -0.4585  0.8375  2.0306
18558TIP3   OH277088   1.292   3.357   6.413 -0.4279 -0.5311 -0.2988
18558TIP3    H177089   1.308   3.421   6.483 -1.2913  0.4064 -0.9412
18558TIP3    H277090   1.341   3.280   6.440  1.2057  0.6313  0.1550
18559TIP3   OH277091   2.590   6.038  12.462 -0.2062  0.1147 -0.2898
18559TIP3    H177092   2.636   6.040  12.377  1.0826 -1.4113  0.3631
18559TIP3    H277093   2.513   5.984  12.446  0.3823 -0.7167 -0.3130
18560TIP3   OH277094   2.817   3.763  12.048  0.6327 -0.2397  0.1559
18560TIP3    H177095   2.851   3.829  12.108 -1.5129  0.4829  0.6142
18560TIP3    H277096   2.757   3.811  11.991 -0.8204 -1.7338  0.3848
18561TIP3   OH277097   3.336   4.163  17.222  0.1427 -0.5176  0.5972
18561TIP3    H177098   3.346   4.176  17.128 -0.6262  0.1828  0.6056
18561TIP3    H277099   3.425   4.167  17.257  0.4905 -1.4578 -0.1814
18562TIP3   OH277100   3.319   2.068   0.073  0.0297 -0.0324 -0.1676
18562TIP3    H177101   3.397   2.014   0.087  0.4761  0.1396 -1.8551
18562TIP3    H277102   3.268   2.019   0.008  0.4277  1.5548 -1.6983
18563TIP3   OH277103   1.051   1.158  15.207 -0.1388  0.4267  0.4505
18563TIP3    H177104   1.083   1.243  15.237  1.3907  0.2920 -0.7653
18563TIP3    H277105   1.104   1.094  15.253  0.2911  0.1744 -0.3848
18564TIP3   OH277106   5.202   2.764   0.423 -0.3238 -0.3559  0.1166
18564TIP3    H177107   5.281   2.802   0.385 -0.2936 -0.8228 -0.2970
18564TIP3    H277108   5.225   2.749   0.515 -0.8981  2.1407  0.6991
18565TIP3   OH277109   4.334   3.414  13.205  0.4012 -0.1212 -0.0581
18565TIP3    H177110   4.274   3.413  13.130 -0.0821  1.6101  0.2604
18565TIP3    H277111   4.418   3.441  13.169  0.0959  1.0144  0.0393
18566TIP3   OH277112   4.731   2.849   3.779  0.5394 -0.0040 -0.4264
18566TIP3    H177113   4.817   2.891   3.773 -0.2703  1.6380 -0.8835
18566TIP3    H277114   4.669   2.922   3.783 -0.9106 -1.1607 -1.3472
18567TIP3   OH277115   5.563   2.349  14.872 -0.4883  0.8305 -0.1616
18567TIP3    H177116   5.538   2.380  14.959 -1.9814 -1.4106  0.2575
18567TIP3    H277117   5.654   2.322  14.881  0.1616  3.0178  0.0112
18568TIP3   OH277118   6.603   1.180  15.374  0.0983  0.0387 -0.2224
18568TIP3    H177119   6.666   1.240  15.336  0.9971 -1.0106 -0.4046
18568TIP3    H277120   6.655   1.125  15.433 -1.4304  2.4843  3.6175
18569TIP3   OH277121   3.217   4.887  11.422 -0.5412 -0.1639  0.2620
18569TIP3    H177122   3.265   4.951  11.369 -0.7282 -0.0197  0.2657
18569TIP3    H277123   3.174   4.939  11.490 -0.9173 -0.2616  0.1019
18570TIP3   OH277124   5.296   3.540  15.287  0.0513 -0.2214 -0.6296
18570TIP3    H177125   5.389   3.556  15.272  0.1139  0.8860  0.7561
18570TIP3    H277126   5.258   3.537  15.200  1.3998 -0.7867 -1.2142
18571TIP3   OH277127   1.797   1.484  12.166  0.1670  0.4627 -0.6064
18571TIP3    H177128   1.747   1.489  12.247  0.1922 -1.6127 -0.4436
18571TIP3    H277129   1.730   1.476  12.097  0.2338 -3.0943 -0.3247
18572TIP3   OH277130   5.754   1.855  12.494 -0.4876  0.3399 -0.3482
18572TIP3    H177131   5.791   1.937  12.526 -2.6776  0.2368  2.7266
18572TIP3    H277132   5.797   1.787  12.546 -1.0989 -0.1816 -0.5053
18573TIP3   OH277133   4.828   3.452  12.255 -0.2341  0.1070 -0.0766
18573TIP3    H177134   4.769   3.483  12.186 -0.5635 -0.3338  0.0069
18573TIP3    H277135   4.847   3.362  12.231 -0.9061 -0.2703  0.7878
18574TIP3   OH277136   4.188   2.045   1.994 -0.3204  0.7292 -0.0702
18574TIP3    H177137   4.273   2.011   2.022 -0.7026 -0.3863 -0.2189
18574TIP3    H277138   4.134   2.044   2.073 -0.0180  2.0208  0.1589
18575TIP3   OH277139   3.535   3.824   5.097  0.6541 -0.1386 -0.0552
18575TIP3    H177140   3.448   3.790   5.078  0.1796  0.9849  0.0532
18575TIP3    H277141   3.567   3.857   5.013 -0.3247  2.3131  0.4824
18576TIP3   OH277142   1.662   5.404  13.200 -0.2512 -0.1952 -0.8504
18576TIP3    H177143   1.637   5.439  13.286 -0.0002 -1.5701 -0.2076
18576TIP3    H277144   1.588   5.348  13.175  1.1373 -2.4362 -0.0001
18577TIP3   OH277145   3.866   2.446   1.295 -0.9250 -0.2945 -0.1822
18577TIP3    H177146   3.857   2.366   1.347  0.4896 -0.9343 -0.8864
18577TIP3    H277147   3.797   2.439   1.228  1.2454 -2.5805 -2.2980
18578TIP3   OH277148   1.502   2.229   4.801 -0.3779  0.5709  0.1254
18578TIP3    H177149   1.536   2.151   4.756  0.2121 -0.6220  2.5773
18578TIP3    H277150   1.428   2.197   4.853  0.9112  1.2782  2.4618
18579TIP3   OH277151   4.118   4.163  16.872  0.3163 -0.8081 -0.2988
18579TIP3    H177152   4.032   4.128  16.895  1.3159 -0.7470  4.0419
18579TIP3    H277153   4.179   4.092  16.891  1.3196 -0.7408 -3.0337
18580TIP3   OH277154   3.177   5.607  16.623 -0.6475  0.1068  0.2506
18580TIP3    H177155   3.096   5.559  16.602 -0.3486 -0.0003 -0.6548
18580TIP3    H277156   3.163   5.694  16.588 -0.7004  0.3393  0.8348
18581TIP3   OH277157   1.148   4.518   5.309 -0.0765 -0.2457 -0.2420
18581TIP3    H177158   1.067   4.479   5.276 -0.0269  0.8455 -1.6940
18581TIP3    H277159   1.162   4.594   5.253  1.3225  0.2532  0.7686
18582TIP3   OH277160   4.247   1.510  12.885  0.2537 -0.3334 -0.3040
18582TIP3    H177161   4.307   1.511  12.810  0.6775 -0.1804  0.0344
18582TIP3    H277162   4.169   1.555  12.853  1.2200  1.6198 -0.0104
18583TIP3   OH277163   3.199   6.319  15.502  0.2310  0.3221  0.0297
18583TIP3    H177164   3.286   6.360  15.499 -0.1901  1.1567 -1.5094
18583TIP3    H277165   3.209   6.240  15.449  0.0133  0.5381 -0.3427
18584TIP3   OH277166   1.208   4.163  13.692 -0.4188 -0.3798 -0.3517
18584TIP3    H177167   1.209   4.257  13.676  0.0248 -0.3430 -0.1000
18584TIP3    H277168   1.251   4.152  13.777 -1.4249 -0.7143  0.1295
18585TIP3   OH277169   0.802   5.074  13.410 -0.0299 -0.2718 -0.5588
18585TIP3    H177170   0.789   5.074  13.316 -0.6421 -1.3462 -0.4845
18585TIP3    H277171   0.729   5.022  13.444  0.9415 -1.0218  0.3912
18586TIP3   OH277172   5.958   5.846   2.516 -0.1454 -0.2245 -0.3389
18586TIP3    H177173   5.966   5.806   2.603 -2.3217 -1.7643 -0.8191
18586TIP3    H277174   5.940   5.939   2.534  0.8302 -0.2410  0.8141
18587TIP3   OH277175   5.532   1.003   5.765 -0.3437 -0.1495 -0.3453
18587TIP3    H177176   5.579   0.976   5.844 -2.7867  1.8574  1.8995
18587TIP3    H277177   5.458   0.943   5.758 -0.5443  0.1319 -0.7080
18588TIP3   OH277178   2.816   0.563   4.953 -0.3977 -0.3997  0.1143
18588TIP3    H177179   2.877   0.636   4.943  0.4538 -1.1433 -0.1038
18588TIP3    H277180   2.837   0.526   5.038 -0.3600 -0.8249 -0.0799
18589TIP3   OH277181   0.910   3.393  14.201 -0.2411 -0.3106 -0.2963
18589TIP3    H177182   0.936   3.477  14.163 -1.4979 -0.4239 -1.4438
18589TIP3    H277183   0.993   3.352  14.227  0.6099  0.1411 -2.2007
18590TIP3   OH277184   0.571   6.383  16.387 -0.2193  0.3010  0.4702
18590TIP3    H177185   0.586   6.295  16.422 -0.9670 -0.5003 -1.1411
18590TIP3    H277186   0.656   6.425  16.389  0.3343 -0.7969  0.4256
18591TIP3   OH277187   0.454   3.487  15.200 -0.1387 -0.7054 -0.4401
18591TIP3    H177188   0.466   3.402  15.156 -0.5651 -0.8007 -0.3765
18591TIP3    H277189   0.537   3.503  15.245  0.0370 -0.9640 -0.6735
18592TIP3   OH277190   5.614   5.475   0.503  0.6190 -0.1014 -0.1222
18592TIP3    H177191   5.563   5.542   0.458 -1.3759 -1.0582  0.6543
18592TIP3    H277192   5.688   5.522   0.540 -1.3549  1.9321  1.3970
18593TIP3   OH277193   0.150   4.110   5.730  0.6861  0.1797 -0.2326
18593TIP3    H177194   0.214   4.158   5.678 -0.4899  1.2054 -0.7466
18593TIP3    H277195   0.073   4.104   5.674 -0.2350  0.3655  0.9997
18594TIP3   OH277196   5.150   5.512   1.509 -0.1321 -0.0498 -0.3018
18594TIP3    H177197   5.184   5.601   1.521 -1.5024  0.4546 -0.1477
18594TIP3    H277198   5.228   5.460   1.490  0.9663  0.8092  1.6586
18595TIP3   OH277199   4.141   1.347   1.878  0.0814 -0.1475  0.4713
18595TIP3    H177200   4.182   1.417   1.827 -0.0227  0.5643  1.3622
18595TIP3    H277201   4.208   1.322   1.942  0.1632 -0.9485  0.0799
18596TIP3   OH277202   0.022   4.721   5.038 -0.1623 -0.5216  0.4229
18596TIP3    H177203   0.050   4.658   4.971 -0.4723 -0.4506  0.2240
18596TIP3    H277204  -0.071   4.734   5.021 -0.0582  0.1409  0.3395
18597TIP3   OH277205   3.267   1.867   3.198  0.1159 -0.1930  0.3742
18597TIP3    H177206   3.182   1.846   3.236 -0.8787  2.1119 -0.4696
18597TIP3    H277207   3.248   1.892   3.108  1.6724  0.4241  0.1862
18598TIP3   OH277208   4.658   5.124  11.044  0.2638 -0.0781  0.0697
18598TIP3    H177209   4.747   5.160  11.050  0.4389 -0.3338 -0.8501
18598TIP3    H277210   4.610   5.187  10.990 -0.3738  0.5185  1.2987
18599TIP3   OH277211   0.079   2.947   1.291 -0.3401 -0.9475  0.0716
18599TIP3    H177212   0.060   2.855   1.305  0.7554 -1.0431  0.9956
18599TIP3    H277213   0.050   2.990   1.372 -2.2799 -0.2590 -0.9647
18600TIP3   OH277214   1.441   3.054   1.880 -0.3634  0.7503 -0.2271
18600TIP3    H177215   1.358   3.075   1.839  0.0093  0.8072 -0.9700
18600TIP3    H277216   1.471   2.975   1.835 -0.1259  0.6021  0.1883
18601TIP3   OH277217   0.557   1.561   0.645  0.0607 -0.0247  0.1692
18601TIP3    H177218   0.567   1.649   0.681  0.2794  0.2410 -0.5216
18601TIP3    H277219   0.646   1.534   0.623 -0.0791 -0.1454 -0.2491
18602TIP3   OH277220   4.580   5.014   0.175 -0.1864 -0.4870 -0.2250
18602TIP3    H177221   4.651   5.077   0.194 -0.6872  0.3480 -1.0627
18602TIP3    H277222   4.608   4.933   0.218  0.1165  0.5065  1.5129
18603TIP3   OH277223   2.369   6.308   4.347 -0.3065 -0.1682  0.4301
18603TIP3    H177224   2.439   6.355   4.301  0.4988 -1.4362  0.3349
18603TIP3    H277225   2.298   6.302   4.284  0.2946 -0.7194 -0.2000
18604TIP3   OH277226   2.777   4.490  17.174  0.4033  0.4114 -0.8504
18604TIP3    H177227   2.849   4.522  17.120  0.2020 -0.2088 -1.4901
18604TIP3    H277228   2.803   4.402  17.200  0.3209  0.5574 -0.2472
18605TIP3   OH277229   6.441   4.605  16.488 -0.1820  0.0309  0.0298
18605TIP3    H177230   6.387   4.619  16.410  0.2665  1.1694 -0.0903
18605TIP3    H277231   6.492   4.686  16.497  0.3194 -0.3865  1.0731
18606TIP3   OH277232   4.752   1.235   6.220 -0.7307  0.0960 -0.0483
18606TIP3    H177233   4.711   1.305   6.270 -0.0421  0.4666  0.0084
18606TIP3    H277234   4.703   1.156   6.244 -2.8519  0.8757 -1.7380
18607TIP3   OH277235   0.152   6.108  11.314  0.2283 -0.2303  0.5646
18607TIP3    H177236   0.206   6.173  11.270  1.3098 -1.6428 -0.2088
18607TIP3    H277237   0.132   6.043  11.247  0.1736 -1.3378  1.6208
18608TIP3   OH277238   2.172   1.740   0.421  0.5066 -0.7535 -0.2693
18608TIP3    H177239   2.157   1.767   0.512 -0.3566 -0.9442 -0.3548
18608TIP3    H277240   2.092   1.764   0.375  1.3243  0.2306 -1.1987
18609TIP3   OH277241   3.214   0.463   3.729 -0.2924  0.4679 -0.1012
18609TIP3    H177242   3.145   0.412   3.686 -0.1253  0.7846 -0.7440
18609TIP3    H277243   3.180   0.479   3.817 -0.5413 -0.3618 -0.0417
18610TIP3   OH277244   5.939   5.368   6.536  0.5759 -0.2922  0.0104
18610TIP3    H177245   6.029   5.381   6.564  0.5609  0.3015 -0.1995
18610TIP3    H277246   5.915   5.282   6.569  1.4811 -0.7902 -0.6280
18611TIP3   OH277247   2.550   2.036   5.997  0.6543 -0.0789 -0.6638
18611TIP3    H177248   2.616   2.046   5.929  1.5254 -1.0263  0.0362
18611TIP3    H277249   2.570   2.105   6.060 -0.5866  1.2549 -1.7001
18612TIP3   OH277250   4.187   6.681  16.190  0.1367 -0.2381 -0.2629
18612TIP3    H177251   4.196   6.594  16.151 -2.7080  0.0506 -1.6608
18612TIP3    H277252   4.225   6.740  16.125 -0.1415 -0.2022 -0.3902
18613TIP3   OH277253   4.310   4.967   2.066 -0.0894  0.2010 -0.1451
18613TIP3    H177254   4.343   4.959   2.156  0.4325 -0.0319 -0.3523
18613TIP3    H277255   4.388   4.988   2.014 -0.6053  1.6983 -0.3456
18614TIP3   OH277256   4.430   3.039   2.747  0.1622 -0.0647 -0.1150
18614TIP3    H177257   4.352   3.074   2.791  0.5139  0.9924 -0.3095
18614TIP3    H277258   4.495   3.109   2.755  1.1679 -1.0345  0.2402
18615TIP3   OH277259   0.761   0.233  15.379  0.2661 -0.1816  0.4861
18615TIP3    H177260   0.747   0.282  15.459  2.0571 -0.1650  0.8112
18615TIP3    H277261   0.792   0.147  15.409 -0.2418 -0.5925 -0.1548
18616TIP3   OH277262   1.609   0.379  11.754  0.1113 -0.4217  0.4167
18616TIP3    H177263   1.691   0.376  11.705 -1.2097  0.8092 -1.9021
18616TIP3    H277264   1.636   0.408  11.842  1.9875  1.3658 -0.6974
18617TIP3   OH277265   3.456   4.677  14.285 -0.4016 -0.0743  0.3803
18617TIP3    H177266   3.396   4.674  14.360 -0.8224 -1.5644  0.0017
18617TIP3    H277267   3.399   4.688  14.209 -0.1775 -1.0804  0.0581
18618TIP3   OH277268   5.825   4.414   1.644  0.2171  0.7743  0.7490
18618TIP3    H177269   5.794   4.503   1.625  1.3226  0.7729 -1.2930
18618TIP3    H277270   5.904   4.405   1.589  0.4927 -1.2216  1.4559
18619TIP3   OH277271   3.466   3.933  15.445  0.1004  0.7048 -0.4813
18619TIP3    H177272   3.440   3.897  15.530 -1.1631  1.0471 -0.7121
18619TIP3    H277273   3.451   4.027  15.453  1.4115  0.9234 -0.5848
18620TIP3   OH277274   0.953   4.577  11.045  0.8896 -0.1897 -0.4707
18620TIP3    H177275   0.960   4.560  10.951  1.4855 -0.5014 -0.3752
18620TIP3    H277276   0.880   4.523  11.074 -0.4949  1.3283 -1.0837
18621TIP3   OH277277   2.760   0.465  14.390 -0.0008  0.0850  0.0882
18621TIP3    H177278   2.681   0.516  14.406  0.0053  0.4228 -0.9198
18621TIP3    H277279   2.731   0.393  14.333  0.0661 -0.8161  1.1736
18622TIP3   OH277280   2.530   1.964   5.664  0.2721  0.1441 -0.3206
18622TIP3    H177281   2.547   1.901   5.594  1.7120 -0.5009  0.5870
18622TIP3    H277282   2.554   1.918   5.744  0.1199  1.4058  0.4611
18623TIP3   OH277283   2.496   5.987  14.426 -0.4004 -0.0527  0.4140
18623TIP3    H177284   2.589   5.982  14.403 -0.0168 -0.0494  1.8910
18623TIP3    H277285   2.494   6.045  14.502 -1.6446  0.1486  0.2255
18624TIP3   OH277286   4.652   0.037  15.155  0.3146  1.4315 -0.2687
18624TIP3    H177287   4.692  -0.008  15.230  0.7959  1.5634 -0.4457
18624TIP3    H277288   4.559   0.015  15.161  1.0239 -2.3899 -2.3000
18625TIP3   OH277289   5.768   6.169  15.132 -0.1097  0.3724  0.4308
18625TIP3    H177290   5.836   6.195  15.194 -1.3710  1.4598  1.3870
18625TIP3    H277291   5.709   6.113  15.183 -0.4670  0.2375 -0.1293
18626TIP3   OH277292   3.586   6.331  12.947  0.3053  0.6170  0.5638
18626TIP3    H177293   3.657   6.327  13.011  0.5639  0.6575  0.2802
18626TIP3    H277294   3.527   6.259  12.972  1.7547 -1.0693 -0.7462
18627TIP3   OH277295   5.919   3.805  15.236 -0.4136  0.5078  0.2194
18627TIP3    H177296   5.850   3.757  15.189  0.1652  0.6507 -0.7957
18627TIP3    H277297   5.878   3.889  15.258 -0.8769  0.2181  0.4722
18628TIP3   OH277298   4.502   1.976  12.861  0.2007  0.3816 -0.4712
18628TIP3    H177299   4.498   1.951  12.953  1.6149  1.4554 -0.1074
18628TIP3    H277300   4.440   2.049  12.853 -0.2733 -0.0136 -0.4949
18629TIP3   OH277301   5.688   5.706  13.100  0.0673  0.1020  0.3516
18629TIP3    H177302   5.600   5.710  13.138 -0.0146 -1.0058  0.2837
18629TIP3    H277303   5.680   5.754  13.017 -0.6552 -0.6191 -0.0029
18630TIP3   OH277304   0.510   1.383  11.560  0.3049 -0.0509  0.1147
18630TIP3    H177305   0.526   1.372  11.654  1.3846 -0.4716 -0.1131
18630TIP3    H277306   0.595   1.410  11.524 -0.1005  0.1028 -0.7462
18631TIP3   OH277307   2.930   4.293   5.301  0.5840  0.3131 -0.0047
18631TIP3    H177308   2.911   4.209   5.341 -0.1905 -0.0563 -1.1274
18631TIP3    H277309   3.025   4.304   5.312  1.2661 -2.2641 -2.7786
18632TIP3   OH277310   0.043   5.266  14.556 -0.4976 -0.0212 -0.0060
18632TIP3    H177311   0.048   5.344  14.500 -1.7403  0.5382  0.6380
18632TIP3    H277312   0.043   5.301  14.645 -0.2199 -0.8169  0.3131
18633TIP3   OH277313   0.957   2.232   1.594  0.1018 -0.7226  0.7430
18633TIP3    H177314   0.876   2.280   1.609  0.9093  0.9836 -0.1948
18633TIP3    H277315   0.998   2.225   1.680  1.2811  2.7090  0.5261
18634TIP3   OH277316   3.794   5.637  11.023 -0.9782  0.4125  0.0778
18634TIP3    H177317   3.739   5.640  11.101  0.0617 -1.9936  0.9555
18634TIP3    H277318   3.867   5.696  11.043 -1.9076  1.6431 -0.0700
18635TIP3   OH277319   2.008   3.443   1.764 -0.3172  0.3123 -0.0241
18635TIP3    H177320   2.102   3.430   1.749 -0.4001 -0.8139  0.4355
18635TIP3    H277321   1.994   3.416   1.854 -1.0295  0.7848  0.0049
18636TIP3   OH277322   3.677   3.512  11.998  0.2202 -0.8254  0.3028
18636TIP3    H177323   3.614   3.515  11.926  0.6953 -0.0415 -0.0896
18636TIP3    H277324   3.653   3.584  12.055  1.0106 -0.2635 -0.0657
18637TIP3   OH277325   2.287   5.198  12.258  0.2157 -0.5217  0.1857
18637TIP3    H177326   2.264   5.240  12.175 -1.9139  0.8087  1.3961
18637TIP3    H277327   2.203   5.166  12.292  1.0404 -0.8627  1.9264
18638TIP3   OH277328   3.540   0.725  11.744 -0.0764 -0.0990 -0.2087
18638TIP3    H177329   3.450   0.719  11.711 -0.2812 -0.9936  0.5108
18638TIP3    H277330   3.573   0.808  11.708 -1.4479  0.6159  0.1512
18639TIP3   OH277331   4.249   1.972   2.639 -0.3492 -0.5914  0.0740
18639TIP3    H177332   4.340   2.001   2.634 -0.8970  1.1837  0.3563
18639TIP3    H277333   4.233   1.931   2.554 -0.3981  2.4293 -1.4254
18640TIP3   OH277334   5.252   2.853  16.778 -0.5051 -0.6173 -0.8459
18640TIP3    H177335   5.311   2.831  16.706  1.7598  2.0053  0.0897
18640TIP3    H277336   5.227   2.944  16.761 -3.2681 -1.2831 -0.5050
18641TIP3   OH277337   5.254   1.850   5.600 -0.2022 -0.3423 -0.0292
18641TIP3    H177338   5.266   1.945   5.607 -0.6663 -0.4481  2.8080
18641TIP3    H277339   5.176   1.839   5.546 -0.8324  0.9172  0.6120
18642TIP3   OH277340   2.563   6.369   1.607  0.0358  0.1597  0.5013
18642TIP3    H177341   2.524   6.450   1.573 -2.5179  0.3450  3.6290
18642TIP3    H277342   2.508   6.299   1.570 -0.1499  0.1186  0.8474
18643TIP3   OH277343   5.633   2.712   4.994  0.3275  0.0505 -0.2958
18643TIP3    H177344   5.608   2.624   5.020  0.5424 -0.2175 -0.9974
18643TIP3    H277345   5.725   2.705   4.970  0.5678  0.6370  0.4404
18644TIP3   OH277346   5.505   2.548   4.356  0.4488  0.5123  0.2260
18644TIP3    H177347   5.435   2.593   4.309 -1.5787 -1.9095  0.8960
18644TIP3    H277348   5.581   2.557   4.298 -1.3067 -0.0241 -2.2428
18645TIP3   OH277349   4.381   4.913   2.853 -0.2082 -0.0903  0.4165
18645TIP3    H177350   4.466   4.873   2.835 -0.2698 -0.5487  1.1506
18645TIP3    H277351   4.396   5.007   2.841  0.3862 -0.1728  0.4941
18646TIP3   OH277352   1.137   3.935  17.197  0.5861 -0.1431 -0.0339
18646TIP3    H177353   1.160   3.976  17.114  0.3145  1.5081  0.6906
18646TIP3    H277354   1.209   3.958  17.256  0.2127 -0.3287  0.4953
18647TIP3   OH277355   2.387   5.607  12.824  0.0034 -0.8753  0.4706
18647TIP3    H177356   2.298   5.642  12.813 -0.4063 -1.8374  0.6949
18647TIP3    H277357   2.444   5.679  12.798 -0.8613 -0.6873 -0.9307
18648TIP3   OH277358   5.935   0.568   3.116  0.7544 -0.6281 -0.9094
18648TIP3    H177359   5.933   0.656   3.080 -0.3925 -0.6133 -0.8287
18648TIP3    H277360   5.899   0.512   3.047 -2.7236 -0.4176  0.6357
18649TIP3   OH277361   3.766   1.366   5.390  0.1010 -0.0750 -0.4703
18649TIP3    H177362   3.721   1.298   5.441  0.3007  0.7898  0.8679
18649TIP3    H277363   3.751   1.340   5.298  0.4190 -2.0871  0.0101
18650TIP3   OH277364   4.321   3.446   3.575  0.1123 -0.2383 -0.1090
18650TIP3    H177365   4.324   3.353   3.553  0.8859 -0.1238 -0.5282
18650TIP3    H277366   4.396   3.484   3.527  0.9641  0.2565  1.5817
18651TIP3   OH277367   2.164   1.163  12.539  0.2813 -0.0434  0.2867
18651TIP3    H177368   2.140   1.174  12.631 -1.0353  0.3942 -0.1056
18651TIP3    H277369   2.081   1.146  12.494  0.9232 -0.3122 -0.8164
18652TIP3   OH277370   3.503   3.851   5.456  0.9997 -0.1851  0.0114
18652TIP3    H177371   3.490   3.856   5.551 -1.6176  1.6122 -0.4043
18652TIP3    H277372   3.429   3.898   5.419  0.3281 -3.3981 -3.0325
18653TIP3   OH277373   5.047   0.310   2.130 -0.0516 -0.4958  0.6069
18653TIP3    H177374   5.082   0.370   2.065 -2.1506  0.9132  0.7087
18653TIP3    H277375   5.062   0.354   2.214 -0.7663 -0.5375  0.7591
18654TIP3   OH277376   2.244   0.009  11.640 -0.1396  0.5136  0.6880
18654TIP3    H177377   2.170  -0.047  11.616  0.9739 -0.8817  0.4102
18654TIP3    H277378   2.205   0.096  11.654 -1.4308  0.4818 -2.2516
18655TIP3   OH277379   4.934   3.615   0.093 -0.3440  0.2491  0.1272
18655TIP3    H177380   4.925   3.609   0.189  0.3523  0.3280  0.2014
18655TIP3    H277381   4.900   3.702   0.071  0.2875  0.5681  0.4045
18656TIP3   OH277382   3.985   6.297   6.259  0.5302  0.1170 -0.0632
18656TIP3    H177383   3.961   6.204   6.251  1.1844  0.0531 -1.4910
18656TIP3    H277384   4.003   6.309   6.352  0.2871 -1.1626  0.1645
18657TIP3   OH277385   4.634   5.228  12.775  0.3469  0.3084  0.0789
18657TIP3    H177386   4.596   5.169  12.840  0.9497  0.4022  0.5220
18657TIP3    H277387   4.727   5.232  12.797  0.9994 -1.4498 -2.1694
18658TIP3   OH277388   6.022   5.978  11.577 -0.6693 -0.2420  0.0727
18658TIP3    H177389   5.952   6.001  11.516  0.3355  0.5386 -0.7781
18658TIP3    H277390   6.015   6.043  11.647 -1.0835 -0.4552  0.2365
18659TIP3   OH277391   1.272   4.916   4.462  0.3488 -0.0590 -0.0824
18659TIP3    H177392   1.278   4.827   4.426 -1.9222 -0.3725  0.2357
18659TIP3    H277393   1.264   4.972   4.385 -3.8980 -0.6782 -0.1902
18660TIP3   OH277394   6.742   0.603   1.149  0.2285  0.0511 -0.1650
18660TIP3    H177395   6.794   0.675   1.115  0.9652 -0.2479  0.2919
18660TIP3    H277396   6.729   0.545   1.074  0.4810  0.1775 -0.3076
18661TIP3   OH277397   0.019   1.855  14.609 -0.0063 -0.4284 -0.7355
18661TIP3    H177398   0.048   1.863  14.700 -0.0155  1.0981 -0.8596
18661TIP3    H277399  -0.076   1.845  14.614 -0.1179  0.6369 -0.6174
18662TIP3   OH277400   3.224   1.669   5.559  0.2317  0.1327  0.2314
18662TIP3    H177401   3.219   1.752   5.512  0.1413  0.0028  0.0117
18662TIP3    H277402   3.195   1.603   5.496  1.0748 -0.1639  0.1375
18663TIP3   OH277403   1.434   6.660   4.760  0.2924 -0.1668 -0.8674
18663TIP3    H177404   1.437   6.751   4.732  1.4509  0.2082  0.4211
18663TIP3    H277405   1.522   6.627   4.743  0.9069 -0.0439  1.8480
18664TIP3   OH277406   4.955   3.086   1.300 -0.0749  0.0008  0.2557
18664TIP3    H177407   4.925   3.003   1.335  0.2305  0.5436  1.8404
18664TIP3    H277408   4.978   3.067   1.209 -2.2390 -1.1094 -0.0775
18665TIP3   OH277409   5.597   1.498  14.502 -0.3164 -0.1489 -0.2353
18665TIP3    H177410   5.506   1.470  14.505 -0.3227 -0.2996 -1.5300
18665TIP3    H277411   5.594   1.589  14.474 -0.1892  0.6395  2.1668
18666TIP3   OH277412   2.744   3.907  16.144  0.3552 -0.2215  0.6455
18666TIP3    H177413   2.724   3.831  16.090 -0.5668  0.2679  0.2745
18666TIP3    H277414   2.745   3.980  16.082 -0.7576  0.3526  1.2858
18667TIP3   OH277415   5.831   1.249  16.228  0.2760 -0.3088  0.4114
18667TIP3    H177416   5.882   1.215  16.155  0.4921 -0.5661  0.6813
18667TIP3    H277417   5.778   1.319  16.189 -1.4052 -2.0424 -0.5026
18668TIP3   OH277418   1.957   6.466  16.455 -0.2284  0.6392 -0.0969
18668TIP3    H177419   2.047   6.437  16.438  0.2555  1.8711  0.2759
18668TIP3    H277420   1.929   6.506  16.372 -0.6197 -0.2012 -0.3752
18669TIP3   OH277421   1.631   3.142   3.408 -0.3999  0.5924 -0.4994
18669TIP3    H177422   1.544   3.115   3.379  0.3516 -0.4468 -1.8639
18669TIP3    H277423   1.621   3.232   3.437 -2.2446 -0.0030  0.7804
18670TIP3   OH277424   2.376   5.456   0.951 -0.0018  0.3452 -0.4026
18670TIP3    H177425   2.470   5.440   0.943  0.1555  1.1803 -0.2480
18670TIP3    H277426   2.370   5.543   0.990 -0.8064 -0.8747  2.3420
18671TIP3   OH277427   0.937   4.617  14.421 -0.2062  0.3888 -0.3144
18671TIP3    H177428   0.996   4.692  14.408  0.2248 -0.0603 -1.0224
18671TIP3    H277429   0.996   4.542  14.430 -0.6502  0.0654 -0.0737
18672TIP3   OH277430   0.803   3.286   2.945  0.2053 -0.4985  0.1836
18672TIP3    H177431   0.824   3.347   2.875 -1.1123 -0.8523 -0.5421
18672TIP3    H277432   0.887   3.268   2.988  0.6285  1.7029  0.3330
18673TIP3   OH277433   0.059   4.640   0.438  1.1649 -0.0083  0.0088
18673TIP3    H177434   0.047   4.625   0.532 -0.7337 -0.7564 -0.3421
18673TIP3    H277435  -0.010   4.701   0.414  1.8152  0.3966 -0.8587
18674TIP3   OH277436   6.179   0.243   0.698 -0.1631  0.2667 -0.3761
18674TIP3    H177437   6.210   0.333   0.695 -0.6923  0.4662  0.1258
18674TIP3    H277438   6.205   0.211   0.784  2.0791 -0.8068 -1.4106
18675TIP3   OH277439   2.512   3.154  15.251  0.4443 -0.4110  0.4291
18675TIP3    H177440   2.426   3.180  15.284  1.0547  0.8473  1.0695
18675TIP3    H277441   2.514   3.059  15.261 -1.0375 -0.4976  0.0026
18676TIP3   OH277442   0.900   0.857  13.452  0.4563  0.2781  0.1846
18676TIP3    H177443   0.931   0.863  13.542 -2.0321  0.2793  1.0854
18676TIP3    H277444   0.845   0.935  13.440 -0.4458 -0.4999 -0.8293
18677TIP3   OH277445   5.613   1.786   5.646  0.5012  0.0570 -0.4595
18677TIP3    H177446   5.689   1.832   5.685  1.1394 -0.1718 -1.4259
18677TIP3    H277447   5.558   1.763   5.721  1.2473  0.4894  0.2281
18678TIP3   OH277448   3.804   2.326  11.338  0.5347  0.5491  0.1163
18678TIP3    H177449   3.819   2.400  11.397 -1.6321  0.9563  0.1985
18678TIP3    H277450   3.892   2.294  11.317  1.4344  2.0523  1.4544
18679TIP3   OH277451   3.938   2.103  13.051 -0.0156  0.2117 -0.6585
18679TIP3    H177452   3.909   2.141  12.968 -1.7128 -1.5491 -0.9089
18679TIP3    H277453   3.904   2.013  13.050 -0.4222  0.2806  2.1143
18680TIP3   OH277454   3.195   3.125   4.801 -0.4966 -0.5360  0.0768
18680TIP3    H177455   3.177   3.043   4.847  0.5832 -1.7523 -1.5841
18680TIP3    H277456   3.109   3.157   4.774 -1.0897 -0.0750  2.4241
18681TIP3   OH277457   1.924   6.017  14.499 -0.3953 -0.1096 -0.1403
18681TIP3    H177458   1.986   5.986  14.565 -2.1120 -0.7443  1.2348
18681TIP3    H277459   1.949   6.108  14.484  1.0563 -0.4466  0.1554
18682TIP3   OH277460   1.566   3.662  16.930  0.1703 -0.2201 -1.0257
18682TIP3    H177461   1.568   3.744  16.978 -3.0157 -0.8015  0.2117
18682TIP3    H277462   1.501   3.675  16.861  0.9045 -1.1361 -1.9196
18683TIP3   OH277463   1.620   0.354   3.970 -0.2821 -0.3173  0.3560
18683TIP3    H177464   1.570   0.294   4.025 -0.6032 -2.4344 -2.1480
18683TIP3    H277465   1.553   0.397   3.915  0.3728 -1.2120 -1.1706
18684TIP3   OH277466   3.979   4.758  11.313 -0.0523  0.0425 -0.2812
18684TIP3    H177467   4.010   4.834  11.263 -0.6378 -0.4012 -1.3321
18684TIP3    H277468   3.939   4.701  11.247 -3.0911  0.5889  0.9926
18685TIP3   OH277469   1.210   3.704   2.416  0.2279  0.5491  0.0696
18685TIP3    H177470   1.242   3.722   2.504 -1.0798 -0.8184  0.8499
18685TIP3    H277471   1.286   3.669   2.370 -0.0616 -2.7723  1.9280
18686TIP3   OH277472   1.655   4.543   4.211  0.3071  0.2378  0.4925
18686TIP3    H177473   1.607   4.603   4.268 -0.3467 -0.4373  0.6527
18686TIP3    H277474   1.682   4.472   4.269 -1.0459 -0.8490 -0.1957
18687TIP3   OH277475   2.578   2.277  17.215  0.1654 -0.0262  0.5072
18687TIP3    H177476   2.526   2.357  17.214  0.8940  0.4465  0.2809
18687TIP3    H277477   2.526   2.215  17.266  0.3190  1.0725  2.0199
18688TIP3   OH277478   3.656   1.812   1.854 -0.2249  0.5041 -0.7574
18688TIP3    H177479   3.733   1.759   1.877  0.7538  3.1215  2.2030
18688TIP3    H277480   3.685   1.864   1.779 -0.6448 -1.7378 -2.5668
18689TIP3   OH277481   2.135   2.729  10.807  0.0356 -0.5300 -0.0318
18689TIP3    H177482   2.111   2.666  10.738 -0.6298 -0.3306  0.0131
18689TIP3    H277483   2.217   2.767  10.776 -0.9850  0.5970 -1.4240
18690TIP3   OH277484   6.379   0.589   3.529  0.7221 -0.6918  0.2090
18690TIP3    H177485   6.307   0.603   3.591 -0.0820 -1.9947 -0.4212
18690TIP3    H277486   6.419   0.507   3.557 -0.0333 -1.6114 -1.3621
18691TIP3   OH277487   5.239   1.216  11.158  0.2030  0.3733 -0.4789
18691TIP3    H177488   5.264   1.143  11.102 -0.6679 -0.9518  0.8403
18691TIP3    H277489   5.143   1.215  11.158  0.1974  0.4574  0.9170
18692TIP3   OH277490   5.836   6.726  14.808  0.0274 -0.3592 -0.3052
18692TIP3    H177491   5.917   6.696  14.850  0.4114  0.6841 -0.2729
18692TIP3    H277492   5.772   6.728  14.879  0.5581  0.9576  0.1582
18693TIP3   OH277493   0.258   4.754   0.796 -0.3022 -0.4147  0.4414
18693TIP3    H177494   0.234   4.713   0.879 -1.8791 -0.3793  0.0256
18693TIP3    H277495   0.193   4.721   0.733 -0.4686  1.2644 -0.2962
18694TIP3   OH277496   6.751   3.167  14.370 -0.2712  0.7984  0.4633
18694TIP3    H177497   6.719   3.116  14.296  1.3839  0.8054 -0.2736
18694TIP3    H277498   6.708   3.252  14.362  2.5687  2.0581 -2.5729
18695TIP3   OH277499   2.795   0.704  13.414 -0.2481  0.0093 -0.1301
18695TIP3    H177500   2.746   0.633  13.455 -0.8984 -1.1122 -2.7407
18695TIP3    H277501   2.875   0.663  13.382  1.6146  1.4672  2.4928
18696TIP3   OH277502   3.194   1.195   5.038  0.2901 -0.1233 -0.2546
18696TIP3    H177503   3.264   1.252   5.008  1.3195 -2.1102 -1.7206
18696TIP3    H277504   3.213   1.110   4.998 -2.5627 -0.8786 -0.1026
18697TIP3   OH277505   3.764   0.406   0.879 -0.0660  0.2067  0.1318
18697TIP3    H177506   3.780   0.376   0.968  0.0918  1.1562  0.4307
18697TIP3    H277507   3.705   0.341   0.842 -1.5494  0.7461  1.5138
18698TIP3   OH277508   0.585   2.393   5.002 -0.1291  0.4386  0.1206
18698TIP3    H177509   0.588   2.397   5.097 -0.1167 -0.7886  0.1837
18698TIP3    H277510   0.560   2.302   4.983  0.8067  0.4217 -1.0505
18699TIP3   OH277511   2.998   0.308   3.148  0.4567 -0.3033  0.4279
18699TIP3    H177512   3.010   0.216   3.171  2.2710 -0.1007  0.3369
18699TIP3    H277513   2.922   0.309   3.090  1.2764 -1.9311 -0.6972
18700TIP3   OH277514   3.872   6.123   3.884  0.3961  0.1663  0.3570
18700TIP3    H177515   3.899   6.115   3.976 -0.9408 -0.6027  0.6878
18700TIP3    H277516   3.869   6.032   3.852 -0.4633  0.3371 -0.0598
18701TIP3   OH277517   1.881   5.143  14.661 -0.0711 -0.6837  0.0573
18701TIP3    H177518   1.881   5.228  14.705  1.8781 -0.9315  0.6189
18701TIP3    H277519   1.797   5.104  14.684 -0.9699  1.0691 -0.1795
18702TIP3   OH277520   0.265   4.644   2.591  0.0573 -0.0607 -0.2406
18702TIP3    H177521   0.243   4.551   2.590  1.5496 -0.4350  0.2177
18702TIP3    H277522   0.203   4.683   2.653  2.0698 -1.4575  2.7464
18703TIP3   OH277523   6.093   5.759  16.119  0.0609  0.3043  0.1338
18703TIP3    H177524   6.082   5.852  16.100 -0.5590  0.6049  1.8731
18703TIP3    H277525   6.169   5.755  16.178 -0.5797 -0.1795  0.9315
18704TIP3   OH277526   5.006   2.446  14.372  0.1780 -0.0034  0.4927
18704TIP3    H177527   4.913   2.445  14.349 -0.1767 -0.0214  1.8295
18704TIP3    H277528   5.048   2.496  14.302 -0.8110 -0.1742 -0.2298
18705TIP3   OH277529   5.329   4.688   1.026  0.0897 -0.2073  0.2156
18705TIP3    H177530   5.306   4.607   0.981  0.1158 -0.7168  1.1021
18705TIP3    H277531   5.411   4.716   0.984 -0.1328 -0.4277 -0.3661
18706TIP3   OH277532   1.140   5.891   5.953  0.4708  0.1238  0.3371
18706TIP3    H177533   1.133   5.854   6.041 -1.4438  0.6506  0.4453
18706TIP3    H277534   1.131   5.986   5.967 -1.2804  0.1018 -0.5483
18707TIP3   OH277535   6.403   5.385   5.028  0.4035  0.4098 -0.3323
18707TIP3    H177536   6.479   5.428   4.989  1.6434 -1.6957 -0.3460
18707TIP3    H277537   6.401   5.417   5.118 -0.3056  2.5138 -1.0672
18708TIP3   OH277538   5.475   1.712  11.670  0.0515 -0.1929 -0.3969
18708TIP3    H177539   5.401   1.651  11.667 -0.1512  0.0889 -1.0870
18708TIP3    H277540   5.552   1.656  11.660 -0.1747 -0.2532 -1.8713
18709TIP3   OH277541   1.772   5.352  16.843  0.9294  0.2582 -0.5388
18709TIP3    H177542   1.805   5.416  16.906  1.4087  1.7884 -2.3294
18709TIP3    H277543   1.677   5.364  16.844  1.0290  1.0995 -0.9778
18710TIP3   OH277544   0.891   2.582  17.217 -0.2086  0.3428 -0.5187
18710TIP3    H177545   0.885   2.666  17.262 -0.1440 -0.8897  1.8878
18710TIP3    H277546   0.984   2.560  17.219 -0.1909  0.3283 -1.3670
18711TIP3   OH277547   6.054   6.571   0.332  0.3448 -0.5625  0.5448
18711TIP3    H177548   6.012   6.560   0.417 -2.9341 -1.2249 -1.0813
18711TIP3    H277549   6.099   6.655   0.338  0.0546 -0.5426  2.8865
18712TIP3   OH277550   1.670   5.110   5.559 -0.5215 -0.8277 -0.0019
18712TIP3    H177551   1.665   5.062   5.477 -1.7925 -0.4736 -0.1389
18712TIP3    H277552   1.672   5.202   5.534 -0.0978 -0.7444  0.3307
18713TIP3   OH277553   2.548   6.475   4.225 -0.4819  0.1827  0.4585
18713TIP3    H177554   2.642   6.465   4.214 -0.8527 -1.4096 -1.5500
18713TIP3    H277555   2.538   6.550   4.284  1.9630  1.6769 -0.9764
18714TIP3   OH277556   5.616   1.606  13.617 -0.1442  0.0217  0.0095
18714TIP3    H177557   5.680   1.581  13.550  0.1740 -1.6712  0.9138
18714TIP3    H277558   5.665   1.601  13.699 -1.1649 -0.2869  0.6052
18715TIP3   OH277559   1.359   1.201   3.117  0.5306  0.2252 -0.0234
18715TIP3    H177560   1.327   1.118   3.081  0.4175  0.6662 -0.9759
18715TIP3    H277561   1.310   1.268   3.070  1.2892  0.8549  0.0598
18716TIP3   OH277562   3.710   3.236  11.961 -0.7320  0.0164 -0.1905
18716TIP3    H177563   3.659   3.314  11.939 -1.2663 -0.1256  0.5146
18716TIP3    H277564   3.700   3.227  12.056  0.5389 -0.0589 -0.0511
18717TIP3   OH277565   5.918   6.228  15.947  0.1619  0.7251  0.4446
18717TIP3    H177566   5.845   6.278  15.910  0.7852  2.7252  1.7996
18717TIP3    H277567   5.918   6.146  15.898 -1.7522  1.4932 -0.9345
18718TIP3   OH277568   5.283   0.529  12.887 -0.3350  0.0125 -0.2062
18718TIP3    H177569   5.291   0.455  12.826  0.7709  0.2783 -0.3951
18718TIP3    H277570   5.325   0.602  12.841 -1.3498  0.7313  0.0161
18719TIP3   OH277571   2.949   0.993   3.776 -0.0005 -0.2178  0.3474
18719TIP3    H177572   2.933   1.053   3.848 -0.1968  0.8117 -0.5334
18719TIP3    H277573   2.882   1.014   3.711 -1.1597 -2.5603  0.7188
18720TIP3   OH277574   5.641   1.688   2.511  0.2474  0.6005  0.0062
18720TIP3    H177575   5.680   1.645   2.587  1.3203  0.3945 -0.6493
18720TIP3    H277576   5.605   1.770   2.545  0.1627  0.2091  0.8516
18721TIP3   OH277577   4.075   3.219  14.152  0.2655 -0.3869 -0.3492
18721TIP3    H177578   4.111   3.232  14.064 -0.9005  0.4989 -0.6993
18721TIP3    H277579   4.048   3.306  14.180 -0.8837 -0.9174  0.2196
18722TIP3   OH277580   3.733   6.692  12.439  0.5489 -0.4358  0.3144
18722TIP3    H177581   3.648   6.655  12.417 -0.4874  1.5854  0.8277
18722TIP3    H277582   3.729   6.708  12.533  1.2156  0.3781  0.2063
18723TIP3   OH277583   3.438   6.110  15.743 -0.1130 -0.4092 -0.6914
18723TIP3    H177584   3.478   6.190  15.779  0.2884 -1.0943  0.4148
18723TIP3    H277585   3.511   6.049  15.733 -0.4384 -0.6811 -1.4082
18724TIP3   OH277586   5.556   6.143   4.925 -0.2803 -0.3875  0.4245
18724TIP3    H177587   5.585   6.081   4.859  1.0485  0.1435  0.4800
18724TIP3    H277588   5.461   6.134   4.928 -0.1590 -1.8430 -0.1162
18725TIP3   OH277589   4.824   1.357   5.675 -0.4232  0.2697  0.3219
18725TIP3    H177590   4.736   1.383   5.702 -0.3975  1.2179 -0.4659
18725TIP3    H277591   4.869   1.336   5.757 -0.9810  1.0579  0.8455
18726TIP3   OH277592   1.567   5.124  15.871 -0.1708 -0.1928 -0.0260
18726TIP3    H177593   1.492   5.173  15.837  0.3956 -0.6607 -2.0055
18726TIP3    H277594   1.639   5.187  15.869 -0.3249  0.0330  1.1611
18727TIP3   OH277595   0.970   1.136  12.909  0.1557 -0.3923  0.2393
18727TIP3    H177596   0.944   1.221  12.872  1.3893 -0.1675 -0.1214
18727TIP3    H277597   0.974   1.152  13.004  0.7639  0.0564  0.1385
18728TIP3   OH277598   5.890   1.085  13.150 -0.5646  0.2312  0.1810
18728TIP3    H177599   5.822   1.018  13.154  0.0255 -0.3798 -0.0024
18728TIP3    H277600   5.846   1.161  13.112 -1.1484 -0.1541  0.0759
18729TIP3   OH277601   2.636   5.089  14.193  0.1117  0.0178  0.3297
18729TIP3    H177602   2.677   5.060  14.111 -1.8355 -0.7549 -0.3887
18729TIP3    H277603   2.633   5.185  14.185 -0.0881 -0.0507 -0.5128
18730TIP3   OH277604   5.799   5.655  15.962 -0.6443 -0.0694  0.4937
18730TIP3    H177605   5.823   5.616  16.046  1.5924 -0.6550 -0.4108
18730TIP3    H277606   5.878   5.700  15.932 -1.8888  1.4619 -0.5667
18731TIP3   OH277607   1.660   3.340   5.303 -0.4096  0.1446 -0.5070
18731TIP3    H177608   1.617   3.311   5.223  0.3987 -0.8822 -0.5857
18731TIP3    H277609   1.629   3.430   5.316 -2.0677 -0.3671 -0.8861
18732TIP3   OH277610   6.378   6.374   0.877  0.0661 -0.3818 -0.0641
18732TIP3    H177611   6.419   6.370   0.791 -1.4691  1.4302 -0.9149
18732TIP3    H277612   6.447   6.347   0.938  1.5408 -0.4398 -1.7273
18733TIP3   OH277613   4.908   6.437  14.127 -0.0645 -0.1532 -0.7771
18733TIP3    H177614   4.836   6.375  14.118  2.1124 -3.1150  1.2867
18733TIP3    H277615   4.886   6.489  14.204 -0.6051 -0.1780 -0.9127
18734TIP3   OH277616   6.567   5.552  16.916  0.7185 -0.4664 -0.0012
18734TIP3    H177617   6.640   5.608  16.942  0.3376 -0.0972  0.2765
18734TIP3    H277618   6.502   5.612  16.882  1.5738 -1.0239 -2.7210
18735TIP3   OH277619   4.304   2.667  14.179 -0.0343 -0.1915  0.2334
18735TIP3    H177620   4.369   2.737  14.189 -0.0493  0.0300 -1.0334
18735TIP3    H277621   4.323   2.631  14.092 -1.9178  0.1946 -0.3529
18736TIP3   OH277622   0.139   0.355  16.830  0.0489  0.0118 -0.1590
18736TIP3    H177623   0.054   0.339  16.870 -0.2397  0.1082 -0.7314
18736TIP3    H277624   0.148   0.286  16.765  0.7870 -0.5174  0.4895
18737TIP3   OH277625   1.604   5.521  13.463 -0.0156 -0.1808  0.3965
18737TIP3    H177626   1.601   5.585  13.534 -0.4238 -1.0381  1.1560
18737TIP3    H277627   1.532   5.461  13.481  0.9811 -1.4462  0.2423
18738TIP3   OH277628   5.232   3.033   4.286 -0.1921 -0.2208 -0.8833
18738TIP3    H177629   5.252   3.065   4.198 -0.1184  0.0728 -0.7596
18738TIP3    H277630   5.145   3.068   4.305 -0.3442 -0.5494 -0.9653
18739TIP3   OH277631   2.252   0.397  10.267  0.0868 -0.3442  0.1111
18739TIP3    H177632   2.160   0.377  10.250  0.5109  0.2701 -3.1384
18739TIP3    H277633   2.300   0.320  10.236  0.7839  0.0681  0.1518
18740TIP3   OH277634   3.345   3.340  15.439  0.1145 -0.0604  0.1139
18740TIP3    H177635   3.267   3.331  15.384 -1.1558 -0.0223  1.8635
18740TIP3    H277636   3.409   3.383  15.383 -1.3940  0.6337 -1.1091
18741TIP3   OH277637   1.747   2.170  12.842 -0.3133 -0.2440 -0.1533
18741TIP3    H177638   1.659   2.205  12.854 -0.5894 -0.2320 -2.0907
18741TIP3    H277639   1.779   2.155  12.931 -2.1916 -0.0573  0.5753
18742TIP3   OH277640   4.186   3.367  13.654  0.3706 -0.3208 -0.1658
18742TIP3    H177641   4.154   3.382  13.565  1.3722  0.4555 -0.4078
18742TIP3    H277642   4.278   3.345  13.643 -0.0841 -2.7716  0.4975
18743TIP3   OH277643   2.870   0.366  15.565 -0.4330  0.5148 -0.6861
18743TIP3    H177644   2.818   0.440  15.598  0.6633  0.8738  0.2529
18743TIP3    H277645   2.821   0.336  15.488 -2.6453  0.1154  0.8150
18744TIP3   OH277646   6.081   4.219   0.193 -0.5155  0.0429  0.5494
18744TIP3    H177647   6.102   4.160   0.121  0.1102  1.5433 -0.5179
18744TIP3    H277648   6.152   4.283   0.195 -2.3659  2.2116  0.1136
18745TIP3   OH277649   0.751   1.685   2.510 -0.5760 -0.5115 -0.2808
18745TIP3    H177650   0.835   1.722   2.534  0.3960 -3.5277  1.1084
18745TIP3    H277651   0.686   1.748   2.542  1.0925  1.7378 -1.2232
18746TIP3   OH277652   4.331   6.515  15.352  0.4396 -0.3765 -0.0117
18746TIP3    H177653   4.245   6.557  15.353  0.7915  0.3566 -0.2018
18746TIP3    H277654   4.312   6.422  15.362 -0.3099 -0.1234  1.0565
18747TIP3   OH277655   6.564   6.280  13.648 -0.2049  0.0922 -0.1278
18747TIP3    H177656   6.565   6.372  13.675  1.2411 -0.2242  0.9932
18747TIP3    H277657   6.558   6.283  13.552  0.2955  1.3679 -0.1321
18748TIP3   OH277658   2.802   2.258  13.495 -0.3476 -0.4937  0.3149
18748TIP3    H177659   2.743   2.265  13.420 -0.0577  0.8080  0.2042
18748TIP3    H277660   2.744   2.262  13.571 -0.4108  0.8517  0.2088
18749TIP3   OH277661   6.195   5.990   3.810  0.0209  0.1840  0.1613
18749TIP3    H177662   6.186   6.085   3.808 -0.1253  0.1996  1.4971
18749TIP3    H277663   6.194   5.967   3.903 -0.2324 -1.1519 -0.1585
18750TIP3   OH277664   5.062   3.988  16.801  0.4916  0.0094  0.0304
18750TIP3    H177665   5.113   4.026  16.729  0.9171  1.2750  0.9672
18750TIP3    H277666   5.054   4.060  16.864 -0.9429 -0.7121  0.6826
18751TIP3   OH277667   6.421   3.491  16.584  0.4716  0.3781 -0.5354
18751TIP3    H177668   6.434   3.403  16.620 -0.2429 -0.4620 -2.2653
18751TIP3    H277669   6.489   3.499  16.517  1.3122  1.6388  0.4410
18752TIP3   OH277670   5.686   6.403  13.585  0.2383  0.0433  0.0120
18752TIP3    H177671   5.604   6.379  13.542  0.3655  1.2010 -0.8940
18752TIP3    H277672   5.679   6.365  13.672 -1.6386  0.8967  0.2608
18753TIP3   OH277673   1.545   5.755   1.854  0.3995  1.0311  0.2940
18753TIP3    H177674   1.497   5.834   1.827  0.4027  0.7648 -0.5104
18753TIP3    H277675   1.502   5.684   1.806 -0.5114  0.3450  2.0775
18754TIP3   OH277676   5.461   1.806   1.883 -0.7745  0.7328 -0.2436
18754TIP3    H177677   5.453   1.843   1.971 -0.9529 -0.1854  0.1343
18754TIP3    H277678   5.392   1.739   1.879 -0.5043  0.4924 -0.9382
18755TIP3   OH277679   3.514   2.142   5.292  0.1711 -0.3938  0.2044
18755TIP3    H177680   3.530   2.199   5.217 -0.8626 -0.5660 -0.1618
18755TIP3    H277681   3.424   2.163   5.319  0.8857  0.3934  2.0227
18756TIP3   OH277682   1.377   5.205  12.699  0.3976 -0.5422  0.1707
18756TIP3    H177683   1.339   5.126  12.662  0.0670 -1.5835  2.6699
18756TIP3    H277684   1.305   5.247  12.746  0.7389  0.9126 -0.5575
18757TIP3   OH277685   1.322   6.397  10.672  0.1514  0.3081  0.2676
18757TIP3    H177686   1.241   6.430  10.710 -0.1367  0.1969 -0.2492
18757TIP3    H277687   1.387   6.465  10.692 -0.1978  0.6703  0.1642
18758TIP3   OH277688   1.859   1.205  14.831 -0.2541  0.0216  0.3001
18758TIP3    H177689   1.890   1.124  14.873  1.3680  0.9488  0.9227
18758TIP3    H277690   1.888   1.198  14.740  0.7524  0.3283  0.5868
18759TIP3   OH277691   6.075   4.799   2.007 -0.2396  0.1091  0.0210
18759TIP3    H177692   6.081   4.768   1.917  0.9006 -0.1259  0.1745
18759TIP3    H277693   6.160   4.779   2.045 -0.4702  0.8557  0.9464
18760TIP3   OH277694   0.033   3.501   4.477  0.2732  0.2219  0.0732
18760TIP3    H177695   0.053   3.458   4.560 -0.3510 -0.5175 -0.1528
18760TIP3    H277696   0.107   3.480   4.420 -0.7801 -1.9381 -0.5483
18761TIP3   OH277697   4.973   6.651  11.971  0.4197 -0.0151  0.2133
18761TIP3    H177698   4.996   6.743  11.983  1.4508 -0.1337 -0.7287
18761TIP3    H277699   4.975   6.614  12.059 -1.5597  1.2000  0.7989
18762TIP3   OH277700   6.617   2.402  13.478 -0.0349 -0.1689 -0.5128
18762TIP3    H177701   6.562   2.325  13.489  0.3305 -0.8317 -3.0581
18762TIP3    H277702   6.703   2.374  13.511  0.0784 -0.8333 -1.3578
18763TIP3   OH277703   2.771   1.866   2.251 -0.1342  0.1184 -0.0272
18763TIP3    H177704   2.793   1.878   2.344 -1.0464 -1.8435  0.4898
18763TIP3    H277705   2.816   1.786   2.226 -1.4953 -0.4596 -0.7022
18764TIP3   OH277706   6.645   3.838  16.240 -0.1133  0.5710  0.0345
18764TIP3    H177707   6.637   3.897  16.165  2.7984  0.2106 -0.6436
18764TIP3    H277708   6.738   3.840  16.262 -0.3261 -2.0461  1.4146
18765TIP3   OH277709   2.131   2.338   1.581 -0.0051 -0.2412  0.2055
18765TIP3    H177710   2.114   2.431   1.597 -0.4530 -0.1513 -0.7335
18765TIP3    H277711   2.058   2.292   1.624  0.6617 -0.2119  1.3776
18766TIP3   OH277712   1.484   1.435  10.263 -0.0804  0.0407  0.6883
18766TIP3    H177713   1.573   1.458  10.291  0.1802 -0.0309 -0.0692
18766TIP3    H277714   1.437   1.421  10.345  0.5182  0.4008  1.1059
18767TIP3   OH277715   6.311   4.510  13.083  0.0206  0.4590  0.4025
18767TIP3    H177716   6.374   4.540  13.148  0.2454  0.0608  0.3668
18767TIP3    H277717   6.233   4.486  13.134  0.0835  0.4525  0.4946
18768TIP3   OH277718   2.339   3.422  14.694 -0.3234 -0.2362  0.3380
18768TIP3    H177719   2.379   3.473  14.764 -0.8071  1.6055 -0.7049
18768TIP3    H277720   2.410   3.368  14.660  0.5245  0.7454  0.5487
18769TIP3   OH277721   3.820   5.589  12.653 -0.5349  0.9332 -0.5863
18769TIP3    H177722   3.750   5.618  12.595 -1.1989 -0.0563 -0.2921
18769TIP3    H277723   3.898   5.635  12.622 -0.7450 -0.0418 -2.6464
18770TIP3   OH277724   2.191   3.959  17.065 -0.3597  0.5074  0.1292
18770TIP3    H177725   2.280   3.987  17.087 -0.1776  1.5206 -1.7764
18770TIP3    H277726   2.145   3.959  17.149  1.1732  0.9132  1.0117
18771TIP3   OH277727   2.783   1.314   4.304  0.6706  0.0868  0.4012
18771TIP3    H177728   2.747   1.372   4.370 -0.2456  0.5999 -0.5275
18771TIP3    H277729   2.862   1.357   4.274 -0.4395  1.2838 -0.8678
18772TIP3   OH277730   1.265   0.292   0.061  0.2624  0.0125  0.1950
18772TIP3    H177731   1.260   0.217   0.121 -1.6455  1.6511  2.1922
18772TIP3    H277732   1.341   0.342   0.092  0.9045 -0.5467 -0.4733
18773TIP3   OH277733   6.389   6.651   4.401 -0.4409 -0.0957 -0.4105
18773TIP3    H177734   6.471   6.609   4.427 -0.2024  0.0784 -0.8799
18773TIP3    H277735   6.415   6.741   4.381 -1.1549  0.6819  1.9226
18774TIP3   OH277736   0.205   3.280  13.301 -0.0469  0.3284 -0.3305
18774TIP3    H177737   0.194   3.325  13.385 -0.3457  0.0887 -0.2419
18774TIP3    H277738   0.178   3.344  13.235  1.9308  1.1775 -0.3713
18775TIP3   OH277739   5.761   2.406  14.556  0.3279 -0.8562 -0.2471
18775TIP3    H177740   5.778   2.500  14.551 -0.6012 -0.6755 -0.0800
18775TIP3    H277741   5.796   2.380  14.641 -1.3176 -0.2556  0.6210
18776TIP3   OH277742   2.092   1.366   2.862  0.1090  0.0066  0.4451
18776TIP3    H177743   2.146   1.288   2.851 -0.8453 -0.6796  0.5662
18776TIP3    H277744   2.021   1.339   2.920 -1.4698  0.3397 -1.2738
18777TIP3   OH277745   2.284   4.249  12.943  0.0120  0.4540 -0.0298
18777TIP3    H177746   2.346   4.309  12.984  0.0346  0.7052 -0.4257
18777TIP3    H277747   2.198   4.282  12.970  0.0613 -0.3273  1.1143
18778TIP3   OH277748   1.066   2.716   2.149 -0.3148 -0.1964 -0.5638
18778TIP3    H177749   1.061   2.800   2.103 -0.5534  0.5749  0.8339
18778TIP3    H277750   1.005   2.726   2.223 -0.1495 -1.5070 -0.2465
18779TIP3   OH277751   4.646   1.739  14.823  0.4732  0.8568 -0.2024
18779TIP3    H177752   4.665   1.728  14.916  1.6858  1.9336 -0.3115
18779TIP3    H277753   4.717   1.695  14.778 -1.3460 -1.7291 -0.6666
18780TIP3   OH277754   2.796   1.988   0.429  0.0781  0.0589  0.5256
18780TIP3    H177755   2.735   2.060   0.415  1.0250  0.4791 -1.5840
18780TIP3    H277756   2.740   1.916   0.459 -1.7422 -0.0244 -2.7961
18781TIP3   OH277757   0.706   4.959   0.034  0.0008  0.1948  0.4101
18781TIP3    H177758   0.677   5.049   0.051  1.7285  0.9192 -0.3541
18781TIP3    H277759   0.695   4.914   0.117  0.0705  1.3844  1.0732
18782TIP3   OH277760   6.217   2.537  10.699 -0.6647  0.2136  0.5688
18782TIP3    H177761   6.183   2.555  10.612 -1.4184  0.8136  0.9831
18782TIP3    H277762   6.187   2.448  10.719 -0.9214  0.2711  0.4311
18783TIP3   OH277763   4.824   3.513   5.719  0.2440 -0.1594  0.3837
18783TIP3    H177764   4.880   3.439   5.744 -0.6920  0.0218  3.2477
18783TIP3    H277765   4.749   3.506   5.778 -0.2083  2.6430  0.2011
18784TIP3   OH277766   0.259   3.952   5.919  0.0526 -0.4095  0.4291
18784TIP3    H177767   0.218   4.013   5.858  1.5213  0.4474  0.2622
18784TIP3    H277768   0.191   3.888   5.939 -1.4515  1.1862  0.4868
18785TIP3   OH277769   3.888   3.490   4.423 -0.6886  1.0988 -0.2289
18785TIP3    H177770   3.853   3.401   4.421 -1.0927  1.2724 -1.1986
18785TIP3    H277771   3.969   3.482   4.473 -0.8378  0.2276 -0.1098
18786TIP3   OH277772   2.151   2.925   5.379 -0.5364  0.2651  0.5801
18786TIP3    H177773   2.075   2.898   5.429  0.0768 -1.5920  0.5793
18786TIP3    H277774   2.189   2.998   5.428 -1.6636  0.4505  1.1731
18787TIP3   OH277775   3.129   6.468  14.187 -0.4411  0.3268 -0.1903
18787TIP3    H177776   3.150   6.375  14.183 -0.6374  0.2436  0.7251
18787TIP3    H277777   3.146   6.493  14.278 -1.5304  0.9156 -0.1382
18788TIP3   OH277778   2.704   2.251  14.286  0.4704  0.1391  0.4641
18788TIP3    H177779   2.758   2.205  14.221 -0.0646 -2.0156  1.5160
18788TIP3    H277780   2.693   2.188  14.357 -4.3813  0.0753 -0.1965
18789TIP3   OH277781   4.904   2.889   2.791 -0.2504 -0.2451  0.2297
18789TIP3    H177782   4.946   2.921   2.871 -0.8773  1.6826 -0.1988
18789TIP3    H277783   4.944   2.803   2.776  2.2044  0.7596  0.8275
18790TIP3   OH277784   3.227   5.441  12.158  0.0136 -0.3865 -0.6567
18790TIP3    H177785   3.285   5.403  12.225 -1.3724 -1.6021 -0.1208
18790TIP3    H277786   3.286   5.468  12.088  1.2827 -1.1376  0.1002
18791TIP3   OH277787   2.314   1.192  14.956 -0.2491 -0.5716  0.0621
18791TIP3    H177788   2.320   1.230  14.868 -0.9175 -1.5422 -0.4185
18791TIP3    H277789   2.404   1.168  14.978 -0.6054 -4.4805 -2.2732
18792TIP3   OH277790   1.348   3.373  14.053  0.9076 -0.4643 -0.2914
18792TIP3    H177791   1.318   3.345  14.139 -0.2456  1.6165  0.0143
18792TIP3    H277792   1.299   3.319  13.991  0.1081 -0.4425  0.3160
18793TIP3   OH277793   5.405   4.765  14.406 -0.5122  0.2611  0.0587
18793TIP3    H177794   5.327   4.787  14.355 -0.0553 -0.6348 -1.0425
18793TIP3    H277795   5.371   4.729  14.488 -1.2459 -0.0209 -0.3742
18794TIP3   OH277796   2.117   6.232   2.806 -0.2106  0.2113  0.6761
18794TIP3    H177797   2.212   6.228   2.812  0.0191  2.7373 -0.6964
18794TIP3    H277798   2.086   6.173   2.875  2.3183 -1.6016  0.3224
18795TIP3   OH277799   2.156   5.583  12.296  0.2423  0.6496  0.1347
18795TIP3    H177800   2.075   5.635  12.295 -0.0466  0.2153 -1.2731
18795TIP3    H277801   2.179   5.574  12.203  1.1150 -0.4424  0.4495
18796TIP3   OH277802   0.490   6.254   4.827 -0.1620 -0.2088  0.5310
18796TIP3    H177803   0.429   6.256   4.754  0.0212  3.3462  0.3779
18796TIP3    H277804   0.435   6.267   4.904 -0.0410 -1.1649  0.7835
18797TIP3   OH277805   6.263   2.854  16.324  0.2314 -0.4855 -0.4994
18797TIP3    H177806   6.313   2.865  16.243  0.0475 -2.2597 -0.8717
18797TIP3    H277807   6.226   2.765  16.318 -0.0796 -0.5028  1.3511
18798TIP3   OH277808   6.142   5.874  16.946  0.3894 -1.0278 -0.0620
18798TIP3    H177809   6.169   5.893  16.856 -1.7339 -2.4491 -1.0264
18798TIP3    H277810   6.192   5.796  16.969  0.5582 -0.9561 -0.1802
18799TIP3   OH277811   2.691   3.160   1.411 -0.2061  0.1673  0.0373
18799TIP3    H177812   2.628   3.208   1.358 -0.2888  0.0446  0.0227
18799TIP3    H277813   2.736   3.227   1.462  1.0546  0.4440 -1.4123
18800TIP3   OH277814   5.553   2.024   0.841 -0.3348 -0.3786 -0.3894
18800TIP3    H177815   5.557   2.117   0.819  1.1449 -0.3597 -0.1122
18800TIP3    H277816   5.626   1.985   0.793 -0.3251 -1.2228  0.2997
18801TIP3   OH277817   0.451   0.505  12.027 -0.1043 -0.5904  0.1697
18801TIP3    H177818   0.485   0.586  12.065 -0.5293 -0.6307  0.6478
18801TIP3    H277819   0.492   0.499  11.941  1.1509 -0.6702  0.7526
18802TIP3   OH277820   0.368   4.028  15.707  0.9179  0.1832  0.0927
18802TIP3    H177821   0.303   4.086  15.745  1.6226  2.2815 -1.8042
18802TIP3    H277822   0.328   3.941  15.711 -1.4564  1.2507  0.1538
18803TIP3   OH277823   5.433   4.106   0.497  1.0086 -0.6456 -0.2122
18803TIP3    H177824   5.443   4.014   0.471  0.2965 -0.6730 -0.4104
18803TIP3    H277825   5.411   4.102   0.590  0.1448 -0.7260 -0.4118
18804TIP3   OH277826   3.526   4.913  14.679  0.2668  0.6781  0.1063
18804TIP3    H177827   3.537   5.003  14.710  1.6368  1.4023 -2.3467
18804TIP3    H277828   3.577   4.909  14.598 -1.4059 -1.7398 -0.8829
18805TIP3   OH277829   5.996   4.396  11.415  0.7971 -0.1010  0.0638
18805TIP3    H177830   6.012   4.419  11.506 -2.5987  0.9002  0.4887
18805TIP3    H277831   5.979   4.302  11.416 -0.4244  0.1110  0.6951
18806TIP3   OH277832   1.296   2.178  17.146  0.0879  0.1589  0.4343
18806TIP3    H177833   1.259   2.180  17.058 -0.5956 -0.4311  0.7080
18806TIP3    H277834   1.251   2.107  17.190  1.4157 -0.4540  0.8383
18807TIP3   OH277835   6.387   4.251  16.005 -0.2077 -0.3974 -0.2340
18807TIP3    H177836   6.393   4.257  15.910  0.7985  1.2903 -0.0681
18807TIP3    H277837   6.435   4.326  16.038  0.1644 -1.4132  1.6425
18808TIP3   OH277838   2.943   6.680   3.708 -0.3559 -0.3290 -0.1005
18808TIP3    H177839   2.875   6.666   3.642 -0.0289  1.0405 -0.7467
18808TIP3    H277840   2.929   6.770   3.738  1.5208  0.1918 -0.6902
18809TIP3   OH277841   3.681   5.998   5.489  0.4001  0.1637  0.2060
18809TIP3    H177842   3.737   5.924   5.512  0.0366 -0.2282 -0.1675
18809TIP3    H277843   3.597   5.959   5.466  0.0114  0.7390  0.6132
18810TIP3   OH277844   2.143   1.812   0.681 -0.1912  0.0198 -0.0611
18810TIP3    H177845   2.178   1.731   0.719  0.0376  1.2405  2.4158
18810TIP3    H277846   2.063   1.829   0.730  0.7424  2.2933  0.7568
18811TIP3   OH277847   3.458   4.259  14.992 -0.5186 -0.0095  0.0487
18811TIP3    H177848   3.368   4.240  14.965 -1.0387  1.5312  0.6281
18811TIP3    H277849   3.496   4.173  15.010 -1.4725 -0.7644 -1.4351
18812TIP3   OH277850   2.448   3.594  12.333  0.6174  0.7348 -0.1564
18812TIP3    H177851   2.477   3.565  12.246  0.6839  0.3454 -0.0085
18812TIP3    H277852   2.497   3.674  12.350  2.6243 -0.6359  0.6659
18813TIP3   OH277853   2.251   6.036   4.939  0.3610  0.0511 -0.1221
18813TIP3    H177854   2.333   6.002   4.902  1.3939  1.3551  0.8767
18813TIP3    H277855   2.208   6.079   4.866  0.5172 -0.7457 -0.6865
18814TIP3   OH277856   6.698   1.831   6.034  0.6856  0.2507 -0.1505
18814TIP3    H177857   6.660   1.841   5.947  1.0307 -1.3189 -0.4899
18814TIP3    H277858   6.774   1.890   6.034 -0.3341  1.5990 -0.2831
18815TIP3   OH277859   4.213   5.962  11.033  0.5225 -0.3833  0.2393
18815TIP3    H177860   4.284   5.996  10.979 -0.5503 -0.7509 -1.4327
18815TIP3    H277861   4.157   6.038  11.050  1.7173  0.0920  2.2695
18816TIP3   OH277862   2.021   3.709   5.725 -0.5306  0.3641 -0.4932
18816TIP3    H177863   2.107   3.698   5.685 -1.2717  0.6193 -2.1880
18816TIP3    H277864   1.993   3.797   5.698 -1.0754  0.5095  0.5276
18817TIP3   OH277865   3.215   5.013   4.971  0.6645  0.1634  0.4351
18817TIP3    H177866   3.200   5.006   5.066 -0.7590  2.3245  0.4047
18817TIP3    H277867   3.246   5.103   4.959  0.0435  0.1606 -1.2509
18818TIP3   OH277868   4.681   0.782   4.943 -0.1686 -0.5669 -0.0146
18818TIP3    H177869   4.635   0.835   4.878 -1.9827 -0.5317  1.2470
18818TIP3    H277870   4.667   0.692   4.914 -1.7473 -0.5985  0.7793
18819TIP3   OH277871   1.429   3.105   6.520  0.6271  0.2906 -0.4189
18819TIP3    H177872   1.454   3.124   6.610 -0.7470  0.4427 -0.0553
18819TIP3    H277873   1.511   3.084   6.476  1.0953 -1.8073  1.3647
18820TIP3   OH277874   5.661   5.983  16.431  0.0123  0.5535 -0.5601
18820TIP3    H177875   5.724   5.997  16.502 -0.7564 -1.5273  0.5756
18820TIP3    H277876   5.702   6.023  16.355  2.8379 -0.9043  0.1032
18821TIP3   OH277877   0.583   3.511   3.355 -0.1459 -0.1482  0.6049
18821TIP3    H177878   0.586   3.606   3.368  2.9913 -0.0583 -0.3314
18821TIP3    H277879   0.524   3.500   3.280 -0.3616  1.0892  0.5754
18822TIP3   OH277880   4.295   6.173   2.245 -0.2838  0.1168 -0.1456
18822TIP3    H177881   4.370   6.161   2.187  0.4716  0.9439  0.6413
18822TIP3    H277882   4.292   6.267   2.261 -1.3792  0.0620 -0.0159
18823TIP3   OH277883   2.763   4.175   2.500  0.2060 -0.0679  0.1446
18823TIP3    H177884   2.676   4.154   2.533 -0.3266 -0.5074 -1.5127
18823TIP3    H277885   2.781   4.108   2.434  1.5385  0.3921  0.0221
18824TIP3   OH277886   4.065   4.838   0.612  0.0130 -0.0259  0.2045
18824TIP3    H177887   4.114   4.802   0.685  1.2103  1.2229  0.0420
18824TIP3    H277888   4.112   4.918   0.588 -1.2720  0.4322 -0.8974
18825TIP3   OH277889   1.038   1.321  11.983 -0.2929 -0.3432 -0.6619
18825TIP3    H177890   1.049   1.231  12.014 -1.0060 -0.3270 -0.3405
18825TIP3    H277891   0.943   1.335  11.984 -0.2489  0.0729 -1.6734
18826TIP3   OH277892   5.808   5.654   0.556 -0.2797 -0.1238  0.3755
18826TIP3    H177893   5.893   5.643   0.512  0.4503  0.1910  1.6655
18826TIP3    H277894   5.810   5.744   0.590 -0.6103 -0.5071  1.4474
18827TIP3   OH277895   0.083   2.086  14.471 -0.1668  0.1222  0.1845
18827TIP3    H177896   0.071   2.143  14.546  2.0843 -0.7213  1.2172
18827TIP3    H277897   0.051   2.000  14.500  1.1181 -0.3103  0.3406
18828TIP3   OH277898   2.121   4.559   2.991 -0.0116  0.2334  0.1070
18828TIP3    H177899   2.213   4.535   2.998  0.7493  3.6075  2.5846
18828TIP3    H277900   2.082   4.528   3.073 -0.4072  1.5624  0.4325
18829TIP3   OH277901   4.668   3.853  17.075  0.0649 -0.0870 -0.0815
18829TIP3    H177902   4.623   3.791  17.017 -0.2147  0.7076 -0.7107
18829TIP3    H277903   4.602   3.873  17.142 -0.3847  0.7463 -0.7638
18830TIP3   OH277904   6.275   1.271   3.701  0.8459  0.0981  0.3359
18830TIP3    H177905   6.270   1.201   3.635  3.5713 -0.8955  1.1513
18830TIP3    H277906   6.198   1.257   3.757  0.5746 -1.3282 -0.3840
18831TIP3   OH277907   0.095   2.287  14.681  0.7747  0.6652  0.0465
18831TIP3    H177908   0.138   2.281  14.766 -0.3360 -2.8122  0.4615
18831TIP3    H277909   0.073   2.379  14.671  0.6985  1.1132  3.6568
18832TIP3   OH277910   1.782   3.863   5.648 -0.3161  0.8927 -0.6170
18832TIP3    H177911   1.767   3.850   5.554  1.4314 -0.1772 -0.7605
18832TIP3    H277912   1.785   3.958   5.659 -1.4181  1.0416 -1.4898
18833TIP3   OH277913   4.379   5.226  17.130 -0.3369  0.2578  0.2737
18833TIP3    H177914   4.299   5.175  17.144  1.6232 -2.5152  1.5831
18833TIP3    H277915   4.408   5.250  17.218  1.2135 -0.1914 -0.1155
18834TIP3   OH277916   1.763   0.646   0.079 -0.5884  0.3562 -1.0091
18834TIP3    H177917   1.822   0.577   0.048 -1.3362 -1.1114  0.7375
18834TIP3    H277918   1.693   0.648   0.014 -0.5376 -0.4945 -1.0975
18835TIP3   OH277919   1.165   4.438  14.368 -0.2067 -0.1778 -0.0365
18835TIP3    H177920   1.229   4.474  14.429  0.5916  1.3483 -1.7028
18835TIP3    H277921   1.189   4.347  14.357 -0.2702 -0.4324  1.7735
18836TIP3   OH277922   5.399   6.671  10.837 -1.2844 -0.2902 -0.8065
18836TIP3    H177923   5.370   6.727  10.908  1.8993  0.4350 -0.0139
18836TIP3    H277924   5.480   6.711  10.806 -0.3553 -2.9749 -1.9961
18837TIP3   OH277925   5.121   2.385   5.458 -0.0047 -0.1626 -0.5634
18837TIP3    H177926   5.193   2.362   5.398 -0.0445 -1.7782 -0.0270
18837TIP3    H277927   5.064   2.308   5.455 -0.5573  0.2012  0.7177
18838TIP3   OH277928   5.663   1.869   0.427 -0.3059 -0.1895  0.3476
18838TIP3    H177929   5.726   1.919   0.376 -0.9648 -1.3228 -1.6147
18838TIP3    H277930   5.715   1.799   0.467 -0.4044 -1.6586 -1.9857
18839TIP3   OH277931   4.681   0.542   0.316 -0.8776  0.1159  0.0893
18839TIP3    H177932   4.637   0.589   0.386  0.2598  1.1216  0.1439
18839TIP3    H277933   4.663   0.593   0.237 -1.1724 -0.3667 -0.1605
18840TIP3   OH277934   4.886   6.637  15.510 -0.3455 -0.3422 -0.2726
18840TIP3    H177935   4.917   6.550  15.534 -0.1493 -0.6695 -1.6694
18840TIP3    H277936   4.801   6.622  15.469 -0.8895  0.2534  0.6076
18841TIP3   OH277937   1.082   3.468  12.690 -0.0240 -0.2275  0.1209
18841TIP3    H177938   1.095   3.445  12.598  0.0120  0.9236 -0.1670
18841TIP3    H277939   1.170   3.480  12.725 -0.0858  1.7151 -0.3228
18842TIP3   OH277940   3.969   2.402  10.671  0.0488 -0.4469  0.1205
18842TIP3    H177941   3.915   2.432  10.744 -0.1846  2.3939 -1.1677
18842TIP3    H277942   3.922   2.430  10.593  0.8733 -2.4537 -1.1425
18843TIP3   OH277943   5.239   5.253   0.002  0.5312 -0.3507  0.1766
18843TIP3    H177944   5.303   5.183  -0.012  2.4024  1.4400 -0.4150
18843TIP3    H277945   5.160   5.223  -0.043  2.0076 -1.0994 -1.9766
18844TIP3   OH277946   3.458   5.381  10.534 -0.6321 -0.4825 -0.1506
18844TIP3    H177947   3.366   5.369  10.510 -0.6101 -0.2391 -0.3600
18844TIP3    H277948   3.506   5.325  10.473 -0.4683  1.2906 -1.6995
18845TIP3   OH277949   1.101   4.191   1.885  0.6884 -0.3381  0.2837
18845TIP3    H177950   1.125   4.221   1.972  1.1103  0.2158 -0.0210
18845TIP3    H277951   1.185   4.168   1.844  0.7296  1.6458 -0.8084
18846TIP3   OH277952   3.939   6.489  14.210  0.0623  0.5647 -0.2397
18846TIP3    H177953   3.872   6.425  14.184 -1.8367  2.5214 -0.3106
18846TIP3    H277954   3.989   6.505  14.129  1.3265 -1.6532  0.0495
18847TIP3   OH277955   6.354   1.529  15.628  0.2661 -0.0336  0.1916
18847TIP3    H177956   6.357   1.624  15.640 -0.0257 -0.1842  1.4956
18847TIP3    H277957   6.445   1.505  15.610 -0.0133  0.7744 -2.5692
18848TIP3   OH277958   1.874   2.039  13.111  0.0216  0.1452  0.0095
18848TIP3    H177959   1.788   2.080  13.120  0.4679  0.6712  2.1993
18848TIP3    H277960   1.869   1.960  13.164  0.8960  0.2393  0.2482
18849TIP3   OH277961   5.236   4.818  11.529  0.2835 -0.6551  0.0328
18849TIP3    H177962   5.199   4.905  11.518  0.9576 -0.3460  0.1948
18849TIP3    H277963   5.317   4.819  11.478  0.7937 -0.8691  0.8291
18850TIP3   OH277964   1.456   0.055  14.258 -0.1854  0.2050 -0.0587
18850TIP3    H177965   1.446   0.150  14.246  1.8150  0.4880  0.3116
18850TIP3    H277966   1.491   0.024  14.174  0.2098 -0.0163  0.1811
18851TIP3   OH277967   3.121   6.674  13.252 -1.0015 -0.2500  0.3883
18851TIP3    H177968   3.074   6.736  13.308 -1.8205 -0.5661  0.0611
18851TIP3    H277969   3.052   6.622  13.210 -0.5619  1.6276 -2.8377
18852TIP3   OH277970   4.465   5.826  13.986  0.7264  0.1213 -0.1040
18852TIP3    H177971   4.532   5.834  14.054  1.1062 -0.9270 -0.3443
18852TIP3    H277972   4.509   5.780  13.915  0.3044  1.1181 -1.0273
18853TIP3   OH277973   3.491   5.796   0.052  0.2090  0.5717  0.1674
18853TIP3    H177974   3.563   5.829   0.106  0.3335 -0.7847  0.8811
18853TIP3    H277975   3.523   5.803  -0.038  0.6206  1.4119  0.3740
18854TIP3   OH277976   3.880   3.808   3.592 -0.1566  0.2460 -0.8021
18854TIP3    H177977   3.811   3.756   3.633 -0.5481  0.2494 -1.4436
18854TIP3    H277978   3.949   3.745   3.572  1.0105  0.6138  1.9106
18855TIP3   OH277979   1.018   4.988  12.429 -0.0576 -0.1712 -0.9804
18855TIP3    H177980   1.016   4.918  12.363 -1.1330 -0.0740 -1.0590
18855TIP3    H277981   0.926   5.013  12.441  0.2208  0.5052 -0.1779
18856TIP3   OH277982   6.148   2.799  15.739  0.4142 -0.2431 -0.1310
18856TIP3    H177983   6.170   2.750  15.819  1.7145  1.1849  0.4035
18856TIP3    H277984   6.230   2.800  15.688  0.2066  0.7784 -0.4513
18857TIP3   OH277985   0.993   5.303   4.576  0.1687 -0.3986 -0.8941
18857TIP3    H177986   1.023   5.393   4.560 -0.3422 -0.2077 -0.7876
18857TIP3    H277987   1.072   5.250   4.568  0.3810 -0.0005 -1.4823
18858TIP3   OH277988   4.671   2.682   1.078  0.0843  0.0546 -0.6420
18858TIP3    H177989   4.586   2.726   1.078  0.5355  0.9851  2.1558
18858TIP3    H277990   4.686   2.658   1.169  2.7541 -0.2744 -1.1290
18859TIP3   OH277991   2.235   1.876  16.674 -0.0879 -0.0339 -0.0581
18859TIP3    H177992   2.144   1.877  16.702 -0.1086 -1.7208  0.0047
18859TIP3    H277993   2.285   1.890  16.754 -0.2955  1.6795 -0.2108
18860TIP3   OH277994   2.200   2.833  13.813  0.0636  0.3619  0.3116
18860TIP3    H177995   2.122   2.822  13.868  0.3115 -1.1745  0.3800
18860TIP3    H277996   2.263   2.770  13.849  0.2552 -0.6237 -1.6807
18861TIP3   OH277997   3.597   1.385   4.612 -0.1126 -0.0050 -0.0766
18861TIP3    H177998   3.586   1.476   4.585 -0.5379  0.0314  0.2098
18861TIP3    H277999   3.648   1.345   4.542 -1.4749  0.0115 -1.1079
18862TIP3   OH278000   3.278   5.200  14.008 -0.4712  0.1119 -0.1657
18862TIP3    H178001   3.265   5.271  13.944  0.2458  0.3772 -0.0270
18862TIP3    H278002   3.298   5.246  14.090  1.5814 -0.2573 -0.4313
18863TIP3   OH278003   5.775   0.654   2.497 -0.5745 -0.0207 -0.1825
18863TIP3    H178004   5.808   0.601   2.570 -3.9536  0.6964  1.9878
18863TIP3    H278005   5.727   0.592   2.442  0.2411 -0.1888 -0.7161
18864TIP3   OH278006   0.780   4.982  11.483  0.7395 -0.2315 -0.4224
18864TIP3    H178007   0.702   4.951  11.436 -0.9138 -1.3549  2.9218
18864TIP3    H278008   0.830   4.903  11.502  1.8690  0.3165 -1.0639
18865TIP3   OH278009   4.367   0.979  16.518  0.0227 -0.0188  0.4104
18865TIP3    H178010   4.378   0.884  16.510 -0.4914  0.0730 -1.9752
18865TIP3    H278011   4.456   1.012  16.530  0.1714 -0.8199  1.6149
18866TIP3   OH278012   4.227   6.691   4.828  0.0307  0.0909 -0.2594
18866TIP3    H178013   4.267   6.687   4.915 -0.9188  2.6869  0.3399
18866TIP3    H278014   4.137   6.661   4.842  0.0456 -0.0453 -0.4597
18867TIP3   OH278015   6.024   0.681  15.739 -0.0690  0.0757 -0.1164
18867TIP3    H178016   5.967   0.755  15.718 -2.8137 -1.7800  0.5308
18867TIP3    H278017   6.008   0.618  15.669 -2.0657 -2.1955  2.2943
18868TIP3   OH278018   0.895   6.016   3.277 -0.4737  0.1735  0.0831
18868TIP3    H178019   0.875   5.926   3.304  0.2368  0.0655  0.2623
18868TIP3    H278020   0.941   6.054   3.351  1.4491 -0.1118 -0.9220
18869TIP3   OH278021   4.668   5.667  13.826  0.2189  0.1525  0.6681
18869TIP3    H178022   4.658   5.587  13.877  1.0111 -0.2655  0.1562
18869TIP3    H278023   4.761   5.670  13.802  0.1114  1.0004  0.3177
18870TIP3   OH278024   5.543   3.129  12.102 -0.5810  0.4605  0.1822
18870TIP3    H178025   5.577   3.214  12.074  0.3185 -0.0839 -0.4036
18870TIP3    H278026   5.558   3.072  12.027  0.1491 -0.5688  1.1011
18871TIP3   OH278027   3.826   5.714   0.698  0.0175 -0.3580  0.7206
18871TIP3    H178028   3.905   5.705   0.645 -0.3057 -0.2210  0.1992
18871TIP3    H278029   3.848   5.779   0.765  0.1227  0.2173  0.1376
18872TIP3   OH278030   4.481   1.158   1.523  0.1575  0.1876  0.0066
18872TIP3    H178031   4.570   1.123   1.513  0.2140  0.0414  0.9954
18872TIP3    H278032   4.428   1.083   1.550 -0.1513  0.4039  0.0035
18873TIP3   OH278033   2.697   5.640   4.615 -0.6169 -0.3433  0.1801
18873TIP3    H178034   2.711   5.648   4.709 -0.5380 -0.9923  0.2196
18873TIP3    H278035   2.735   5.556   4.591  0.6260  0.4283 -0.6676
18874TIP3   OH278036   6.091   0.237   2.473 -0.5269 -0.5461 -0.4663
18874TIP3    H178037   6.045   0.225   2.389 -0.8572  0.5562 -0.4640
18874TIP3    H278038   6.182   0.213   2.455 -0.6287 -0.4531 -1.1163
18875TIP3   OH278039   0.526   0.158  12.062 -0.1000 -0.2845  0.1678
18875TIP3    H178040   0.438   0.194  12.050 -0.6013 -1.9307 -1.3075
18875TIP3    H278041   0.557   0.142  11.973  1.9620  0.8424  0.6375
18876TIP3   OH278042   6.593   4.607   4.117 -0.3770 -0.3001  0.0957
18876TIP3    H178043   6.574   4.696   4.089 -0.3158 -0.1468  0.5333
18876TIP3    H278044   6.634   4.617   4.203 -0.5914 -0.7601  0.2543
18877TIP3   OH278045   4.382   2.408   1.939  0.0230 -0.1601  0.2546
18877TIP3    H178046   4.411   2.461   1.865  0.1015 -1.3988 -0.6231
18877TIP3    H278047   4.402   2.461   2.016  0.7863  0.7557 -0.5615
18878TIP3   OH278048   0.428   4.002  15.107 -0.4764  0.2907 -0.5195
18878TIP3    H178049   0.493   4.070  15.089  0.3239 -0.7042 -1.4421
18878TIP3    H278050   0.346   4.050  15.121  0.5757  1.6018  1.3573
18879TIP3   OH278051   5.400   6.613  11.957  0.3503  0.1760 -0.3808
18879TIP3    H178052   5.336   6.625  12.027  0.2955 -1.1617 -0.1898
18879TIP3    H278053   5.451   6.536  11.983  0.5940 -0.0914 -1.6026
18880TIP3   OH278054   4.695   2.458   2.728  0.6447  0.3239 -0.6818
18880TIP3    H178055   4.763   2.472   2.794 -0.5360 -0.4469  0.7273
18880TIP3    H278056   4.691   2.363   2.718 -1.6625  0.2274  0.8176
18881TIP3   OH278057   1.942   2.496  10.826  0.1609  0.2639  0.8874
18881TIP3    H178058   1.850   2.523  10.822  0.7909  2.5387  0.8054
18881TIP3    H278059   1.954   2.441  10.749 -1.3082 -0.6320  1.2745
18882TIP3   OH278060   6.208   4.129  12.675  0.5480 -0.2151  0.0990
18882TIP3    H178061   6.247   4.198  12.729  1.8146  0.2649 -1.4001
18882TIP3    H278062   6.258   4.050  12.697  0.9948 -0.0412 -0.2818
18883TIP3   OH278063   5.696   3.914   1.517 -0.0970 -0.1444  0.1691
18883TIP3    H178064   5.675   3.873   1.433  0.1630 -1.3230  0.6694
18883TIP3    H278065   5.708   3.840   1.577 -0.5271  0.7008  1.2983
18884TIP3   OH278066   0.742   0.011  13.699 -0.6366  0.1870 -0.0130
18884TIP3    H178067   0.726   0.051  13.614  0.6882 -1.3772 -1.0301
18884TIP3    H278068   0.834   0.032  13.718 -1.0111  0.7804  1.1635
18885TIP3   OH278069   5.261   2.110  16.822  0.5705 -0.3209 -0.3833
18885TIP3    H178070   5.307   2.183  16.782 -0.8767  0.6867 -0.2630
18885TIP3    H278071   5.316   2.084  16.896 -0.0560  2.2607  1.0675
18886TIP3   OH278072   6.339   1.077   1.486 -0.0747 -0.2040 -0.0609
18886TIP3    H178073   6.294   1.102   1.406  0.1313  0.5770  0.0682
18886TIP3    H278074   6.308   1.139   1.552  1.3829  0.5161 -0.0318
18887TIP3   OH278075   6.139   3.355  14.806  0.8179 -0.2360  0.4246
18887TIP3    H178076   6.156   3.435  14.756  0.1265 -0.3576 -0.0043
18887TIP3    H278077   6.213   3.297  14.785 -0.4101 -1.0053 -1.9431
18888TIP3   OH278078   6.262   3.670   1.655  0.2604  0.5335  0.2480
18888TIP3    H178079   6.323   3.597   1.667 -0.6459 -0.7648 -2.6106
18888TIP3    H278080   6.314   3.739   1.614 -0.0016 -0.3209 -1.5515
18889TIP3   OH278081   0.401   4.322  15.926 -0.0001 -0.5256 -0.5058
18889TIP3    H178082   0.322   4.349  15.973  1.1506  0.3808  1.0092
18889TIP3    H278083   0.400   4.373  15.846 -1.0076 -0.6075 -0.5512
18890TIP3   OH278084   0.269   1.873   5.686  0.4294  0.2281 -0.8350
18890TIP3    H178085   0.282   1.899   5.595 -1.8071  1.4490 -0.8429
18890TIP3    H278086   0.329   1.800   5.699  3.2849  2.2308 -2.2767
18891TIP3   OH278087   2.609   2.465  15.253  0.1667  0.2594  0.2911
18891TIP3    H178088   2.550   2.435  15.322 -0.0780 -0.6999 -0.3211
18891TIP3    H278089   2.554   2.518  15.195 -0.7182 -2.5215 -1.5644
18892TIP3   OH278090   1.371   5.139  16.210  0.7807 -0.0682 -0.2013
18892TIP3    H178091   1.350   5.098  16.295  0.7830  2.7705  1.2292
18892TIP3    H278092   1.304   5.206  16.199  0.5381 -0.6949 -2.6924
18893TIP3   OH278093   0.133   6.093   4.283 -0.1030 -0.1909 -0.0680
18893TIP3    H178094   0.164   6.169   4.333 -0.0800 -0.0674 -0.2660
18893TIP3    H278095   0.038   6.096   4.292 -0.1465  0.2424 -0.6112
18894TIP3   OH278096   5.688   0.314  11.163 -0.5900 -0.7264  0.0224
18894TIP3    H178097   5.745   0.241  11.139  1.7687  0.6565  1.2688
18894TIP3    H278098   5.614   0.308  11.102  1.2330 -2.1311 -2.1217
18895TIP3   OH278099   0.132   1.031  12.107  0.0545  0.0809 -0.0158
18895TIP3    H178100   0.122   1.123  12.130  0.0056 -0.5500  2.6657
18895TIP3    H278101   0.043   1.002  12.085 -0.5555 -0.1753  2.6282
18896TIP3   OH278102   2.262   6.610   0.301  0.5588  0.1486 -0.2177
18896TIP3    H178103   2.203   6.676   0.264 -1.4431 -0.7991  1.1713
18896TIP3    H278104   2.325   6.660   0.352  0.8435  1.1784 -1.5653
18897TIP3   OH278105   6.655   3.194  16.817 -0.3880  0.1445  0.5172
18897TIP3    H178106   6.721   3.179  16.750  0.5216 -2.0969  1.8528
18897TIP3    H278107   6.704   3.231  16.891 -1.2097  1.6606  0.3117
18898TIP3   OH278108   5.009   4.581  13.359 -0.8228  0.0685  0.3700
18898TIP3    H178109   5.093   4.605  13.399 -1.0507  1.0293  0.2750
18898TIP3    H278110   5.023   4.492  13.328 -0.7371 -0.8111  2.8449
18899TIP3   OH278111   1.741   3.288   1.690  0.2134 -0.6213 -0.3411
18899TIP3    H178112   1.742   3.382   1.708 -2.6527 -0.4761 -0.7067
18899TIP3    H278113   1.724   3.247   1.775 -0.0417 -0.7330 -0.4466
18900TIP3   OH278114   4.821   4.946  14.311  0.0691  0.0560  0.3600
18900TIP3    H178115   4.737   4.977  14.275 -0.1558  0.3427  1.1204
18900TIP3    H278116   4.884   4.963  14.242  0.0116  2.5601  0.8876
18901TIP3   OH278117   5.831   2.634   0.726 -0.5527  0.4590 -0.0848
18901TIP3    H178118   5.780   2.603   0.801  0.9696  0.8435  1.1487
18901TIP3    H278119   5.856   2.555   0.679 -0.6969  0.1434  0.3660
18902TIP3   OH278120   1.826   6.144   2.919  0.0005 -0.2738  0.9980
18902TIP3    H178121   1.849   6.075   2.857 -0.9868 -0.2999  0.6505
18902TIP3    H278122   1.845   6.106   3.005 -0.2569 -0.8685  0.7954
18903TIP3   OH278123   6.363   3.693   1.968  0.0944  0.2233  0.4747
18903TIP3    H178124   6.402   3.636   1.901  0.8486  0.3409  0.8026
18903TIP3    H278125   6.403   3.779   1.952  0.9886  0.0417  1.6504
18904TIP3   OH278126   3.099   4.085  11.781  0.1825 -0.0647 -0.4478
18904TIP3    H178127   3.045   4.103  11.857  1.1221 -1.4067  0.5712
18904TIP3    H278128   3.080   4.156  11.720 -1.2374  0.5432  0.6805
18905TIP3   OH278129   2.532   6.006   3.497 -0.0075  0.3969 -0.6266
18905TIP3    H178130   2.627   6.011   3.498  0.1298 -1.2698  2.6841
18905TIP3    H278131   2.503   6.078   3.553 -0.5023 -0.9527  0.9114
18906TIP3   OH278132   5.521   6.667   4.141  0.5830 -0.0156 -0.5708
18906TIP3    H178133   5.518   6.648   4.235 -0.9065  0.0487 -0.5901
18906TIP3    H278134   5.533   6.762   4.137  1.2406 -0.0892 -0.4564
18907TIP3   OH278135   0.100   5.163  10.798  0.6050  0.2639  0.1127
18907TIP3    H178136   0.084   5.104  10.725  1.7405 -0.0686  0.1256
18907TIP3    H278137   0.187   5.199  10.781  0.6208  0.6468  0.9818
18908TIP3   OH278138   6.004   5.861  13.366 -0.2559 -0.0433 -0.0063
18908TIP3    H178139   5.978   5.769  13.358  0.4044 -0.3414  1.1301
18908TIP3    H278140   5.977   5.901  13.283 -0.0248 -1.3794 -0.7371
18909TIP3   OH278141   4.495   1.624   0.816  0.4208 -0.0300 -0.5194
18909TIP3    H178142   4.573   1.573   0.798  0.2283 -0.8584  0.9476
18909TIP3    H278143   4.487   1.683   0.741  2.1489 -0.2901 -0.9234
18910TIP3   OH278144   6.315   4.455   1.691  0.3430  0.3595 -0.8275
18910TIP3    H178145   6.310   4.449   1.786 -1.8095  0.2144 -0.9106
18910TIP3    H278146   6.408   4.459   1.671  0.7963  1.0702  1.3329
18911TIP3   OH278147   3.213   5.510   0.183 -0.2202 -0.4032 -0.2203
18911TIP3    H178148   3.307   5.519   0.199 -0.2943  1.7428 -0.8701
18911TIP3    H278149   3.207   5.438   0.119  1.2283  1.2681 -2.3140
18912TIP3   OH278150   2.492   2.891  15.245  0.6064  0.4705  0.1246
18912TIP3    H178151   2.555   2.823  15.224 -0.9435 -0.7738 -0.5835
18912TIP3    H278152   2.423   2.846  15.293  0.5106  1.9263  1.4042
18913TIP3   OH278153   5.480   1.568   3.568  0.1328  0.4525  0.4383
18913TIP3    H178154   5.389   1.538   3.558 -0.1433  0.9648  1.3090
18913TIP3    H278155   5.521   1.501   3.622  0.0879  0.5689  0.6164
18914TIP3   OH278156   6.184   4.268  14.709  0.8597  0.1235 -0.0524
18914TIP3    H178157   6.113   4.283  14.646 -0.4290 -2.2904  0.7882
18914TIP3    H278158   6.245   4.211  14.663  0.4274 -0.7979  0.5026
18915TIP3   OH278159   6.744   0.826   0.078 -0.6910  0.3159 -0.6249
18915TIP3    H178160   6.840   0.820   0.087 -0.8614  0.3888  1.5105
18915TIP3    H278161   6.715   0.864   0.161 -2.7127 -1.0166 -0.6944
18916TIP3   OH278162   2.637   4.617  12.173  0.2895  0.1512  0.2760
18916TIP3    H178163   2.602   4.700  12.205  0.5812  0.4802 -0.2624
18916TIP3    H278164   2.635   4.559  12.250  0.3383  0.7326  0.7189
18917TIP3   OH278165   0.327   3.044  14.100  0.2386 -0.3061 -0.8701
18917TIP3    H178166   0.248   3.089  14.069  0.4771  0.6141 -0.1746
18917TIP3    H278167   0.298   2.992  14.174  0.2626 -0.0008 -0.6418
18918TIP3   OH278168   0.290   4.863   3.129 -0.4876  1.0205 -0.3166
18918TIP3    H178169   0.285   4.838   3.221 -0.3534 -1.0597 -0.8505
18918TIP3    H278170   0.269   4.956   3.128 -0.8561  0.9741  1.7746
18919TIP3   OH278171   2.359   1.866  13.539  0.2108  0.0654 -0.5159
18919TIP3    H178172   2.330   1.860  13.448  2.3144 -2.0812 -1.0862
18919TIP3    H278173   2.448   1.901  13.533  0.8067 -1.2302  0.6056
18920TIP3   OH278174   1.050   1.160   3.269 -0.7217 -0.2753 -0.4959
18920TIP3    H178175   1.085   1.096   3.207 -0.7180 -0.8346  0.0828
18920TIP3    H278176   1.110   1.234   3.264  0.5199 -1.1971  0.4493
18921TIP3   OH278177   1.838   1.293   1.060  0.0412  0.2410  0.3179
18921TIP3    H178178   1.750   1.305   1.024  0.4302 -1.2116 -1.1890
18921TIP3    H278179   1.896   1.337   0.997  0.5948 -1.0112 -0.0688
18922TIP3   OH278180   3.867   2.756   5.085 -0.5630 -0.2821  0.1245
18922TIP3    H178181   3.843   2.736   5.175 -1.8244  0.7746  0.0565
18922TIP3    H278182   3.838   2.847   5.073  0.2458 -0.1812 -1.1160
18923TIP3   OH278183   6.517   0.574  17.095  0.9236  0.2972 -0.1357
18923TIP3    H178184   6.480   0.656  17.127 -0.7554 -0.0337 -1.1931
18923TIP3    H278185   6.577   0.601  17.025 -0.2680  0.5529 -1.0556
18924TIP3   OH278186   1.678   3.089  11.502 -0.1818  0.0099  0.0321
18924TIP3    H178187   1.626   3.145  11.444 -0.1888  0.4548  0.4661
18924TIP3    H278188   1.676   3.003  11.459  0.8034  0.6029 -1.2397
18925TIP3   OH278189   2.250   3.447   3.463 -0.1567  0.1929  0.0422
18925TIP3    H178190   2.242   3.446   3.368 -0.5209 -0.0719  0.0741
18925TIP3    H278191   2.254   3.539   3.487 -0.6113  0.2746 -0.1876
18926TIP3   OH278192   4.364   4.829  13.671  0.5811 -0.2019  0.5219
18926TIP3    H178193   4.430   4.760  13.670  0.3042 -0.4592  0.1728
18926TIP3    H278194   4.292   4.795  13.618  0.0641 -0.0178  1.1076
18927TIP3   OH278195   3.833   3.166  14.687 -0.1780 -0.2189  0.1222
18927TIP3    H178196   3.840   3.227  14.613 -1.3440  1.5977  1.4747
18927TIP3    H278197   3.758   3.111  14.665  0.6600 -0.9668 -0.9348
18928TIP3   OH278198   1.174   1.527   4.626  0.3777 -0.3566  0.4268
18928TIP3    H178199   1.163   1.574   4.543 -0.1263 -0.4655  0.4263
18928TIP3    H278200   1.178   1.435   4.601 -1.1225 -0.4890  0.6278
18929TIP3   OH278201   4.196   1.002  16.209  0.0673 -0.0803  0.3783
18929TIP3    H178202   4.248   1.056  16.269  0.2666  1.3690 -1.0505
18929TIP3    H278203   4.107   1.007  16.244  0.5563 -1.0353  1.7777
18930TIP3   OH278204   2.783   1.100   1.273  0.2434 -0.1554  0.0462
18930TIP3    H178205   2.701   1.132   1.312  0.6334 -0.9937  1.6335
18930TIP3    H278206   2.834   1.180   1.255 -0.8559  0.3598 -0.8195
18931TIP3   OH278207   6.116   4.762  12.646  0.0213  0.2725  0.5425
18931TIP3    H178208   6.074   4.680  12.673 -0.3722  0.5983  0.9211
18931TIP3    H278209   6.166   4.790  12.723  1.2454 -0.3026 -0.0228
18932TIP3   OH278210   6.760   6.343  11.294  0.2274 -0.5164 -0.1187
18932TIP3    H178211   6.781   6.359  11.202 -0.5294 -0.0247 -0.2097
18932TIP3    H278212   6.774   6.249  11.306  0.8950 -0.4811 -0.5850
18933TIP3   OH278213   6.331   6.516  15.319 -0.0725  0.1097 -0.5714
18933TIP3    H178214   6.390   6.450  15.282  1.0289  0.4027  0.6209
18933TIP3    H278215   6.276   6.467  15.380  1.6370  0.4616  1.3262
18934TIP3   OH278216   0.531   4.674   4.123  0.1209 -0.3666  0.1479
18934TIP3    H178217   0.462   4.610   4.142 -0.0541  0.4918  2.6540
18934TIP3    H278218   0.531   4.731   4.200  0.8447  2.1280 -1.6536
18935TIP3   OH278219   1.806   1.573  13.450  0.6840  0.2116 -0.2486
18935TIP3    H178220   1.841   1.487  13.426  2.2323  1.2836 -1.8986
18935TIP3    H278221   1.831   1.583  13.542 -1.4823 -2.0254  0.6732
18936TIP3   OH278222   5.831   3.504   4.361 -0.3173  0.5840  0.1356
18936TIP3    H178223   5.908   3.481   4.308 -1.2905  1.4344 -1.6992
18936TIP3    H278224   5.824   3.599   4.355 -1.8940  0.4599 -0.2772
18937TIP3   OH278225   2.261   1.281  11.616 -0.4598  0.2629  0.4026
18937TIP3    H178226   2.292   1.360  11.571 -1.2224  0.4804  0.2469
18937TIP3    H278227   2.298   1.208  11.566  1.1645  0.5198  1.2051
18938TIP3   OH278228   4.217   2.349   2.278  0.3792  0.0250  0.1360
18938TIP3    H178229   4.271   2.270   2.287 -0.4851 -0.3951  1.7264
18938TIP3    H278230   4.271   2.409   2.227  1.5373 -1.1432 -0.0361
18939TIP3   OH278231   1.290   3.137  11.428  0.1982 -0.1235 -0.5631
18939TIP3    H178232   1.289   3.206  11.494  2.4535 -0.3514 -0.2486
18939TIP3    H278233   1.234   3.069  11.464 -1.0411  1.0128 -0.3053
18940TIP3   OH278234   0.860   3.126   4.979 -0.1094 -0.7611  0.6013
18940TIP3    H178235   0.865   3.146   5.072 -0.3222 -0.4221  0.5421
18940TIP3    H278236   0.895   3.038   4.971  0.7124 -0.4655  0.8849
18941TIP3   OH278237   1.959   6.386  14.777 -0.0243 -0.2880 -0.0487
18941TIP3    H178238   1.929   6.348  14.694 -0.3991 -0.4782  0.1767
18941TIP3    H278239   2.028   6.327  14.807 -0.6100 -0.7993  0.3030
18942TIP3   OH278240   1.117   3.003  15.179 -0.1370 -0.0626  0.5476
18942TIP3    H178241   1.176   3.017  15.253 -0.1601 -0.0298  0.5592
18942TIP3    H278242   1.093   3.091  15.150  0.8336 -0.0616 -0.2662
18943TIP3   OH278243   1.522   4.283  14.540 -0.0897  0.1415 -0.1915
18943TIP3    H178244   1.612   4.307  14.562 -0.7080  1.7046  0.6545
18943TIP3    H278245   1.532   4.220  14.468  1.6359  1.3238 -1.0407
18944TIP3   OH278246   6.231   4.107  13.637  0.2724  0.4125  0.2648
18944TIP3    H178247   6.209   4.090  13.545  0.4803  1.0723  0.0903
18944TIP3    H278248   6.321   4.140  13.635  0.9880 -1.4624  0.9056
18945TIP3   OH278249   5.427   0.029  16.274 -0.0868  0.3437  0.2912
18945TIP3    H178250   5.516   0.015  16.308 -0.2772  1.3507  1.2604
18945TIP3    H278251   5.375  -0.042  16.312  0.3442 -0.3683 -0.4442
18946TIP3   OH278252   3.071   5.102   6.825 -0.2153  0.7121  0.3105
18946TIP3    H178253   3.144   5.083   6.884  0.7884 -1.2489 -1.4747
18946TIP3    H278254   3.110   5.101   6.737 -2.1634  0.8516 -0.5860
18947TIP3   OH278255   3.050   0.433  10.784 -0.6028 -0.4257  0.2406
18947TIP3    H178256   3.055   0.445  10.879  0.7726 -1.1194  0.2739
18947TIP3    H278257   3.138   0.404  10.759 -0.1473  2.3610 -1.6182
18948TIP3   OH278258   3.281   3.542   1.356 -0.1164  0.4207 -0.3292
18948TIP3    H178259   3.354   3.577   1.305  1.5872 -0.1096  1.6944
18948TIP3    H278260   3.208   3.602   1.337  1.0214  1.3705 -1.8149
18949TIP3   OH278261   5.808   1.487   5.671  0.2335 -0.5209 -0.0012
18949TIP3    H178262   5.885   1.543   5.671 -0.1506  0.0133 -0.6265
18949TIP3    H278263   5.839   1.402   5.641  0.2653  0.1397 -1.8522
18950TIP3   OH278264   0.922   2.742   1.895 -0.1377  0.2481 -0.2156
18950TIP3    H178265   0.979   2.733   1.818  1.2424 -1.4338  0.9541
18950TIP3    H278266   0.953   2.823   1.938  0.2817  0.2308 -0.4753
18951TIP3   OH278267   6.493   0.305  12.447  0.2060  0.1618  0.1859
18951TIP3    H178268   6.440   0.384  12.433 -0.3820 -0.0228  1.3084
18951TIP3    H278269   6.451   0.261  12.521  1.3872 -0.4697  0.4840
18952TIP3   OH278270   5.900   2.913  12.756 -0.7622 -0.2427 -0.2771
18952TIP3    H178271   5.861   2.933  12.671 -2.1727 -1.9488 -0.0588
18952TIP3    H278272   5.970   2.852  12.736 -1.0136 -0.5475 -0.2327
18953TIP3   OH278273   4.284   4.343   3.937 -0.2825 -0.4191 -0.2818
18953TIP3    H178274   4.221   4.329   4.009  2.0176 -1.2210  1.6397
18953TIP3    H278275   4.256   4.281   3.869 -0.8229 -1.7106  1.0748
18954TIP3   OH278276   4.530   3.642   0.016 -0.3326 -0.3197  0.0842
18954TIP3    H178277   4.542   3.603  -0.070 -1.1159 -0.7147  0.1461
18954TIP3    H278278   4.567   3.578   0.077 -1.2820 -0.8075  0.1597
18955TIP3   OH278279   4.577   3.940  15.437 -0.7991  0.6007  0.7319
18955TIP3    H178280   4.651   4.000  15.429  0.0292 -0.5966 -0.9227
18955TIP3    H278281   4.504   3.986  15.394  0.0716  0.0910 -1.3849
18956TIP3   OH278282   3.759   1.499  14.912 -0.5484 -0.1590  0.4772
18956TIP3    H178283   3.710   1.417  14.902  0.6594 -0.8035 -0.2963
18956TIP3    H278284   3.790   1.498  15.002  0.6149 -1.2152  0.0714
18957TIP3   OH278285   1.438   6.218   1.570  0.6075  0.1612  0.0303
18957TIP3    H178286   1.517   6.252   1.527  1.4214 -0.3361  1.1347
18957TIP3    H278287   1.392   6.171   1.500  0.4080  1.9058 -1.0545
18958TIP3   OH278288   6.200   6.346   0.571  0.2794  0.2050 -0.0914
18958TIP3    H178289   6.130   6.397   0.528 -0.8012  0.1821  1.5958
18958TIP3    H278290   6.280   6.376   0.529 -0.7247  0.3823 -1.9397
18959TIP3   OH278291   6.250   1.076   0.809 -0.0363  0.7098 -0.2363
18959TIP3    H178292   6.333   1.112   0.839  1.1105 -1.8115 -0.2453
18959TIP3    H278293   6.219   1.022   0.882 -0.3779 -0.3831 -1.1690
18960TIP3   OH278294   3.167   3.842   6.175  0.5466  0.4915 -0.2596
18960TIP3    H178295   3.073   3.841   6.158  0.2695  2.7329  0.9949
18960TIP3    H278296   3.180   3.775   6.242 -0.8835  3.2822  2.9133
18961TIP3   OH278297   3.476   3.234  11.684  0.3754 -0.5518  0.4064
18961TIP3    H178298   3.442   3.243  11.773  2.4956 -1.4916  1.3326
18961TIP3    H278299   3.451   3.146  11.658  1.6326 -1.0511  0.8866
18962TIP3   OH278300   4.639   3.779  12.479 -0.0875  0.3311 -0.0074
18962TIP3    H178301   4.722   3.738  12.501 -0.0735 -0.1311 -0.8951
18962TIP3    H278302   4.576   3.707  12.475 -0.2459  0.5028 -0.6891
18963TIP3   OH278303   5.021   1.008  11.995  0.2465  0.2480  0.7516
18963TIP3    H178304   5.011   0.915  11.972  1.0052  0.1054  0.9615
18963TIP3    H278305   5.054   1.049  11.915  0.4954  0.2186  0.8384
18964TIP3   OH278306   3.206   6.669  10.742  0.2573 -0.0442 -0.5195
18964TIP3    H178307   3.203   6.734  10.812 -1.3482 -1.3048  0.6070
18964TIP3    H278308   3.173   6.715  10.665 -2.4298  0.0858  0.6384
18965TIP3   OH278309   1.473   4.693  14.659  0.0534 -0.3956 -0.0281
18965TIP3    H178310   1.544   4.684  14.596  1.0999 -1.2310  1.2536
18965TIP3    H278311   1.483   4.782  14.694  1.4301 -1.0493  1.2785
18966TIP3   OH278312   0.936   4.017  15.693  0.5711 -0.1732  0.8684
18966TIP3    H178313   0.976   4.102  15.712  0.3755 -0.1452  1.1608
18966TIP3    H278314   0.842   4.031  15.709  0.3576 -0.0637 -0.3941
18967TIP3   OH278315   1.799   0.825   0.284 -0.0437  0.1004 -0.0034
18967TIP3    H178316   1.777   0.763   0.215 -0.0348  0.9703 -0.8133
18967TIP3    H278317   1.885   0.797   0.316 -1.3442 -2.0559  1.7137
18968TIP3   OH278318   5.345   3.236   3.401 -0.5914 -0.2155 -0.1893
18968TIP3    H178319   5.383   3.171   3.342 -1.3505  1.4961 -2.5986
18968TIP3    H278320   5.420   3.280   3.440 -0.0893 -0.8354 -0.4479
18969TIP3   OH278321   5.736   3.164  16.662 -0.5817  0.2488  0.5333
18969TIP3    H178322   5.655   3.193  16.705 -0.7156  0.4241  0.1634
18969TIP3    H278323   5.738   3.212  16.579 -1.0224 -1.0950 -0.2772
18970TIP3   OH278324   2.204   5.778   3.360 -0.3283 -0.0129  0.2883
18970TIP3    H178325   2.137   5.736   3.307  0.2587 -0.4570 -0.1076
18970TIP3    H278326   2.283   5.726   3.345  0.0336  0.3191  0.9891
18971TIP3   OH278327   0.435   0.033  13.251 -0.3534  0.3892  0.1948
18971TIP3    H178328   0.397  -0.045  13.212  1.5102 -0.4651  0.0270
18971TIP3    H278329   0.486   0.073  13.181  1.4952 -0.1517  1.1619
18972TIP3   OH278330   1.432   2.172   5.460 -0.6374 -0.3385  0.0299
18972TIP3    H178331   1.412   2.113   5.533  0.6172 -1.4019 -0.4659
18972TIP3    H278332   1.443   2.113   5.385 -0.6300  0.6489 -0.7441
18973TIP3   OH278333   6.161   3.873  11.648  0.5069 -0.0366 -0.5509
18973TIP3    H178334   6.183   3.781  11.664  0.4984  0.2827  1.4089
18973TIP3    H278335   6.221   3.900  11.579  1.1610 -1.2459 -0.4774
18974TIP3   OH278336   5.144   0.725   3.632  0.2135 -1.0007 -0.1950
18974TIP3    H178337   5.193   0.649   3.602 -0.8764 -1.6551 -0.3540
18974TIP3    H278338   5.119   0.770   3.551  0.0082 -1.0173 -0.1403
18975TIP3   OH278339   2.437   5.753   0.315  0.1257 -0.1858  0.0816
18975TIP3    H178340   2.343   5.738   0.326 -0.1039  1.0760 -0.0699
18975TIP3    H278341   2.454   5.734   0.223 -0.2108  0.7147 -0.1735
18976TIP3   OH278342   3.802   2.668   5.334  0.2228  0.5079  0.0618
18976TIP3    H178343   3.785   2.574   5.334 -0.4941  0.6342 -0.7893
18976TIP3    H278344   3.877   2.679   5.393  0.9531 -0.6975 -0.6349
18977TIP3   OH278345   4.394   3.113  12.998 -0.1975 -0.1742  0.1863
18977TIP3    H178346   4.433   3.081  13.079 -0.0705  1.7888  0.9132
18977TIP3    H278347   4.460   3.171  12.960 -1.0681  0.5280 -0.2813
18978TIP3   OH278348   1.814   0.901   0.789  0.3951  0.3706  0.6385
18978TIP3    H178349   1.843   0.987   0.761  1.3939 -0.5049 -1.1175
18978TIP3    H278350   1.885   0.868   0.843 -0.4758  1.0801  2.2465
18979TIP3   OH278351   0.741   2.338  14.879 -0.3240 -0.3040 -0.0691
18979TIP3    H178352   0.827   2.310  14.846 -0.4413 -0.9520  0.1676
18979TIP3    H278353   0.718   2.413  14.824 -0.0871 -0.7774 -0.8329
18980TIP3   OH278354   5.983   4.397   4.773  0.5981  0.0241 -0.1147
18980TIP3    H178355   5.912   4.461   4.780  0.6264  0.2486 -1.6319
18980TIP3    H278356   6.056   4.437   4.821 -0.5219 -0.5751  2.1569
18981TIP3   OH278357   0.557   5.152   2.836  0.8680  0.6372  0.1358
18981TIP3    H178358   0.511   5.069   2.834 -0.1973  1.1648  1.9862
18981TIP3    H278359   0.542   5.189   2.749  0.9082 -0.8478 -0.5191
18982TIP3   OH278360   1.555   4.130   4.569  0.3547 -0.2154  0.0035
18982TIP3    H178361   1.628   4.114   4.510  0.1635  0.2799 -0.3721
18982TIP3    H278362   1.589   4.194   4.632  0.1466  0.2689 -0.3703
18983TIP3   OH278363   0.490   6.502   5.070  0.3196 -0.2917 -0.6494
18983TIP3    H178364   0.566   6.495   5.128 -0.1874 -0.7875 -0.0346
18983TIP3    H278365   0.458   6.591   5.082 -1.2130 -1.0939  1.6689
18984TIP3   OH278366   5.048   3.674  14.845  0.0191  0.5912 -0.2631
18984TIP3    H178367   5.043   3.621  14.766  2.6155  0.4290 -0.3507
18984TIP3    H278368   5.014   3.617  14.914  2.3774 -1.0510 -0.4297
18985TIP3   OH278369   3.711   4.045  15.926  0.0922  0.4195  0.0774
18985TIP3    H178370   3.628   4.062  15.971 -0.3981  1.5854 -1.2003
18985TIP3    H278371   3.708   3.952  15.903 -1.2890  0.6554 -0.7513
18986TIP3   OH278372   3.432   6.162  12.717 -0.2031 -0.2692 -0.1987
18986TIP3    H178373   3.511   6.215  12.710 -0.1721 -0.0762  1.5737
18986TIP3    H278374   3.374   6.211  12.775 -2.0583  0.0960 -2.2747
18987TIP3   OH278375   5.841   0.598   5.249  0.5466  0.2364 -0.0221
18987TIP3    H178376   5.895   0.621   5.324  1.2329  1.0003 -0.7459
18987TIP3    H278377   5.787   0.676   5.234  1.0902  0.4376 -0.9152
18988TIP3   OH278378   5.502   2.235  12.860  0.9258 -0.1855 -0.2948
18988TIP3    H178379   5.524   2.227  12.953 -1.0774 -0.3264  0.1966
18988TIP3    H278380   5.486   2.329  12.848 -0.1783 -0.3586 -0.1723
18989TIP3   OH278381   3.272   3.019   0.750 -0.0436  0.1443 -0.0223
18989TIP3    H178382   3.225   3.084   0.698  0.3138 -0.0220 -0.5718
18989TIP3    H278383   3.221   3.009   0.830 -0.0722  1.1260  0.0787
18990TIP3   OH278384   4.814   4.065   3.339 -0.3809 -0.2281 -0.0525
18990TIP3    H178385   4.793   4.140   3.284  0.7140  0.0660 -0.0795
18990TIP3    H278386   4.782   3.989   3.290 -1.6487  0.2321  0.0599
18991TIP3   OH278387   4.857   1.850  15.169  0.2059 -0.7221  0.4946
18991TIP3    H178388   4.807   1.928  15.191  1.6044  1.0503 -2.3040
18991TIP3    H278389   4.902   1.827  15.250 -0.5900  1.0978  1.4852
18992TIP3   OH278390   4.701   2.105   2.458  0.6384  0.9319  0.4418
18992TIP3    H178391   4.646   2.032   2.486 -0.1185  1.5691  0.6444
18992TIP3    H278392   4.725   2.085   2.368  0.0920  0.6322  0.3621
18993TIP3   OH278393   3.810   0.992  13.843  0.3619  0.2729  0.2877
18993TIP3    H178394   3.780   1.038  13.922 -1.9436  0.8421 -0.8761
18993TIP3    H278395   3.860   0.917  13.876  3.0357  2.8073  2.2270
18994TIP3   OH278396   5.505   2.479  14.017  0.2521 -0.4756  0.5911
18994TIP3    H178397   5.571   2.410  14.010 -0.6455 -1.2302 -0.9429
18994TIP3    H278398   5.526   2.539  13.946  0.9268  0.7499  1.8162
18995TIP3   OH278399   5.964   1.122  15.425  0.2855 -0.2583 -0.1856
18995TIP3    H178400   5.971   1.202  15.373  0.3279  0.7104  1.2838
18995TIP3    H278401   5.870   1.103  15.428  0.3619 -0.9210 -1.4826
18996TIP3   OH278402   6.591   3.505   4.660 -0.7516 -0.0485 -0.0416
18996TIP3    H178403   6.568   3.535   4.748  0.3724 -0.0527  0.2539
18996TIP3    H278404   6.687   3.501   4.660 -0.6599  1.4015 -1.7276
18997TIP3   OH278405   3.956   4.323   0.489  0.5311 -0.1781 -0.3973
18997TIP3    H178406   4.025   4.285   0.435  0.2038 -2.2442  0.6269
18997TIP3    H278407   3.887   4.256   0.491 -0.6275  1.0092  0.3131
18998TIP3   OH278408   6.028   1.701  17.183 -0.2912  0.2007  0.1345
18998TIP3    H178409   5.970   1.753  17.128  0.3909  0.1791 -0.6028
18998TIP3    H278410   6.019   1.612  17.151  1.2855  0.4216 -0.9825
18999TIP3   OH278411   6.413   0.203   6.210  0.1065 -0.6739 -0.5825
18999TIP3    H178412   6.347   0.133   6.213  0.2519 -0.7977 -0.2873
18999TIP3    H278413   6.369   0.274   6.163 -1.1170  0.1481  1.7285
19000TIP3   OH278414   4.375   5.463  16.009 -0.1451 -0.3487 -0.2361
19000TIP3    H178415   4.376   5.381  15.960 -1.9170 -1.4266  1.4336
19000TIP3    H278416   4.394   5.436  16.100  0.2207  1.2203  0.1683
19001TIP3   OH278417   0.663   6.733   0.577 -0.0585  0.0095  0.1375
19001TIP3    H178418   0.658   6.817   0.621  0.1202  0.6333 -1.0203
19001TIP3    H278419   0.572   6.709   0.560 -0.2433 -1.2492  2.7217
19002TIP3   OH278420   3.522   3.781   1.713 -0.3684 -0.1259 -0.0600
19002TIP3    H178421   3.501   3.688   1.709 -1.6971  0.1650  0.0326
19002TIP3    H278422   3.470   3.814   1.786  1.7008  0.2772  1.2632
19003TIP3   OH278423   1.798   5.497  12.373  0.2453  0.0717 -0.2957
19003TIP3    H178424   1.841   5.558  12.313  0.7014 -0.2241 -0.2677
19003TIP3    H278425   1.704   5.515  12.362  0.4013  1.2068  0.1684
19004TIP3   OH278426   3.050   2.364   0.243  0.3592  0.3831 -0.1547
19004TIP3    H178427   3.088   2.387   0.327  0.3782 -1.1547  0.2738
19004TIP3    H278428   2.969   2.318   0.265 -0.3340  1.1868 -1.0017
19005TIP3   OH278429   0.283   3.270   4.684 -0.1278 -0.5048  0.7098
19005TIP3    H178430   0.336   3.268   4.604 -0.7976  0.7420  0.2227
19005TIP3    H278431   0.303   3.187   4.728  1.1859 -0.6586 -0.1359
19006TIP3   OH278432   0.760   0.935  14.299 -0.3067 -0.3704  0.2854
19006TIP3    H178433   0.810   1.003  14.256 -0.6224  0.4192  1.1433
19006TIP3    H278434   0.821   0.896  14.362 -0.5131  0.0119  0.7250
19007TIP3   OH278435   5.468   3.897  12.874 -0.4835 -0.9167 -0.2869
19007TIP3    H178436   5.499   3.954  12.804  0.3094 -0.9666  0.0143
19007TIP3    H278437   5.450   3.957  12.947 -0.1540 -0.9926 -0.1422
19008TIP3   OH278438   1.386   5.353   2.462  0.0376  0.7891  0.6833
19008TIP3    H178439   1.441   5.394   2.395 -1.5984  1.9134 -0.0050
19008TIP3    H278440   1.318   5.418   2.481 -1.2379 -0.6721  1.2986
19009TIP3   OH278441   0.569   1.461  11.823  0.3120  0.0593  0.2431
19009TIP3    H178442   0.595   1.536  11.770 -0.5346 -0.2998 -0.7011
19009TIP3    H278443   0.507   1.497  11.887  1.5163  0.5364  1.1704
19010TIP3   OH278444   2.973   2.758  11.807  0.1402 -0.4335  0.3933
19010TIP3    H178445   3.020   2.841  11.808  0.9493 -0.8420 -1.6155
19010TIP3    H278446   2.883   2.782  11.832  0.3858  1.0212 -0.0445
19011TIP3   OH278447   0.375   4.050   4.213  0.2452 -0.3311 -0.1306
19011TIP3    H178448   0.368   4.110   4.139  1.5399  0.2803  0.2247
19011TIP3    H278449   0.311   3.982   4.195  0.8214 -0.4002 -2.0138
19012TIP3   OH278450   1.112   0.472  11.643 -0.0332  0.1995  0.1059
19012TIP3    H178451   1.105   0.376  11.644  0.0517  0.1907 -0.0635
19012TIP3    H278452   1.044   0.500  11.582  0.8420  0.1609 -0.9098
19013TIP3   OH278453   4.802   3.200   5.675  0.7246 -0.2544 -0.1047
19013TIP3    H178454   4.777   3.201   5.767  0.6760 -0.1677 -0.1195
19013TIP3    H278455   4.867   3.129   5.669  4.2798  2.7841  0.9177
19014TIP3   OH278456   2.004   4.489   3.239  0.5795 -0.4765  0.0750
19014TIP3    H178457   2.052   4.431   3.299 -0.1606 -1.5358 -0.3323
19014TIP3    H278458   1.933   4.434   3.205  1.8009 -0.3907 -2.8520
19015TIP3   OH278459   4.855   2.878  11.288  0.2453 -0.3897 -0.6401
19015TIP3    H178460   4.902   2.937  11.230 -0.6564  0.1289 -0.8602
19015TIP3    H278461   4.826   2.933  11.361 -0.8536 -0.4726 -0.9939
19016TIP3   OH278462   1.249   6.216   0.785  0.7395 -0.0205 -0.1570
19016TIP3    H178463   1.332   6.176   0.811  1.2456  1.2901  0.2896
19016TIP3    H278464   1.265   6.252   0.698 -0.0531 -1.7667 -1.0334
19017TIP3   OH278465   2.023   4.149   4.448 -0.1810  0.1202  0.2925
19017TIP3    H178466   2.049   4.241   4.452  0.7127 -0.1488  0.9299
19017TIP3    H278467   2.093   4.106   4.398 -0.9321 -0.1040 -0.5806
19018TIP3   OH278468   4.428   5.167   2.717 -0.1574 -0.0405  0.0174
19018TIP3    H178469   4.483   5.229   2.765 -0.3141 -0.2555  0.4857
19018TIP3    H278470   4.461   5.169   2.627  0.0276  0.4983  0.0959
19019TIP3   OH278471   4.167   4.579  14.108 -0.5829 -0.2044 -0.6143
19019TIP3    H178472   4.074   4.597  14.095 -0.3652  0.4782 -1.2843
19019TIP3    H278473   4.189   4.625  14.189 -0.9859 -0.9488 -0.0798
19020TIP3   OH278474   5.418   2.838  16.545 -0.5837  0.4439 -0.3679
19020TIP3    H178475   5.485   2.782  16.506  0.6804  0.6679  1.4117
19020TIP3    H278476   5.355   2.852  16.475  0.8692 -0.3435 -1.8801
19021TIP3   OH278477   6.101   6.469   5.273 -0.4672  0.4194 -0.4044
19021TIP3    H178478   6.081   6.505   5.187 -0.5022  4.0233  1.0207
19021TIP3    H278479   6.180   6.516   5.301  0.7072 -2.1440  0.6853
19022TIP3   OH278480   1.442   2.143  15.461  0.0223 -0.1149  0.5537
19022TIP3    H178481   1.377   2.171  15.397  0.6892  0.0167 -0.0645
19022TIP3    H278482   1.422   2.051  15.477 -0.4199 -0.0314  0.5008
19023TIP3   OH278483   5.847   2.776  12.133  0.2786  0.4829 -0.2341
19023TIP3    H178484   5.866   2.682  12.141  0.3758  0.4310 -0.9897
19023TIP3    H278485   5.916   2.809  12.076  0.8346  1.2140  0.8399
19024TIP3   OH278486   6.597   0.851  12.885  0.1356 -0.0668 -0.0490
19024TIP3    H178487   6.605   0.859  12.790 -1.5928  0.2938 -0.1685
19024TIP3    H278488   6.516   0.802  12.898 -0.9120  2.0196  1.3179
19025TIP3   OH278489   6.573   5.002   1.857  0.5655 -0.3676 -0.4950
19025TIP3    H178490   6.514   5.056   1.804  1.6896  0.3373 -1.0466
19025TIP3    H278491   6.597   4.930   1.799 -1.2832 -1.7468  0.3860
19026TIP3   OH278492   4.181   5.449   1.872  0.5323  0.5000  0.3364
19026TIP3    H178493   4.159   5.367   1.916 -3.0333  1.9846  1.4696
19026TIP3    H278494   4.146   5.439   1.783  1.8586  0.0513 -0.1442
19027TIP3   OH278495   2.960   2.142  12.582  0.0551  0.0258  0.0487
19027TIP3    H178496   2.936   2.196  12.507  2.0863 -0.4335 -0.9640
19027TIP3    H278497   2.971   2.054  12.545 -4.0690 -1.4030  1.7928
19028TIP3   OH278498   1.790   2.557   2.616  0.7026 -0.5842  0.0638
19028TIP3    H178499   1.765   2.527   2.703  0.3984  3.0391  1.3064
19028TIP3    H278500   1.886   2.554   2.616  0.7053 -0.5024  0.5708
19029TIP3   OH278501   1.796   3.122   4.130 -0.3110  0.2173  0.1054
19029TIP3    H178502   1.880   3.166   4.135 -0.8799  1.2846  0.3738
19029TIP3    H278503   1.732   3.187   4.159 -1.1210 -0.9017  0.8897
19030TIP3   OH278504   6.209   6.549  14.764 -0.1490  0.1221 -0.0303
19030TIP3    H178505   6.299   6.547  14.794  0.3853 -0.8492 -1.6128
19030TIP3    H278506   6.198   6.637  14.728 -0.1994  0.6248  1.1898
19031TIP3   OH278507   0.090   1.971   3.654  0.0931 -0.0988 -0.1818
19031TIP3    H178508   0.182   1.995   3.661 -0.3602  1.2599  1.2194
19031TIP3    H278509   0.043   2.042   3.696 -1.7859  0.4551 -3.0991
19032TIP3   OH278510   2.904   5.942   2.195  0.3691  0.2971  0.1706
19032TIP3    H178511   2.885   5.867   2.251 -0.0638 -0.1808 -0.6040
19032TIP3    H278512   2.884   6.018   2.249 -2.1027 -0.1759 -0.0336
19033TIP3   OH278513   5.061   4.039  13.487 -0.1310  0.6130  0.6838
19033TIP3    H178514   5.032   3.969  13.545  0.1932  0.1486  0.2907
19033TIP3    H278515   5.153   4.021  13.471 -0.0074  1.2172  0.6977
19034TIP3   OH278516   1.723   0.051  14.882 -0.0734 -0.0024  0.2711
19034TIP3    H178517   1.727   0.058  14.977  0.7472 -0.9679  0.3124
19034TIP3    H278518   1.805   0.010  14.857 -1.5679 -2.5964 -0.5645
19035TIP3   OH278519   3.034   4.290   3.416  0.1180  0.2814  0.2613
19035TIP3    H178520   3.047   4.329   3.330  0.3001 -0.9545 -0.2931
19035TIP3    H278521   2.939   4.273   3.420  0.2680 -0.6797 -0.1576
19036TIP3   OH278522   6.671   1.402  13.890  0.2652  0.1750 -0.1496
19036TIP3    H178523   6.695   1.493  13.872  0.0618  0.7367  2.2365
19036TIP3    H278524   6.736   1.371  13.952 -0.0644 -1.0987 -0.4237
19037TIP3   OH278525   5.343   6.102  15.418 -0.1517 -0.0278 -0.1161
19037TIP3    H178526   5.381   6.141  15.497  0.4730  1.0816 -0.9715
19037TIP3    H278527   5.259   6.067  15.448  0.9791 -1.4751  1.5186
19038TIP3   OH278528   0.097   1.087   0.184 -0.1843 -0.4430  0.3276
19038TIP3    H178529   0.153   1.015   0.159  0.3993 -0.1367  0.7376
19038TIP3    H278530   0.045   1.053   0.257  0.0364 -0.4733  0.4709
19039TIP3   OH278531   0.094   2.045   4.231 -0.2825  0.0132 -0.1763
19039TIP3    H178532   0.004   2.015   4.238 -1.1809  2.1625 -1.7723
19039TIP3    H278533   0.106   2.103   4.307  0.4272 -1.7679  1.1195
19040TIP3   OH278534   4.331   4.322  12.988  0.4000  0.7196 -0.0473
19040TIP3    H178535   4.349   4.311  13.082 -0.6643  1.3627  0.2515
19040TIP3    H278536   4.393   4.264  12.944  0.5738  0.0345  1.0814
19041TIP3   OH278537   6.422   0.656  16.633 -0.1055 -0.2524  0.1156
19041TIP3    H178538   6.356   0.722  16.615 -0.3586 -0.7074 -0.6416
19041TIP3    H278539   6.504   0.704  16.640 -0.2730  0.1201 -0.5284
19042TIP3   OH278540   5.510   1.993   4.589  0.2729 -0.0397  0.0113
19042TIP3    H178541   5.585   2.036   4.630 -0.5603 -1.3886  3.1088
19042TIP3    H278542   5.436   2.014   4.646 -0.7562 -2.8160 -0.2043
19043TIP3   OH278543   3.275   6.345   0.117  0.1060  0.0316 -0.0775
19043TIP3    H178544   3.302   6.332   0.208  0.4743  0.0991 -0.1772
19043TIP3    H278545   3.196   6.292   0.108 -0.2356  0.4504  0.4333
19044TIP3   OH278546   1.187   5.025  12.143 -0.1786 -0.0953  0.6259
19044TIP3    H178547   1.149   5.033  12.056  1.2356 -1.2395 -0.1166
19044TIP3    H278548   1.248   5.099  12.149 -3.5647  2.6814  2.4225
19045TIP3   OH278549   5.966   0.976   5.167 -0.1080 -0.7594  0.3883
19045TIP3    H178550   5.890   1.025   5.137 -0.4628 -0.2232  2.0876
19045TIP3    H278551   6.025   0.975   5.092 -0.6737  1.0915 -0.1054
19046TIP3   OH278552   1.410   6.186   3.533 -0.3409 -0.3232  0.4178
19046TIP3    H178553   1.499   6.218   3.547 -0.9684  0.5964  2.5274
19046TIP3    H278554   1.385   6.224   3.449  1.7494 -1.7610 -0.8899
19047TIP3   OH278555   2.689   5.146  12.575 -0.2754  0.1219 -0.5653
19047TIP3    H178556   2.734   5.085  12.633  1.2364 -0.1940 -2.0360
19047TIP3    H278557   2.625   5.093  12.527  0.4562 -0.1626 -1.2351
19048TIP3   OH278558   5.724   3.504   0.046 -0.0045  0.2337 -0.0547
19048TIP3    H178559   5.731   3.427   0.104  1.1434  1.0817  0.9535
19048TIP3    H278560   5.815   3.526   0.025 -0.2851  1.7497  0.2643
19049TIP3   OH278561   3.589   3.664  14.507  0.2330  0.8297  0.7040
19049TIP3    H178562   3.506   3.711  14.504  0.6807  1.5441 -1.5633
19049TIP3    H278563   3.569   3.577  14.472  0.0012  0.2326  2.2606
19050TIP3   OH278564   2.016   0.566  15.368 -0.4907  0.3206  0.3173
19050TIP3    H178565   1.978   0.570  15.280  0.4956  0.7460 -0.0975
19050TIP3    H278566   2.084   0.498  15.361  0.3590  1.1517  0.4428
19051TIP3   OH278567   6.520   2.035   5.669  0.0999 -0.2967 -0.5446
19051TIP3    H178568   6.467   2.103   5.627  1.1422 -0.3828 -2.0397
19051TIP3    H278569   6.607   2.046   5.631  1.2148 -0.0292  2.0378
19052TIP3   OH278570   3.442   4.109  16.830  0.1035 -0.1428 -0.5769
19052TIP3    H178571   3.351   4.113  16.861 -0.1877 -0.7990 -1.3394
19052TIP3    H278572   3.435   4.107  16.735  0.9452  0.3568 -0.6569
19053TIP3   OH278573   2.862   2.403   4.305 -0.3759  0.8141  0.4273
19053TIP3    H178574   2.877   2.322   4.354  0.0067  1.1817  0.9246
19053TIP3    H278575   2.856   2.471   4.372 -2.0987  1.0077  0.1118
19054TIP3   OH278576   1.282   3.393  12.222 -0.1527  0.6511  0.0365
19054TIP3    H178577   1.258   3.479  12.188 -0.1371 -0.0251 -1.7546
19054TIP3    H278578   1.376   3.398  12.236  0.0724  0.5085 -1.3603
19055TIP3   OH278579   0.789   5.790   5.840  0.7075 -0.3876 -0.0460
19055TIP3    H178580   0.800   5.805   5.934  0.9969  0.8953 -0.2793
19055TIP3    H278581   0.820   5.700   5.826  0.6954 -0.5721  1.0728
19056TIP3   OH278582   2.847   0.625  14.112  0.1605  0.2982 -0.0403
19056TIP3    H178583   2.909   0.603  14.182 -0.4123  1.0117  0.6929
19056TIP3    H278584   2.792   0.548  14.104 -1.8480  1.3730  2.5338
19057TIP3   OH278585   3.438   2.105   0.591  0.1739  0.3406  0.0775
19057TIP3    H178586   3.453   2.062   0.675 -0.3988 -1.6277 -0.7842
19057TIP3    H278587   3.355   2.151   0.602  0.8930  1.4061  1.0882
19058TIP3   OH278588   6.294   6.639   5.048  0.0358 -0.0012 -0.1649
19058TIP3    H178589   6.281   6.624   5.141 -0.6191 -1.6301 -0.4980
19058TIP3    H278590   6.306   6.733   5.040  0.4561  0.1019  1.6044
19059TIP3   OH278591   5.750   0.390   2.626 -0.4637  0.9290 -0.2308
19059TIP3    H178592   5.783   0.302   2.646 -2.3252  0.1443 -0.4502
19059TIP3    H278593   5.754   0.436   2.709 -1.3506 -0.0113  0.3479
19060TIP3   OH278594   5.317   3.390   4.226  0.0455  0.6610 -0.0710
19060TIP3    H178595   5.358   3.391   4.313  1.7201  0.9084 -0.8457
19060TIP3    H278596   5.226   3.414   4.242  0.6852  2.1561  1.4560
19061TIP3   OH278597   3.023   5.360   2.182 -0.5491 -0.0820 -0.2574
19061TIP3    H178598   3.039   5.383   2.091 -1.7526  1.0635 -0.1950
19061TIP3    H278599   3.090   5.408   2.231  0.7562 -1.5137 -0.6007
19062TIP3   OH278600   0.311   6.385  12.971  0.7705  0.6396  0.0516
19062TIP3    H178601   0.346   6.413  12.886  2.9557 -1.9368  0.0472
19062TIP3    H278602   0.228   6.342  12.950  1.2135  0.1702 -0.7714
19063TIP3   OH278603   3.373   5.978   1.266 -0.0568 -0.4135  0.2240
19063TIP3    H178604   3.447   5.952   1.320 -0.0303 -1.3658 -0.2580
19063TIP3    H278605   3.317   6.030   1.324  1.7334  1.6512  0.1655
19064TIP3   OH278606   6.162   1.322   0.480 -0.1460  0.3042 -0.2031
19064TIP3    H178607   6.123   1.372   0.408 -0.1068  0.2864 -0.2369
19064TIP3    H278608   6.247   1.363   0.495 -0.1067  0.2364 -0.2417
19065TIP3   OH278609   4.467   3.030   0.866 -0.2136  0.3756 -0.0393
19065TIP3    H178610   4.533   3.012   0.934 -0.2549  0.8805  0.1353
19065TIP3    H278611   4.442   3.121   0.881  0.9328  0.9912 -1.7161
19066TIP3   OH278612   3.545   1.788   2.734 -0.2520 -0.3434  0.2830
19066TIP3    H178613   3.551   1.737   2.814 -1.5742  0.8100  1.1348
19066TIP3    H278614   3.605   1.862   2.747 -0.5007 -0.1302  0.2396
19067TIP3   OH278615   6.764   2.203  10.566  0.3814  0.4959 -0.4811
19067TIP3    H178616   6.836   2.168  10.513  1.9830  0.2912  1.7633
19067TIP3    H278617   6.732   2.127  10.614  0.7644  1.1960  0.8919
19068TIP3   OH278618   1.682   0.796   1.463  0.3968 -0.3321 -0.2145
19068TIP3    H178619   1.742   0.821   1.533  0.1657  0.6916 -0.3811
19068TIP3    H278620   1.703   0.855   1.391 -0.7665 -0.0097 -0.2945
19069TIP3   OH278621   0.657   5.464   2.575  0.0303 -0.4963 -0.0090
19069TIP3    H178622   0.649   5.473   2.480  0.3943 -0.8267 -0.0748
19069TIP3    H278623   0.610   5.382   2.595  1.1177 -1.1440 -0.0826
19070TIP3   OH278624   6.567   0.968   1.339 -0.4117  0.6064  0.3037
19070TIP3    H178625   6.631   0.955   1.409  0.2761  0.4813 -0.3435
19070TIP3    H278626   6.486   0.992   1.385 -0.1100 -0.0048  1.1633
19071TIP3   OH278627   5.616   5.526  10.701  0.3681 -0.3740  0.1952
19071TIP3    H178628   5.652   5.449  10.657 -3.7575 -1.3032 -1.7294
19071TIP3    H278629   5.555   5.492  10.766  0.1823  1.2268  0.9070
19072TIP3   OH278630   5.121   2.089  10.478  0.4827  0.7220 -0.1733
19072TIP3    H178631   5.164   2.163  10.436  3.4891  0.0085  1.4889
19072TIP3    H278632   5.082   2.126  10.557  0.2177  0.8829 -0.3755
19073TIP3   OH278633   4.580   5.022  14.465 -0.7184  0.3341  0.3018
19073TIP3    H178634   4.617   4.948  14.513  0.1051  0.1677 -0.5600
19073TIP3    H278635   4.655   5.062  14.421 -1.5192  0.1603 -1.2612
19074TIP3   OH278636   6.130   0.197   5.946  0.7052 -0.3889  0.0784
19074TIP3    H178637   6.141   0.106   5.973  0.4512 -0.2469  0.6673
19074TIP3    H278638   6.075   0.236   6.014  0.2572  0.0380 -0.5205
19075TIP3   OH278639   1.047   5.130   4.003  0.0554 -0.2838  0.6843
19075TIP3    H178640   1.031   5.112   3.910  1.2952  1.6284  0.0558
19075TIP3    H278641   0.999   5.211   4.020  0.5300 -0.1657  1.4810
19076TIP3   OH278642   4.753   3.897  14.160  0.0830 -0.9221 -0.0428
19076TIP3    H178643   4.829   3.862  14.114  1.4670 -0.6269  1.9271
19076TIP3    H278644   4.773   3.989  14.173 -1.2297 -0.5373 -0.6776
19077TIP3   OH278645   1.250   3.386  15.275  0.5274 -0.1202 -0.5753
19077TIP3    H178646   1.272   3.326  15.347 -0.2860 -0.1581 -0.3499
19077TIP3    H278647   1.259   3.473  15.314  1.0052 -0.1163 -0.6968
19078TIP3   OH278648   4.405   2.934   6.521  0.2562 -0.3893  0.1668
19078TIP3    H178649   4.395   2.861   6.459 -0.4705 -1.8873  1.9998
19078TIP3    H278650   4.487   2.914   6.567  2.5846  2.4484 -2.4779
19079TIP3   OH278651   3.961   0.346  14.510  0.1667 -0.1101 -0.1237
19079TIP3    H178652   4.004   0.359  14.425  0.7132  0.6014  0.2530
19079TIP3    H278653   3.966   0.252  14.525  1.3044 -0.0758 -0.2423
19080TIP3   OH278654   3.544   2.948  13.864  0.0525  0.2468 -0.2665
19080TIP3    H178655   3.553   3.016  13.798 -0.0295 -0.4933 -1.0505
19080TIP3    H278656   3.561   2.992  13.947 -2.9009  1.8932 -0.4632
19081TIP3   OH278657   0.973   3.271  13.965 -0.0188 -0.2223 -0.2741
19081TIP3    H178658   0.948   3.308  14.049  2.0944  0.2025  0.2160
19081TIP3    H278659   0.892   3.269  13.914 -0.4763  4.0054  0.1063
19082TIP3   OH278660   6.663   0.434   1.607  0.0710 -0.0214  0.2334
19082TIP3    H178661   6.570   0.415   1.597  0.2756 -1.1605  0.4082
19082TIP3    H278662   6.670   0.529   1.594 -1.0592  0.0177 -0.1290
19083TIP3   OH278663   0.515   4.091  15.488  0.2191  0.0651  0.1381
19083TIP3    H178664   0.510   4.003  15.451  1.2920 -0.4681  1.2228
19083TIP3    H278665   0.471   4.083  15.573 -2.3441  1.3041 -0.9884
19084TIP3   OH278666   1.206   3.623   3.980  0.4203 -0.4165  0.1791
19084TIP3    H178667   1.171   3.630   4.069 -1.0123 -2.4245 -0.1858
19084TIP3    H278668   1.130   3.639   3.924  0.8809 -1.1551 -0.6637
19085TIP3   OH278669   6.034   4.757  17.198 -0.2440  0.3565  0.3019
19085TIP3    H178670   6.018   4.851  17.197 -2.6871 -0.0339  0.3836
19085TIP3    H278671   5.987   4.724  17.121  0.8207 -0.7850  0.1226
19086TIP3   OH278672   2.205   0.341   2.932 -0.0940  0.1271  0.6239
19086TIP3    H178673   2.154   0.293   2.866  0.3407  0.2617  0.1860
19086TIP3    H278674   2.238   0.417   2.885  3.2253 -1.6129 -0.0009
19087TIP3   OH278675   5.440   6.046  10.918  0.3332 -0.3461 -0.1597
19087TIP3    H178676   5.463   6.085  11.003  0.5750 -0.0661 -0.3487
19087TIP3    H278677   5.458   6.116  10.855 -0.4463 -0.3463 -0.3754
19088TIP3   OH278678   5.209   3.958   1.939  0.0937  0.2854 -0.6306
19088TIP3    H178679   5.253   4.013   2.004  0.0948 -0.0496 -0.3468
19088TIP3    H278680   5.177   4.020   1.873 -0.9479  0.7582  0.2908
19089TIP3   OH278681   4.121   6.249   3.326  0.4728  0.2318  0.4870
19089TIP3    H178682   4.086   6.234   3.414 -1.0234 -1.9846 -0.4435
19089TIP3    H278683   4.061   6.313   3.287  0.9501  0.9732  0.9681
19090TIP3   OH278684   4.906   5.876  13.082  0.2461  0.5423  1.1184
19090TIP3    H178685   4.903   5.869  13.177 -2.1997 -2.1688  0.8941
19090TIP3    H278686   4.948   5.795  13.053 -1.6851  0.0040 -0.2359
19091TIP3   OH278687   3.328   0.161  17.165  0.5985  0.2269 -0.1178
19091TIP3    H178688   3.364   0.199  17.085 -0.0092  0.6395 -0.1941
19091TIP3    H278689   3.245   0.207  17.178  0.2223 -0.5409  0.1975
19092TIP3   OH278690   2.829   6.106   5.308 -0.1888  0.1425  0.1928
19092TIP3    H178691   2.846   6.032   5.367 -1.0507  0.3645  0.7233
19092TIP3    H278692   2.912   6.118   5.261  0.8268  0.5601  2.0088
19093TIP3   OH278693   5.429   0.758   0.822  0.4141  0.1928  0.0727
19093TIP3    H178694   5.453   0.747   0.914 -0.1247  0.5135  0.2515
19093TIP3    H278695   5.495   0.707   0.774  0.3111 -0.5076  0.6638
19094TIP3   OH278696   4.718   2.457  14.779 -0.1618 -0.8697 -0.4423
19094TIP3    H178697   4.723   2.424  14.869  0.0304 -0.7039 -0.3937
19094TIP3    H278698   4.736   2.551  14.786  2.3498 -1.2873 -0.9467
19095TIP3   OH278699   6.372   3.978   4.929  0.6879  0.5898  0.0467
19095TIP3    H178700   6.422   3.983   4.848 -0.1792  1.5758 -0.4517
19095TIP3    H278701   6.343   3.887   4.934 -0.5258  0.8667 -1.5534
19096TIP3   OH278702   5.011   1.017  16.387  0.2041  0.1415  0.6893
19096TIP3    H178703   5.090   1.011  16.442  0.1969  0.3654  0.7213
19096TIP3    H278704   5.044   1.010  16.298  0.0109 -2.4692  0.7831
19097TIP3   OH278705   6.544   6.354   3.755 -0.4369  0.0134 -0.0718
19097TIP3    H178706   6.591   6.319   3.679 -1.6445  2.0452 -1.8397
19097TIP3    H278707   6.482   6.285   3.779 -2.9712  0.8480 -3.6492
19098TIP3   OH278708   5.554   0.802   1.603 -0.5854  0.1603  0.7189
19098TIP3    H178709   5.559   0.774   1.694  0.1843 -0.4484  0.4904
19098TIP3    H278710   5.522   0.725   1.555  2.9151 -0.8604 -0.1254
19099TIP3   OH278711   4.286   6.166   3.616  0.7442  0.1421  0.4807
19099TIP3    H178712   4.281   6.255   3.650 -1.0225  0.4109 -0.4658
19099TIP3    H278713   4.332   6.175   3.532  1.0903  0.0633  0.6569
19100TIP3   OH278714   2.200   4.351  17.170 -0.0652 -0.1478 -0.0268
19100TIP3    H178715   2.206   4.284  17.238 -2.7504  0.8557  1.2404
19100TIP3    H278716   2.264   4.418  17.196 -1.8540  0.7731  2.1959
19101TIP3   OH278717   1.667   1.869   5.677 -0.0251  0.2169  0.2835
19101TIP3    H178718   1.667   1.780   5.640 -0.9008 -0.6725  2.3637
19101TIP3    H278719   1.709   1.923   5.610  0.9210 -1.8488 -0.8186
19102TIP3   OH278720   2.771   5.610   4.885 -0.3393 -0.3696  0.1945
19102TIP3    H178721   2.840   5.624   4.949  1.6459  1.5215 -2.2559
19102TIP3    H278722   2.701   5.669   4.912  0.7507  0.9075  0.2767
19103TIP3   OH278723   2.563   2.885  17.162  0.2306 -0.4289 -0.0468
19103TIP3    H178724   2.472   2.896  17.133  0.6495  1.9552 -0.5339
19103TIP3    H278725   2.573   2.946  17.235  1.5253 -0.4746 -0.1684
19104TIP3   OH278726   4.433   3.598   6.610 -0.2943 -0.4893 -0.0217
19104TIP3    H178727   4.466   3.530   6.669  1.2514 -0.7554 -1.2018
19104TIP3    H278728   4.404   3.668   6.669  1.8853 -0.4609  1.0361
19105TIP3   OH278729   2.361   0.194  12.100 -0.6686 -0.4779  0.0165
19105TIP3    H178730   2.282   0.142  12.114  1.0584 -3.7511 -1.9060
19105TIP3    H278731   2.392   0.167  12.014  2.9584  0.1760  1.0421
19106TIP3   OH278732   0.565   3.650  11.906  0.2886 -0.2974 -0.0505
19106TIP3    H178733   0.547   3.743  11.920  0.3906 -0.0174 -1.6604
19106TIP3    H278734   0.661   3.643  11.908  0.2185 -0.9265  3.3104
19107TIP3   OH278735   4.868   3.486  14.973 -0.1117  0.5852  0.3830
19107TIP3    H178736   4.776   3.488  15.000 -0.6177 -0.8074 -1.1544
19107TIP3    H278737   4.890   3.393  14.975  1.2500  0.9114  0.6548
19108TIP3   OH278738   3.203   4.397  13.305  0.5976  0.0498  0.1097
19108TIP3    H178739   3.239   4.457  13.239 -0.3541 -0.9175 -1.3348
19108TIP3    H278740   3.182   4.318  13.255  1.4999 -1.3574  1.9192
19109TIP3   OH278741   2.010   1.155  10.602 -0.0403 -0.7058  0.2636
19109TIP3    H178742   2.011   1.099  10.525  1.1684 -0.7810  0.3206
19109TIP3    H278743   1.945   1.222  10.583 -0.9908 -1.7228 -0.0918
19110TIP3   OH278744   5.256   5.094  14.434  0.0058  0.2539 -0.2205
19110TIP3    H178745   5.229   5.093  14.342 -3.1423 -2.2446  0.6598
19110TIP3    H278746   5.199   5.031  14.477  3.8334 -1.3648  2.8179
19111TIP3   OH278747   1.700   6.554   4.728  0.4014  0.0515 -0.1707
19111TIP3    H178748   1.729   6.501   4.803 -0.5700  0.1200  0.2598
19111TIP3    H278749   1.757   6.526   4.656  0.7310 -0.6837  0.3616
19112TIP3   OH278750   0.613   3.687  13.110  0.5640 -0.2464  0.2670
19112TIP3    H178751   0.663   3.653  13.037  0.2954  0.7427 -0.3980
19112TIP3    H278752   0.582   3.610  13.157 -0.6107 -0.9321 -1.5856
19113TIP3   OH278753   3.989   1.752  14.660  0.2245 -0.1992 -0.1746
19113TIP3    H178754   3.999   1.657  14.661  0.0442 -0.2129  0.5977
19113TIP3    H278755   4.078   1.787  14.665  0.1500 -0.3206  4.4733
19114TIP3   OH278756   3.030   1.372  13.486 -0.3444 -0.6972 -0.0458
19114TIP3    H178757   3.089   1.447  13.474 -0.1079 -0.9313 -0.3666
19114TIP3    H278758   2.951   1.409  13.525 -0.5961 -0.1276 -1.0868
19115TIP3   OH278759   3.997   3.217  11.665 -0.4689  0.3778 -0.7580
19115TIP3    H178760   4.014   3.276  11.739 -0.0405 -0.9727  0.2475
19115TIP3    H278761   3.908   3.237  11.638 -0.8172  0.5346  0.4795
19116TIP3   OH278762   5.288   1.625  13.336 -0.3871  0.3042 -0.2529
19116TIP3    H178763   5.278   1.700  13.277 -3.1083 -0.2248 -0.5286
19116TIP3    H278764   5.349   1.656  13.403 -1.8890  3.0227 -0.0310
19117TIP3   OH278765   0.829   1.265   4.873 -0.2170  0.1802 -0.3138
19117TIP3    H178766   0.888   1.205   4.919 -0.7598  1.0083  1.4950
19117TIP3    H278767   0.885   1.340   4.849 -0.0603  0.0004 -0.5150
19118TIP3   OH278768   1.121   5.117   1.300 -0.1086 -0.1416  0.0114
19118TIP3    H178769   1.110   5.143   1.392 -0.5979 -1.9207  0.4702
19118TIP3    H278770   1.160   5.194   1.258  1.7554  0.0836  2.0664
19119TIP3   OH278771   6.563   3.137  15.848  0.0016 -0.3386  0.3880
19119TIP3    H178772   6.634   3.171  15.794 -0.0006 -1.5994 -0.4168
19119TIP3    H278773   6.485   3.148  15.794  0.0883 -2.1753 -0.1402
19120TIP3   OH278774   1.786   4.067   1.438  0.8055  0.7885  0.2114
19120TIP3    H178775   1.772   4.059   1.344  0.9809  1.5824  0.1095
19120TIP3    H278776   1.698   4.069   1.475  0.7442 -0.0016  0.1078
19121TIP3   OH278777   4.382   3.811   1.285  0.4081 -0.1929 -0.0377
19121TIP3    H178778   4.398   3.881   1.222  0.9983  0.1069  0.4351
19121TIP3    H278779   4.309   3.844   1.338 -0.2200 -0.5335 -0.6904
19122TIP3   OH278780   5.719   3.421   5.936  0.0861  0.1486 -0.2493
19122TIP3    H178781   5.731   3.516   5.940  0.7268  0.0170  1.0213
19122TIP3    H278782   5.762   3.387   6.015  0.1464 -1.2281 -0.8521
19123TIP3   OH278783   0.529   4.033  14.214  0.0477 -0.1146  0.9288
19123TIP3    H178784   0.526   4.004  14.305  1.2643  0.8701  1.3065
19123TIP3    H278785   0.619   4.065  14.202  0.4350 -1.8453 -1.1348
19124TIP3   OH278786   2.456   1.247   2.598  0.4697 -0.7234  0.9443
19124TIP3    H178787   2.470   1.259   2.505  0.0923 -0.3807  0.9268
19124TIP3    H278788   2.544   1.234   2.635  0.5150 -1.9906  0.3946
19125TIP3   OH278789   4.221   5.281  13.704 -0.3761  0.2944 -0.2219
19125TIP3    H178790   4.233   5.252  13.614 -0.6364 -3.7409  0.9314
19125TIP3    H278791   4.309   5.276  13.743 -0.9138 -2.1150  0.8011
19126TIP3   OH278792   5.343   0.385  11.378  0.1636 -0.2464 -0.2754
19126TIP3    H178793   5.349   0.345  11.292 -0.5395 -0.5142 -0.2035
19126TIP3    H278794   5.281   0.330  11.426 -0.3900  0.6125 -0.0015
19127TIP3   OH278795   4.153   1.569  13.391  0.9484 -0.0281 -0.5038
19127TIP3    H178796   4.246   1.555  13.378  1.5604  1.2384  2.1315
19127TIP3    H278797   4.119   1.484  13.418  1.7521 -0.0149  0.5722
19128TIP3   OH278798   4.495   2.577   3.240 -0.1160  0.4420  0.1439
19128TIP3    H178799   4.480   2.528   3.321 -0.8273 -1.0029 -0.8281
19128TIP3    H278800   4.589   2.572   3.226 -0.0670  0.1484  0.5580
19129TIP3   OH278801   6.557   4.522  11.938  0.3114 -0.5817 -0.4941
19129TIP3    H178802   6.513   4.561  12.014 -0.6661 -0.3508 -1.1639
19129TIP3    H278803   6.645   4.560  11.939 -0.2040  0.6516 -0.3741
19130TIP3   OH278804   4.554   4.178   3.165  0.1067  0.4138  0.3654
19130TIP3    H178805   4.478   4.125   3.142 -0.8451  2.4774 -1.3898
19130TIP3    H278806   4.614   4.168   3.090 -0.0958  1.8161  0.0068
19131TIP3   OH278807   2.346   5.908  13.352 -0.2548 -0.0433 -0.2487
19131TIP3    H178808   2.415   5.935  13.412 -0.4763  1.7934 -0.7869
19131TIP3    H278809   2.391   5.862  13.282  0.2524 -0.2173  0.1938
19132TIP3   OH278810   1.494   3.885   4.171  0.5157 -0.0292 -0.4569
19132TIP3    H178811   1.506   3.969   4.127 -0.6534 -0.2191 -1.1632
19132TIP3    H278812   1.544   3.894   4.252  1.5424  0.8377 -1.1566
19133TIP3   OH278813   0.824   0.105  15.922 -0.1898 -0.0620  0.1439
19133TIP3    H178814   0.838   0.018  15.885 -0.2382  0.5175 -1.2795
19133TIP3    H278815   0.747   0.139  15.875  0.7760  1.3622 -0.4597
19134TIP3   OH278816   5.124   0.478   6.075 -0.0299  0.2537  0.4188
19134TIP3    H178817   5.072   0.399   6.091 -0.4993  0.3958 -0.3728
19134TIP3    H278818   5.064   0.550   6.092  0.6381  0.4661  1.9515
19135TIP3   OH278819   6.244   6.335   1.310  0.0133  0.0515 -0.0665
19135TIP3    H178820   6.284   6.418   1.285 -0.5516  0.5835  0.7536
19135TIP3    H278821   6.202   6.303   1.231 -0.7381  1.1179 -0.1089
19136TIP3   OH278822   1.305   3.145  15.851 -0.5362  0.1403  0.3542
19136TIP3    H178823   1.308   3.225  15.904 -1.1993 -0.0507  0.6789
19136TIP3    H278824   1.364   3.163  15.777 -0.3601  0.7698  0.6457
19137TIP3   OH278825   3.726   3.424   0.830  0.3417  0.4756  0.4583
19137TIP3    H178826   3.671   3.385   0.897  1.5296  1.2187  1.9022
19137TIP3    H278827   3.673   3.495   0.794 -0.1806  0.2832  0.8428
19138TIP3   OH278828   3.700   2.814  14.931 -0.0199  0.3811 -0.1378
19138TIP3    H178829   3.762   2.794  15.001 -1.4387 -1.3719  0.6640
19138TIP3    H278830   3.710   2.742  14.869 -1.3397 -0.0144  0.0921
19139TIP3   OH278831   0.192   3.547  15.642  0.2309  0.3719 -0.1549
19139TIP3    H178832   0.106   3.583  15.661  0.4595  0.8567 -0.0292
19139TIP3    H278833   0.177   3.482  15.574 -0.4134 -0.4368  0.7537
19140TIP3   OH278834   5.172   0.048   2.112  0.6069  0.1491  0.0279
19140TIP3    H178835   5.134  -0.003   2.183 -0.3267 -1.0756 -1.3355
19140TIP3    H278836   5.106   0.114   2.091 -0.0964 -0.9178 -1.2024
19141TIP3   OH278837   4.835   3.579  10.590 -0.5296  0.4234  0.5205
19141TIP3    H178838   4.898   3.605  10.524 -0.7954  0.5942  0.3365
19141TIP3    H278839   4.881   3.513  10.643 -0.7810 -0.7258 -0.6692
19142TIP3   OH278840   0.580   5.826   2.236  0.4667 -0.1710  0.1598
19142TIP3    H178841   0.668   5.841   2.271 -0.2766  0.5451  1.8261
19142TIP3    H278842   0.565   5.732   2.247  0.9552 -0.2619  0.0523
19143TIP3   OH278843   6.331   5.763  10.538 -0.1914 -0.2661 -0.2822
19143TIP3    H178844   6.274   5.743  10.611  2.0906  0.0512  1.6415
19143TIP3    H278845   6.366   5.679  10.510  0.3485 -0.2044  0.1974
19144TIP3   OH278846   1.837   0.605  11.591  0.2025 -0.3217  0.2122
19144TIP3    H178847   1.753   0.647  11.612  0.9318  1.4659 -0.2849
19144TIP3    H278848   1.816   0.545  11.519 -0.5251  0.7371 -0.4978
19145TIP3   OH278849   3.640   4.903  13.799  0.0529  0.6062  0.1712
19145TIP3    H178850   3.659   4.961  13.873  0.8560  0.4943  0.0541
19145TIP3    H278851   3.726   4.871  13.771 -0.4721 -1.9107  1.2441
19146TIP3   OH278852   3.018   0.949   0.632 -0.7373 -0.1042  0.5626
19146TIP3    H178853   2.941   0.965   0.577 -0.4965  0.2680  0.3262
19146TIP3    H278854   3.032   0.855   0.627 -0.4745 -0.0202 -0.3434
19147TIP3   OH278855   5.247   3.845   6.471  0.1522  0.4167  0.2533
19147TIP3    H178856   5.337   3.878   6.464 -0.2093  1.0700 -1.5024
19147TIP3    H278857   5.244   3.770   6.412  0.1625 -1.0098  2.0474
19148TIP3   OH278858   2.047   3.404  15.204 -0.6612 -0.8576 -0.1097
19148TIP3    H178859   2.022   3.414  15.296 -0.7558 -1.2184 -0.0964
19148TIP3    H278860   1.964   3.404  15.156 -0.5786 -0.0285 -0.2562
19149TIP3   OH278861   1.261   2.848  14.250  0.3195  0.3586  0.0533
19149TIP3    H178862   1.226   2.759  14.246 -0.7101  0.7631 -0.0805
19149TIP3    H278863   1.186   2.903  14.272  0.9800  1.1803  0.3189
19150TIP3   OH278864   4.433   4.324   2.069 -0.2907 -0.5396  0.3843
19150TIP3    H178865   4.479   4.309   1.986 -1.2034  0.9278 -0.4042
19150TIP3    H278866   4.455   4.413   2.093 -0.2074 -0.8930  1.6135
19151TIP3   OH278867   0.465   3.412  12.734  0.1035  0.0596 -0.2003
19151TIP3    H178868   0.531   3.370  12.679 -0.1616 -1.0112  0.2690
19151TIP3    H278869   0.505   3.417  12.820  0.7826  2.3826 -0.6393
19152TIP3   OH278870   0.113   4.922   3.434  0.2257  0.3590 -0.0916
19152TIP3    H178871   0.174   4.976   3.483  0.2466  0.9186 -0.7283
19152TIP3    H278872   0.075   4.981   3.369 -1.0591  0.0520  0.3434
19153TIP3   OH278873   3.606   2.990  14.690 -0.5946 -0.2542 -0.3753
19153TIP3    H178874   3.650   2.956  14.768 -1.4758 -1.6399 -0.4659
19153TIP3    H278875   3.526   3.032  14.723 -0.7467 -0.4513 -0.4929
19154TIP3   OH278876   4.904   4.018  15.760  0.2799  0.1851  0.0762
19154TIP3    H178877   4.844   4.003  15.833  0.7146  1.2112  0.6574
19154TIP3    H278878   4.848   4.014  15.682 -0.2638 -0.4712  0.4980
19155TIP3   OH278879   5.492   0.719  13.732 -0.1109 -0.7315 -0.9543
19155TIP3    H178880   5.444   0.797  13.702 -2.0154 -1.5293 -0.0883
19155TIP3    H278881   5.516   0.673  13.651 -0.0857  0.1149 -1.4328
19156TIP3   OH278882   1.773   1.842   5.936 -0.7171 -1.0869 -0.0651
19156TIP3    H178883   1.866   1.865   5.930 -0.8652  0.0570  1.7011
19156TIP3    H278884   1.739   1.857   5.847 -0.0520  2.3341  0.1840
19157TIP3   OH278885   3.150   0.651   4.095 -0.3218  0.0982 -0.0089
19157TIP3    H178886   3.232   0.605   4.078 -1.2380 -1.0413 -1.4755
19157TIP3    H278887   3.126   0.689   4.010 -1.7537 -0.3403  0.1775
19158TIP3   OH278888   6.385   2.437  11.463 -0.0715  0.2853 -0.3667
19158TIP3    H178889   6.362   2.491  11.387  0.9082  0.9745 -0.1741
19158TIP3    H278890   6.478   2.454  11.478 -0.4012  0.6115  1.3677
19159TIP3   OH278891   1.584   2.180  10.889  0.8895 -0.1744 -0.4176
19159TIP3    H178892   1.574   2.088  10.863 -0.8739 -0.0347 -0.3150
19159TIP3    H278893   1.636   2.219  10.818  0.7200 -1.0029 -1.0172
19160TIP3   OH278894   2.901   5.519  13.226  0.1799 -0.0507  0.2400
19160TIP3    H178895   2.980   5.537  13.277  0.1808 -0.3128  0.3295
19160TIP3    H278896   2.923   5.442  13.175  0.5704  0.8629 -0.9973
19161TIP3   OH278897   2.552   5.117  12.211  0.0433  0.2795 -0.0496
19161TIP3    H178898   2.465   5.152  12.231  0.2174  1.0394 -0.5767
19161TIP3    H278899   2.600   5.192  12.176  1.1926  0.0788  1.0624
19162TIP3   OH278900   5.148   3.332   2.242 -0.3801 -0.6088  0.2121
19162TIP3    H178901   5.074   3.393   2.236 -1.1350 -1.4815  0.5151
19162TIP3    H278902   5.123   3.271   2.311  0.5985 -0.9595  0.2571
19163TIP3   OH278903   0.702   1.980  10.985 -0.0383  0.1884 -0.0473
19163TIP3    H178904   0.791   1.994  10.955  0.5689 -0.4092  1.4294
19163TIP3    H278905   0.701   1.889  11.016 -0.6262  0.7691  1.7067
19164TIP3   OH278906   3.383   3.023  12.115  0.3912  0.2357  0.0491
19164TIP3    H178907   3.368   3.018  12.209 -0.7896 -0.5536 -0.1588
19164TIP3    H278908   3.454   2.961  12.098 -0.2641 -0.5809  0.2557
19165TIP3   OH278909   0.444   5.988  15.006 -0.3856 -0.5317  0.3182
19165TIP3    H178910   0.389   5.917  15.038 -0.1985 -0.4254  0.8840
19165TIP3    H278911   0.393   6.067  15.020 -1.2394 -0.6862 -1.7602
19166TIP3   OH278912   0.965   6.386   3.300  0.1883  0.3611 -0.1191
19166TIP3    H178913   0.977   6.463   3.245  1.0587  0.9734  0.8940
19166TIP3    H278914   0.927   6.420   3.381  1.5154 -0.1059  0.7237
19167TIP3   OH278915   6.681   4.023  12.052  0.4036 -0.0175 -0.4918
19167TIP3    H178916   6.776   4.010  12.056  0.2205 -1.5472 -0.8986
19167TIP3    H278917   6.670   4.101  11.998  1.4886  1.2286  1.0401
19168TIP3   OH278918   2.040   5.101  12.352 -0.7695  0.5998 -0.1971
19168TIP3    H178919   1.960   5.154  12.347 -1.4122 -0.3912 -0.5612
19168TIP3    H278920   2.054   5.089  12.446 -1.3655  0.3193 -0.1386
19169TIP3   OH278921   5.553   2.704  12.686  0.1670  0.1225 -0.4525
19169TIP3    H178922   5.497   2.768  12.641  0.8805  1.1776  0.1285
19169TIP3    H278923   5.638   2.714  12.643  0.7054  0.7418  0.7338
19170TIP3   OH278924   2.825   5.869  13.892 -0.3513 -0.2490 -0.5279
19170TIP3    H178925   2.918   5.856  13.909 -0.2908  1.0906  0.1932
19170TIP3    H278926   2.817   5.859  13.797  1.1706  3.3592 -1.1124
19171TIP3   OH278927   2.332   4.192   4.583  0.3250 -0.4056  0.0867
19171TIP3    H178928   2.309   4.275   4.624  1.7179  0.4983 -0.9295
19171TIP3    H278929   2.306   4.201   4.492  1.6054 -0.6052 -0.3118
19172TIP3   OH278930   0.939   4.810  10.865  0.2633  0.3388 -0.7143
19172TIP3    H178931   1.023   4.790  10.906  0.1865 -1.2107 -1.2749
19172TIP3    H278932   0.960   4.823  10.772 -0.0795  0.1675 -0.8167
19173TIP3   OH278933   0.159   2.832   1.871  0.3931  0.1667 -0.0841
19173TIP3    H178934   0.225   2.901   1.870  1.8579 -1.1780  0.9666
19173TIP3    H278935   0.208   2.753   1.895 -1.9626 -0.4660  2.9099
19174TIP3   OH278936   2.747   0.240   6.335 -0.3930 -0.0492 -0.6408
19174TIP3    H178937   2.689   0.169   6.361  0.0079  0.2714  1.1471
19174TIP3    H278938   2.776   0.216   6.247 -2.7800 -0.4913 -1.3533
19175TIP3   OH278939   6.403   1.500   6.210 -0.2866 -0.0725 -0.5976
19175TIP3    H178940   6.309   1.498   6.191 -0.1930  0.6628 -1.1614
19175TIP3    H278941   6.438   1.421   6.170 -0.6547 -0.3250 -0.4220
19176TIP3   OH278942   5.786   2.244   2.315  0.6011 -0.0390  0.4497
19176TIP3    H178943   5.839   2.320   2.289 -2.1018  1.5691 -0.5290
19176TIP3    H278944   5.833   2.207   2.390  2.0919  2.4819  0.8132
19177TIP3   OH278945   1.125   6.272  10.367  0.6412  0.2712  0.1940
19177TIP3    H178946   1.213   6.236  10.374  0.7084  0.5159  0.5902
19177TIP3    H278947   1.067   6.195  10.369  0.7427  0.2253  1.8158
19178TIP3   OH278948   1.717   0.481   5.334 -0.4575  0.4372 -0.4643
19178TIP3    H178949   1.755   0.564   5.304  0.8733  0.2093  0.5697
19178TIP3    H278950   1.749   0.417   5.271  0.3325  0.3579  0.0098
19179TIP3   OH278951   0.763   0.949  15.876  0.1090 -0.1123 -0.6224
19179TIP3    H178952   0.764   1.025  15.935  1.1911 -1.3739  1.0294
19179TIP3    H278953   0.674   0.947  15.841 -0.2114  1.3576  0.0488
19180TIP3   OH278954   5.938   4.008  13.464  0.5297  0.1492 -0.5254
19180TIP3    H178955   5.993   3.969  13.532 -0.5180  0.1696  0.3424
19180TIP3    H278956   5.983   3.987  13.382  1.4457 -0.4624  0.1243
19181TIP3   OH278957   0.554   1.182  11.885 -0.1646  0.3896  0.0529
19181TIP3    H178958   0.559   1.278  11.882 -1.6578  0.4876  0.3587
19181TIP3    H278959   0.460   1.163  11.880  0.0253 -1.0059  1.4695
19182TIP3   OH278960   6.557   2.264   2.172  0.0888 -0.0622 -0.7318
19182TIP3    H178961   6.621   2.300   2.233 -0.8753  0.6102 -0.0901
19182TIP3    H278962   6.510   2.341   2.138 -0.8982 -0.5913 -0.5968
19183TIP3   OH278963   4.684   0.998  13.642  0.0622  0.4600  0.0099
19183TIP3    H178964   4.718   1.085  13.622  0.9179 -0.3486 -2.2375
19183TIP3    H278965   4.596   0.998  13.605 -0.2206  0.5988  0.6698
19184TIP3   OH278966   0.554   4.336   1.359 -0.1009  0.5517  0.4671
19184TIP3    H178967   0.584   4.269   1.420 -0.6748  0.1228  0.2805
19184TIP3    H278968   0.614   4.409   1.372  0.4383  0.0526  0.7702
19185TIP3   OH278969   4.756   1.667  11.808  0.6938  0.7716 -0.1141
19185TIP3    H178970   4.821   1.737  11.802  1.3795  0.2027  0.6575
19185TIP3    H278971   4.673   1.711  11.791  0.9879  1.9913  1.5062
19186TIP3   OH278972   0.399   1.950  10.733 -0.2205  0.2093  0.3955
19186TIP3    H178973   0.303   1.951  10.731 -0.2222 -0.1560  0.0378
19186TIP3    H278974   0.421   1.882  10.797 -0.1953  0.9896  1.2231
19187TIP3   OH278975   5.561   5.690   5.874 -0.1128 -0.0508  0.4342
19187TIP3    H178976   5.609   5.675   5.955  1.4454 -0.2305 -0.5169
19187TIP3    H278977   5.516   5.607   5.857 -2.9336  0.9067  2.6982
19188TIP3   OH278978   1.042   3.891  14.723 -0.3093  0.3433 -0.2195
19188TIP3    H178979   0.968   3.902  14.663 -1.7575 -0.7973  1.3314
19188TIP3    H278980   1.113   3.861  14.666 -2.2681 -2.8796 -1.0840
19189TIP3   OH278981   6.692   5.229   2.891 -0.2727  0.2472 -0.3477
19189TIP3    H178982   6.692   5.317   2.929 -0.1503  1.2105 -2.5287
19189TIP3    H278983   6.742   5.237   2.810 -0.6066 -1.7487 -0.7849
19190TIP3   OH278984   5.931   1.179   3.711 -1.0277 -0.4738  0.5130
19190TIP3    H178985   5.924   1.114   3.641 -1.0967 -0.0112  0.0849
19190TIP3    H278986   5.993   1.141   3.773 -0.0099 -0.3385 -0.4072
19191TIP3   OH278987   2.638   2.948  12.137 -0.3694 -0.2241 -0.0871
19191TIP3    H178988   2.550   2.936  12.100 -1.0350  2.7588  0.3884
19191TIP3    H278989   2.664   3.035  12.108  2.4263 -1.0448 -0.1347
19192TIP3   OH278990   0.634   2.270   5.518  0.0923  0.5129  0.4088
19192TIP3    H178991   0.717   2.297   5.558 -0.6667  2.4313  0.7384
19192TIP3    H278992   0.632   2.315   5.434  0.1072 -0.8066 -0.3069
19193TIP3   OH278993   6.730   1.069  14.190  0.2641 -0.2278  0.0599
19193TIP3    H178994   6.727   1.079  14.285 -0.2397  0.7875 -0.0534
19193TIP3    H278995   6.701   0.979  14.174  2.7814 -1.2657  1.0083
19194TIP3   OH278996   6.688   2.973   2.693 -1.0119 -0.2269 -0.5213
19194TIP3    H178997   6.639   2.975   2.610 -2.6307  0.5534  0.4263
19194TIP3    H278998   6.754   3.041   2.684 -1.6336  0.3325 -0.9108
19195TIP3   OH278999   0.440   2.160   2.727  0.2031  0.1914  0.2121
19195TIP3    H179000   0.449   2.143   2.633 -1.3500 -0.9795  0.2500
19195TIP3    H279001   0.486   2.242   2.741 -0.0671  0.6905 -1.6921
19196TIP3   OH279002   0.835   4.723  12.577  0.1811  0.0924 -0.3199
19196TIP3    H179003   0.746   4.734  12.610  0.2425  2.2223 -0.7415
19196TIP3    H279004   0.825   4.718  12.482  0.2214 -3.4293 -0.1918
19197TIP3   OH279005   4.185   3.966  15.537 -0.1128 -0.0837 -0.0770
19197TIP3    H179006   4.166   3.905  15.466  0.7158  0.0082 -0.3869
19197TIP3    H279007   4.254   3.923  15.588  2.2179  1.6294 -1.6859
19198TIP3   OH279008   6.448   4.739   5.237  0.0276 -0.0439  0.0567
19198TIP3    H179009   6.462   4.783   5.153 -3.9963 -0.4294 -0.9479
19198TIP3    H279010   6.389   4.796   5.285  1.5634 -0.2836  2.2708
19199TIP3   OH279011   4.995   2.425  13.886 -0.7175  0.1226 -0.1056
19199TIP3    H179012   4.923   2.480  13.919 -0.8957  0.7420 -1.4953
19199TIP3    H279013   5.074   2.469  13.918 -0.8603  1.1929 -1.1845
19200TIP3   OH279014   0.299   3.914  11.687 -0.1097 -0.2258  0.0886
19200TIP3    H179015   0.392   3.933  11.703 -0.7398  1.8457  1.5327
19200TIP3    H279016   0.261   3.904  11.775 -1.3752 -0.4861 -0.4792
19201TIP3   OH279017   5.967   4.199   6.157  0.5688  0.8073 -0.3348
19201TIP3    H179018   6.043   4.153   6.192  0.3771  1.1159  0.4912
19201TIP3    H279019   5.944   4.263   6.225 -0.4075  0.7367 -0.5937
19202TIP3   OH279020   4.755   0.225   2.358  0.9204  0.2539 -0.0366
19202TIP3    H179021   4.843   0.252   2.386  0.9887 -0.3425  0.3382
19202TIP3    H279022   4.737   0.278   2.281  0.9451  1.5681  0.8369
19203TIP3   OH279023   0.939   1.404  11.669 -0.0725 -0.3383  0.1854
19203TIP3    H179024   0.941   1.342  11.596 -1.4434  0.0151 -0.1702
19203TIP3    H279025   1.022   1.390  11.714  0.3650 -1.2555 -0.8667
19204TIP3   OH279026   3.255   0.999  13.049  0.0261  0.1515  0.3589
19204TIP3    H179027   3.255   0.994  13.145 -0.1166 -1.4178  0.2898
19204TIP3    H279028   3.346   1.017  13.026 -0.1414  1.6284  0.8361
19205TIP3   OH279029   0.449   4.381  12.913 -0.4372 -0.1717 -0.0463
19205TIP3    H179030   0.429   4.449  12.848 -0.4241 -0.6657 -0.5715
19205TIP3    H279031   0.542   4.365  12.902 -0.3883 -0.0904  0.2570
19206TIP3   OH279032   6.232   1.336  13.387 -0.4280  0.5251  0.2226
19206TIP3    H179033   6.288   1.362  13.460  0.0205  0.6975 -0.1806
19206TIP3    H279034   6.289   1.340  13.311 -0.6948 -0.4081 -0.0263
19207TIP3   OH279035   4.446   4.417   0.496  0.7363  0.5267 -0.2174
19207TIP3    H179036   4.453   4.370   0.413  0.8209  0.8532 -0.3989
19207TIP3    H279037   4.530   4.463   0.504  0.5567  0.8457 -0.1684
19208TIP3   OH279038   0.780   6.342  17.131  0.2209  0.2563 -0.0347
19208TIP3    H179039   0.849   6.342  17.065 -1.0850  2.2911 -1.4556
19208TIP3    H279040   0.821   6.378  17.209  0.6674  1.9385 -1.0167
19209TIP3   OH279041   1.851   4.672  10.706 -0.6878  0.3901 -0.1153
19209TIP3    H179042   1.852   4.697  10.613  1.0496  0.0229 -0.2229
19209TIP3    H279043   1.942   4.650  10.725 -1.0263  0.5215  1.7036
19210TIP3   OH279044   4.469   0.610  15.246  0.0804 -0.4478 -0.0219
19210TIP3    H179045   4.460   0.543  15.178  1.1122 -0.0931 -0.5199
19210TIP3    H279046   4.534   0.671  15.211 -0.2850  0.4009  0.7610
19211TIP3   OH279047   2.432   2.368  10.694 -0.0716  0.5674  0.1115
19211TIP3    H179048   2.348   2.347  10.734  0.0237  0.4370  0.2459
19211TIP3    H279049   2.492   2.302  10.729 -0.0376  0.3073 -0.4284
19212TIP3   OH279050   5.114   3.074   5.884  0.0960  0.6284 -0.2637
19212TIP3    H179051   5.172   3.039   5.952  0.0709  2.4458  0.7216
19212TIP3    H279052   5.040   3.013   5.882  0.0739  0.5821  1.3721
19213TIP3   OH279053   5.271   2.926   0.001  0.4505  0.0174 -0.0566
19213TIP3    H179054   5.278   2.848  -0.054  0.0131 -0.7069  0.9005
19213TIP3    H279055   5.205   2.980  -0.042  0.3271 -0.4117 -0.4062
19214TIP3   OH279056   4.700   4.822   4.098 -0.4401  0.4137  0.1290
19214TIP3    H179057   4.755   4.765   4.045 -0.2550  1.5976 -0.9614
19214TIP3    H279058   4.649   4.761   4.153 -1.5435 -0.9000 -2.2557
19215TIP3   OH279059   4.260   5.563   5.802 -1.0072 -0.0579  0.4255
19215TIP3    H179060   4.213   5.602   5.875 -0.0568  0.3603  0.8183
19215TIP3    H279061   4.287   5.477   5.834 -1.6694 -0.3759  0.1338
19216TIP3   OH279062   2.366   0.688   0.724  0.3274 -0.0148  0.0441
19216TIP3    H179063   2.338   0.765   0.774  0.2141 -0.0056 -0.0344
19216TIP3    H279064   2.407   0.724   0.645  0.6901 -0.0251  0.2276
19217TIP3   OH279065   5.519   5.896  11.498 -0.0176 -0.1701 -0.4439
19217TIP3    H179066   5.465   5.827  11.537 -0.3225  0.3221  0.0144
19217TIP3    H279067   5.509   5.970  11.558 -0.6768  0.6711 -1.5779
19218TIP3   OH279068   4.304   3.941   4.591 -0.2513  0.1387  0.4644
19218TIP3    H179069   4.264   3.942   4.504  0.0221 -0.6494  0.3310
19218TIP3    H279070   4.328   4.032   4.607  0.1481  0.2015 -0.4885
19219TIP3   OH279071   4.223   0.417  11.879  0.1725 -0.0846 -0.1775
19219TIP3    H179072   4.249   0.392  11.968  0.1429  3.9416  1.0732
19219TIP3    H279073   4.305   0.414  11.829  0.9792  1.5540  1.0074
19220TIP3   OH279074   4.105   6.022  16.751  0.2836  0.6186  0.1136
19220TIP3    H179075   4.082   6.057  16.837  0.0744 -2.2342  1.2857
19220TIP3    H279076   4.172   6.081  16.717  1.9837  0.5599  3.2045
19221TIP3   OH279077   3.454   4.229   6.183 -0.1777 -0.7532  0.4268
19221TIP3    H179078   3.540   4.192   6.203 -0.0980 -0.0036  1.4967
19221TIP3    H279079   3.408   4.231   6.268 -1.3141 -1.3222 -0.1634
19222TIP3   OH279080   2.326   5.451   6.014 -0.4511  0.1450 -0.1405
19222TIP3    H179081   2.289   5.526   5.967 -2.0870 -0.1108  0.6980
19222TIP3    H279082   2.284   5.453   6.100  1.6399 -0.0632  0.9314
19223TIP3   OH279083   5.800   1.070   4.932 -0.2084 -0.0037  0.2209
19223TIP3    H179084   5.837   1.157   4.942 -2.6200  1.4274 -2.5546
19223TIP3    H279085   5.821   1.044   4.842 -0.6546 -1.7246  0.5798
19224TIP3   OH279086   2.841   5.048   0.011  0.4617  0.1907 -0.2844
19224TIP3    H179087   2.796   4.963   0.009  0.7797  0.0301 -0.8825
19224TIP3    H279088   2.909   5.040  -0.056  2.2266 -0.0276  1.4684
19225TIP3   OH279089   4.351   5.306  12.700 -0.0747  0.3142 -0.1437
19225TIP3    H179090   4.321   5.348  12.620  1.0657  1.7946  0.1881
19225TIP3    H279091   4.445   5.290  12.685 -0.2483 -1.0869  0.1752
19226TIP3   OH279092   0.361   0.434   1.792  0.3655 -0.2412 -0.1304
19226TIP3    H179093   0.455   0.444   1.776  0.8400  1.8301  3.3141
19226TIP3    H279094   0.322   0.511   1.751  0.4391 -0.0945  0.0680
19227TIP3   OH279095   5.170   6.472   3.829 -0.3506  0.3986  0.3042
19227TIP3    H179096   5.172   6.472   3.925 -0.1130 -1.6591  0.3317
19227TIP3    H279097   5.076   6.470   3.808 -0.3817 -1.2487  0.5414
19228TIP3   OH279098   2.996   2.285  14.907 -0.1068 -0.0985  0.4131
19228TIP3    H179099   2.982   2.346  14.835 -0.7071  1.5074  1.8657
19228TIP3    H279100   2.920   2.297  14.964 -0.9191 -3.1858  0.0598
19229TIP3   OH279101   4.891   2.094  11.268  0.0309 -0.4830  0.4833
19229TIP3    H179102   4.975   2.077  11.310  0.0445 -0.1701  0.5842
19229TIP3    H279103   4.853   2.007  11.253 -1.4355 -0.5498  4.0650
19230TIP3   OH279104   0.549   4.220  11.765 -0.0146 -0.1780 -0.3842
19230TIP3    H179105   0.569   4.160  11.694  1.8183 -2.0784  1.6568
19230TIP3    H279106   0.623   4.281  11.766  0.0464 -0.2553 -0.0089
19231TIP3   OH279107   5.997   4.430   5.274 -0.1167  0.5242 -0.3572
19231TIP3    H179108   6.075   4.476   5.241  0.9031 -1.1171 -0.2587
19231TIP3    H279109   5.945   4.412   5.195  0.6503 -0.3044 -0.6773
19232TIP3   OH279110   5.708   6.206  16.772  0.2336  0.2928 -0.0977
19232TIP3    H179111   5.761   6.166  16.703  1.1398  1.8572 -0.3291
19232TIP3    H279112   5.719   6.148  16.847  0.4672 -0.5951 -0.8041
19233TIP3   OH279113   1.518   1.405   1.241 -0.2823 -0.3961  0.0768
19233TIP3    H179114   1.466   1.406   1.321 -1.4464 -0.7015 -0.6695
19233TIP3    H279115   1.475   1.342   1.184 -0.0275  0.5223 -1.1635
19234TIP3   OH279116   0.613   4.693  12.923 -0.0630  0.5799 -0.3410
19234TIP3    H179117   0.529   4.736  12.940  0.4936  2.1696 -1.5725
19234TIP3    H279118   0.625   4.699  12.829  0.2795 -1.8504 -0.4941
19235TIP3   OH279119   1.339   2.672   2.264  0.3907  0.2953 -0.1509
19235TIP3    H179120   1.273   2.665   2.333 -0.4489 -0.2246 -0.9948
19235TIP3    H279121   1.290   2.699   2.187  0.8763 -1.7224 -1.2098
19236TIP3   OH279122   6.606   0.978  15.162  0.6302  0.0041  0.1257
19236TIP3    H179123   6.700   0.982  15.145  0.5986  0.5924  0.1006
19236TIP3    H279124   6.589   1.048  15.224 -0.4342  2.4806 -2.8181
19237TIP3   OH279125   5.388   5.229   2.657  0.0552 -0.0972  0.2722
19237TIP3    H179126   5.470   5.271   2.630  0.8726 -0.9093  1.4113
19237TIP3    H279127   5.411   5.136   2.668 -1.2649 -0.5126 -0.3925
19238TIP3   OH279128   4.682   3.576   3.733  0.1542 -0.5789 -0.1045
19238TIP3    H179129   4.639   3.650   3.689 -0.0549 -1.7337 -1.8784
19238TIP3    H279130   4.769   3.571   3.693  0.3707 -0.9785  0.4005
19239TIP3   OH279131   4.742   1.748  14.327 -0.2534 -0.0142 -0.5995
19239TIP3    H179132   4.709   1.796  14.403 -2.8233 -1.4987 -0.7317
19239TIP3    H279133   4.682   1.772  14.256  0.0567 -1.3381 -1.3124
19240TIP3   OH279134   4.001   0.166  14.788 -0.2159 -0.5755 -0.1896
19240TIP3    H179135   4.029   0.155  14.697 -1.0842 -2.7505 -0.2220
19240TIP3    H279136   4.024   0.083  14.831 -2.3820 -0.6711  0.8680
19241TIP3   OH279137   6.066   0.299  11.686 -0.0554 -0.0916 -0.0474
19241TIP3    H179138   5.973   0.299  11.663 -0.2373  0.5973  0.6687
19241TIP3    H279139   6.110   0.335  11.609 -0.5989  1.6087  0.4160
19242TIP3   OH279140   3.566   1.189   1.033  0.5150 -0.3907  0.0124
19242TIP3    H179141   3.604   1.132   1.100  0.2414 -0.0079  0.5091
19242TIP3    H279142   3.494   1.139   0.996 -0.4334  0.0273  1.2230
19243TIP3   OH279143   0.707   3.759  14.913  0.5844 -0.6403  0.6876
19243TIP3    H179144   0.784   3.706  14.930 -1.1151 -3.6888 -0.7130
19243TIP3    H279145   0.637   3.696  14.899 -1.5621  1.9885 -0.9394
19244TIP3   OH279146   6.676   4.979  16.287  0.0022  0.4990  0.3936
19244TIP3    H179147   6.637   5.066  16.283 -0.3341  0.3141 -0.5022
19244TIP3    H279148   6.623   4.927  16.226  1.4587  0.1605 -0.5907
19245TIP3   OH279149   3.841   6.668  14.727 -0.3544 -0.1151  0.0561
19245TIP3    H179150   3.924   6.673  14.773 -0.2421 -0.5787 -0.0922
19245TIP3    H279151   3.780   6.719  14.781 -0.1787 -0.4972  0.6149
19246TIP3   OH279152   5.322   2.966   1.473  0.3625 -0.1727 -0.2003
19246TIP3    H179153   5.384   2.916   1.419 -0.3710 -1.2176 -0.0790
19246TIP3    H279154   5.366   3.050   1.488  0.7419 -0.0139 -2.1088
19247TIP3   OH279155   0.207   6.659   4.171 -0.1159  0.4131  1.0346
19247TIP3    H179156   0.168   6.604   4.103  0.0378  1.6511 -0.0914
19247TIP3    H279157   0.148   6.734   4.178  0.4674  0.8403  1.4670
19248TIP3   OH279158   3.844   2.394  17.075  0.2617 -0.3943 -0.0964
19248TIP3    H179159   3.858   2.483  17.042  0.5340  0.0666  1.2537
19248TIP3    H279160   3.762   2.399  17.124  0.0171 -1.0099 -0.4353
19249TIP3   OH279161   0.626   1.587  16.759 -0.3840  0.1669 -0.2173
19249TIP3    H179162   0.684   1.648  16.713  2.6468 -2.7662 -0.4828
19249TIP3    H279163   0.616   1.514  16.698 -0.6502 -1.3946  1.6521
19250TIP3   OH279164   2.179   1.449   4.676  0.3613 -0.3012 -0.7590
19250TIP3    H179165   2.243   1.432   4.745  0.1030  0.1629 -0.4089
19250TIP3    H279166   2.154   1.541   4.688 -0.6231 -0.5785 -0.6924
19251TIP3   OH279167   0.569   0.099  11.818 -0.4630  0.1506 -0.4991
19251TIP3    H179168   0.487   0.050  11.817 -0.4608  0.1227  0.4452
19251TIP3    H279169   0.637   0.031  11.816 -0.4635  0.1437 -0.3115
19252TIP3   OH279170   4.500   5.161   4.781 -0.3259 -0.5027  0.2715
19252TIP3    H179171   4.414   5.144   4.742  0.0055 -1.7737  0.0847
19252TIP3    H279172   4.554   5.086   4.755  1.3368  1.0875 -1.0330
19253TIP3   OH279173   3.999   1.738  15.969 -0.3836 -0.6969  0.1180
19253TIP3    H179174   4.084   1.754  15.928 -0.6635 -0.0608 -0.2264
19253TIP3    H279175   4.020   1.703  16.055  0.2464  0.3587  0.4044
19254TIP3   OH279176   2.760   5.294   2.360  0.3866 -0.6016 -0.5832
19254TIP3    H179177   2.853   5.283   2.339  0.2496 -1.3590 -0.8363
19254TIP3    H279178   2.734   5.372   2.312  1.0252 -0.0661 -0.0610
19255TIP3   OH279179   2.086   4.749  14.010  0.0378  0.2874  0.6647
19255TIP3    H179180   2.106   4.679  13.948 -0.5790 -0.7323  1.5990
19255TIP3    H279181   1.991   4.745  14.022 -0.0483  1.5115  0.4604
19256TIP3   OH279182   1.369   0.691  12.175  0.3502 -0.5717  0.2419
19256TIP3    H179183   1.355   0.668  12.083  1.7206 -0.5647  0.0204
19256TIP3    H279184   1.454   0.654  12.195 -0.3225 -1.3218  1.7705
19257TIP3   OH279185   1.224   6.411   5.243 -0.3290 -0.3892  0.1156
19257TIP3    H179186   1.309   6.452   5.262 -0.3147 -0.2699 -0.1960
19257TIP3    H279187   1.245   6.337   5.186 -0.1326 -2.1137  2.3584
19258TIP3   OH279188   6.382   1.678   5.415 -0.5524  0.3784  0.0325
19258TIP3    H179189   6.369   1.646   5.326 -1.1625  2.0791 -0.5016
19258TIP3    H279190   6.367   1.601   5.470 -2.9751 -0.0652 -1.1636
19259TIP3   OH279191   2.643   1.009  14.293 -0.1040  0.1686 -0.2557
19259TIP3    H179192   2.630   0.924  14.250  1.5683  0.2870 -1.0206
19259TIP3    H279193   2.729   1.002  14.334  0.9258  2.2032 -2.0219
19260TIP3   OH279194   5.302   3.393   2.569 -0.1776  0.1840 -0.1047
19260TIP3    H179195   5.286   3.402   2.663  0.3366  0.9157 -0.0822
19260TIP3    H279196   5.239   3.453   2.528 -2.9040 -2.7577 -0.4429
19261TIP3   OH279197   4.539   0.514   3.338  0.3771 -0.1890  0.2097
19261TIP3    H179198   4.631   0.540   3.347  0.2739  0.0306  0.6329
19261TIP3    H279199   4.540   0.419   3.351  0.5007 -0.1442  0.5213
19262TIP3   OH279200   0.102   1.848   1.997  0.0390  0.2123  0.4046
19262TIP3    H179201   0.120   1.862   1.904  0.0061  1.5321  0.5840
19262TIP3    H279202   0.007   1.838   2.002 -0.1148  1.6121  0.4649
19263TIP3   OH279203   6.436   4.094  13.881 -0.1847  0.3609  0.2815
19263TIP3    H179204   6.471   4.119  13.795  0.0671 -1.0080 -0.0315
19263TIP3    H279205   6.473   4.158  13.941  2.9227 -1.0017 -0.0441
19264TIP3   OH279206   6.556   4.092  16.758  0.1189 -0.5365  0.3562
19264TIP3    H179207   6.613   4.020  16.730 -0.3571 -1.5111  1.8441
19264TIP3    H279208   6.616   4.156  16.795  0.3119 -1.4499  1.6845
19265TIP3   OH279209   4.050   2.678   5.431  0.2683  0.1288 -0.2335
19265TIP3    H179210   4.136   2.667   5.471  0.1069 -1.1222 -0.2056
19265TIP3    H279211   4.045   2.609   5.365 -0.1764  1.0588 -1.1910
19266TIP3   OH279212   5.932   3.066  11.820 -0.3165 -0.0986  0.2372
19266TIP3    H179213   5.952   3.150  11.778 -1.5307 -0.2416 -0.6636
19266TIP3    H279214   6.013   3.041  11.864  0.3746  1.0283 -0.3749
19267TIP3   OH279215   1.958   0.077   0.113 -0.1241 -0.2214  0.8495
19267TIP3    H179216   1.932   0.023   0.187  0.2509 -0.1668  1.0208
19267TIP3    H279217   1.997   0.015   0.051 -1.0360 -0.3677  0.4112
19268TIP3   OH279218   4.309   6.429   2.341 -0.3632 -0.3602  0.1845
19268TIP3    H179219   4.281   6.417   2.432  2.5609 -2.6448  0.8455
19268TIP3    H279220   4.337   6.521   2.338  1.3701 -0.7629  2.1906
19269TIP3   OH279221   3.214   2.668   4.420 -0.2537 -0.7519  0.3439
19269TIP3    H179222   3.309   2.657   4.429 -0.1666  0.2959  0.7938
19269TIP3    H279223   3.178   2.632   4.501  0.0106  1.9622  1.6922
19270TIP3   OH279224   1.449   6.329   2.442 -0.6768  0.4338 -0.3587
19270TIP3    H179225   1.544   6.328   2.439 -0.7108 -0.7827 -2.6174
19270TIP3    H279226   1.427   6.313   2.534  1.3135 -2.0668 -0.2515
19271TIP3   OH279227   3.689   0.655   3.180 -0.0463 -0.0713 -0.8073
19271TIP3    H179228   3.694   0.697   3.265 -0.1472 -0.1210 -0.7759
19271TIP3    H279229   3.780   0.643   3.153 -0.0038 -0.6931 -0.3910
19272TIP3   OH279230   4.367   5.254  15.845  0.4617 -0.0342 -0.2574
19272TIP3    H179231   4.372   5.163  15.873 -0.1643  0.1193  0.3690
19272TIP3    H279232   4.281   5.263  15.805  0.5029  0.2876 -0.2785
19273TIP3   OH279233   5.276   1.377   3.436  0.5612  0.4638 -0.4481
19273TIP3    H179234   5.241   1.382   3.347  2.5748  0.2738 -1.2917
19273TIP3    H279235   5.246   1.458   3.478 -0.6116  0.4391 -1.2065
19274TIP3   OH279236   6.333   3.971  16.355  0.2722 -0.3689  0.5393
19274TIP3    H179237   6.335   3.972  16.450  1.9793  0.2305  0.5256
19274TIP3    H279238   6.353   3.880  16.331  0.7982 -0.3102  0.7498
19275TIP3   OH279239   0.120   4.796  10.902 -0.0135  0.2277 -0.0732
19275TIP3    H179240   0.074   4.790  10.819 -1.0760 -0.3254  0.5460
19275TIP3    H279241   0.212   4.786  10.879  0.0553  3.4564 -1.5937
19276TIP3   OH279242   1.945   3.287  12.525  0.0420 -0.2543  0.2367
19276TIP3    H179243   1.984   3.372  12.506 -0.4265  0.1512  1.0657
19276TIP3    H279244   2.018   3.234  12.556  0.1702  0.1165  0.5775
19277TIP3   OH279245   6.666   2.964   5.986  0.5775  0.8458 -0.6151
19277TIP3    H179246   6.758   2.949   6.005  1.1567  1.8433 -2.4807
19277TIP3    H279247   6.635   2.882   5.950 -0.2079 -0.6492  3.1573
19278TIP3   OH279248   5.625   6.611  14.456 -0.0369 -0.0259  0.4764
19278TIP3    H179249   5.578   6.557  14.391  0.0062 -0.2468  0.6283
19278TIP3    H279250   5.579   6.595  14.538  0.1812 -0.0876  0.5877
19279TIP3   OH279251   3.922   1.992   5.515 -0.2209  0.2548  0.0048
19279TIP3    H179252   3.913   1.901   5.487 -0.6073 -0.0729  1.1520
19279TIP3    H279253   3.950   1.986   5.606 -3.9912  1.2619  1.2896
19280TIP3   OH279254   3.955   1.566  11.986 -0.4480 -0.2670 -0.1057
19280TIP3    H179255   3.995   1.639  12.035 -0.6023 -1.5511  1.9690
19280TIP3    H279256   4.029   1.524  11.943  0.1781 -1.1200  1.7193
19281TIP3   OH279257   5.683   5.117  14.272  0.0018 -0.0784  0.7377
19281TIP3    H179258   5.675   5.205  14.309  1.4568 -0.3603  1.7335
19281TIP3    H279259   5.631   5.061  14.330 -0.8994  0.0992  0.1201
19282TIP3   OH279260   0.791   0.055  11.531  0.2735  0.0383  0.7488
19282TIP3    H179261   0.719   0.086  11.476  1.3578 -1.9175 -1.8483
19282TIP3    H279262   0.748  -0.002  11.596 -0.5352 -1.2703 -0.8958
19283TIP3   OH279263   3.831   6.594   1.672 -0.2312 -0.4076 -0.3968
19283TIP3    H179264   3.742   6.557   1.674 -0.0556 -0.8203 -0.1373
19283TIP3    H279265   3.885   6.523   1.636 -0.0091 -0.1506 -0.5711
19284TIP3   OH279266   1.432   0.100  15.269  0.1214 -0.8238 -0.1424
19284TIP3    H179267   1.353   0.133  15.226  1.0662 -0.6380 -1.7642
19284TIP3    H279268   1.425   0.133  15.359 -1.5919 -0.7259 -0.2909
19285TIP3   OH279269   1.763   1.035  16.294 -0.2086  0.3785 -0.7438
19285TIP3    H179270   1.752   1.131  16.298  0.0535  0.3873 -0.1249
19285TIP3    H279271   1.818   1.015  16.370 -2.5563 -0.5769  0.7749
19286TIP3   OH279272   4.096   2.864   0.253 -0.2509  0.1524 -0.3136
19286TIP3    H179273   4.003   2.874   0.275 -0.3272 -0.4969 -0.3163
19286TIP3    H279274   4.139   2.938   0.295 -0.7594  0.4098 -0.2405
19287TIP3   OH279275   3.978   0.125   2.426 -0.0615  0.3145 -0.1085
19287TIP3    H179276   3.922   0.095   2.354 -1.4930 -0.3018  1.2318
19287TIP3    H279277   3.922   0.183   2.477 -0.4167 -2.4733  2.8254
19288TIP3   OH279278   4.341   0.189  15.164  0.1405 -0.5417 -0.3555
19288TIP3    H179279   4.414   0.211  15.222  0.2476 -1.9826  0.0870
19288TIP3    H279280   4.337   0.093  15.167 -0.6348 -0.5543 -1.7849
19289TIP3   OH279281   1.109   4.579  15.876 -0.3543 -0.1924 -0.1985
19289TIP3    H179282   1.156   4.507  15.833 -0.8789 -1.6921  1.6772
19289TIP3    H279283   1.112   4.557  15.969 -1.8710  1.4205  0.2539
19290TIP3   OH279284   0.972   4.005  12.634  0.3206 -0.7810 -0.1596
19290TIP3    H179285   0.957   4.054  12.714  1.9684 -0.5553  0.0325
19290TIP3    H279286   0.929   3.920  12.649 -2.9264  0.7128 -0.6705
19291TIP3   OH279287   0.588   6.304   3.438  0.2765 -0.2604 -0.1201
19291TIP3    H179288   0.644   6.293   3.361 -0.8451 -1.3043 -0.7980
19291TIP3    H279289   0.553   6.393   3.430  0.1982 -0.3520 -0.7824
19292TIP3   OH279290   1.584   4.971  14.471 -0.2615 -0.1976  0.0278
19292TIP3    H179291   1.612   5.061  14.454 -0.8583 -0.4857 -2.7710
19292TIP3    H279292   1.630   4.946  14.551  0.6042  2.2927  0.3411
19293TIP3   OH279293   4.400   5.568   5.212 -0.1134 -0.2906  0.0154
19293TIP3    H179294   4.466   5.521   5.263 -0.8488 -1.6055 -0.2276
19293TIP3    H279295   4.426   5.553   5.121 -1.1187 -1.3706 -0.0980
19294TIP3   OH279296   3.898   6.258   0.621 -0.2865  0.5519 -0.9119
19294TIP3    H179297   3.840   6.190   0.587 -0.6790  0.8700 -0.8951
19294TIP3    H279298   3.969   6.211   0.664  0.8278  0.1380 -3.1355
19295TIP3   OH279299   2.178   4.857   1.047 -0.1999 -0.4104  0.4459
19295TIP3    H179300   2.196   4.896   0.961  0.3559  0.4656  0.9552
19295TIP3    H279301   2.223   4.773   1.045 -0.8424 -0.7469 -0.4108
19296TIP3   OH279302   5.098   0.830  12.352  0.7570 -0.1996 -0.5619
19296TIP3    H179303   5.110   0.760  12.288 -0.0914 -0.2548 -0.6644
19296TIP3    H279304   5.070   0.785  12.432  1.1903 -0.0724 -0.3395
19297TIP3   OH279305   6.550   5.244  16.185  0.3043  0.1975 -0.1634
19297TIP3    H179306   6.612   5.246  16.111  1.3419 -0.3978  0.6882
19297TIP3    H279307   6.575   5.319  16.238 -0.4423  0.6211 -0.4063
19298TIP3   OH279308   3.509   3.759  13.081 -0.1714  0.1371 -0.1624
19298TIP3    H179309   3.477   3.830  13.136  0.0859 -0.0535  0.2328
19298TIP3    H279310   3.442   3.691  13.089 -1.7031  1.3152 -2.5626
19299TIP3   OH279311   4.379   2.591  15.381 -0.7098  0.4725  0.2997
19299TIP3    H179312   4.353   2.679  15.408  1.1799  1.0430  0.3455
19299TIP3    H279313   4.448   2.605  15.316 -0.2985 -0.9748  0.3952
19300TIP3   OH279314   3.335   3.564  14.605  0.2289 -0.3816  0.0343
19300TIP3    H179315   3.309   3.656  14.592  3.4219  0.8981  2.1439
19300TIP3    H279316   3.262   3.525  14.652 -0.8746  1.2860 -0.2432
19301TIP3   OH279317   1.349   6.235  14.693  0.1917 -0.4111  0.7120
19301TIP3    H179318   1.329   6.213  14.602  2.1421 -0.0963  0.1695
19301TIP3    H279319   1.282   6.298  14.719 -0.8604 -1.1240 -0.2294
19302TIP3   OH279320   5.480   0.503   2.842 -0.4698 -0.2689  0.2139
19302TIP3    H179321   5.506   0.570   2.780 -0.8963 -0.1115  0.2049
19302TIP3    H279322   5.560   0.483   2.892 -0.7118  1.3929  1.2977
19303TIP3   OH279323   2.799   4.762   5.160  0.8509  0.0661 -0.0483
19303TIP3    H179324   2.771   4.693   5.220  1.1480 -0.0551 -0.0498
19303TIP3    H279325   2.787   4.843   5.209 -0.5959  0.1217 -0.4391
19304TIP3   OH279326   1.059   2.038   3.158  0.4326 -0.0219 -0.7653
19304TIP3    H179327   0.993   2.105   3.175 -0.1296 -0.8266  0.2136
19304TIP3    H279328   1.132   2.061   3.217 -0.1198 -0.7788  0.2311
19305TIP3   OH279329   5.866   5.638  13.305  0.2257 -0.0496  0.5274
19305TIP3    H179330   5.931   5.585  13.258  1.9047  0.9955  1.6180
19305TIP3    H279331   5.811   5.675  13.237  1.9890  0.6180 -0.5547
19306TIP3   OH279332   1.113   1.836   1.323 -0.5108 -0.2888 -0.1107
19306TIP3    H179333   1.051   1.887   1.270  0.0473 -1.4351 -1.9029
19306TIP3    H279334   1.134   1.894   1.396  0.2923  2.1783 -2.2053
19307TIP3   OH279335   0.836   4.671  17.101  0.2226  0.8270 -0.2609
19307TIP3    H179336   0.857   4.688  17.193  2.7453  0.1013 -0.6746
19307TIP3    H279337   0.918   4.688  17.054 -1.1332  1.5956 -2.4512
19308TIP3   OH279338   5.904   6.394  13.148 -0.0218 -0.2348 -0.0582
19308TIP3    H179339   5.914   6.312  13.100  0.1573 -0.4535  0.3489
19308TIP3    H279340   5.974   6.392  13.213 -0.5850 -0.1877  0.5556
19309TIP3   OH279341   2.922   5.210   1.364 -0.1093  0.3881 -0.7751
19309TIP3    H179342   2.891   5.291   1.323 -0.8652 -0.6267 -2.2457
19309TIP3    H279343   2.858   5.191   1.432  0.1885  1.1318 -0.2783
19310TIP3   OH279344   5.171   4.655  17.145 -0.1971 -0.0989  0.0654
19310TIP3    H179345   5.112   4.612  17.084 -0.0487  1.5799 -1.2676
19310TIP3    H279346   5.225   4.584  17.179  0.2151 -0.9562 -2.3049
19311TIP3   OH279347   1.133   3.155   4.578  0.1294  0.7767  0.5945
19311TIP3    H179348   1.056   3.098   4.574  1.4144 -0.9771  0.2148
19311TIP3    H279349   1.105   3.229   4.632 -2.4089  1.1138 -1.0858
19312TIP3   OH279350   0.583   3.147   4.880 -0.0784 -0.3178  0.6365
19312TIP3    H179351   0.673   3.121   4.901  0.8903  1.6041 -0.9691
19312TIP3    H279352   0.590   3.194   4.797 -2.7063 -0.8728  0.0462
19313TIP3   OH279353   3.198   6.606  12.791  0.1734 -0.1486 -0.6342
19313TIP3    H179354   3.181   6.521  12.750 -1.0150 -0.1052 -0.2600
19313TIP3    H279355   3.290   6.603  12.817 -0.1184 -1.7046  0.2578
19314TIP3   OH279356   1.360   3.130  10.721 -0.2345 -0.1340  0.1281
19314TIP3    H179357   1.436   3.098  10.672 -0.5171 -0.6436  0.0212
19314TIP3    H279358   1.302   3.167  10.655 -1.2287 -2.0395 -0.0897
19315TIP3   OH279359   3.929   0.973   1.060  0.5499  0.5234  0.3492
19315TIP3    H179360   3.939   0.878   1.051  0.0255  0.5329 -0.4317
19315TIP3    H279361   4.016   1.008   1.041  0.5265  0.2487 -0.2842
19316TIP3   OH279362   2.642   2.969   5.063 -0.8716  0.2093  0.0179
19316TIP3    H179363   2.619   3.062   5.074 -1.9645  0.2193 -2.1874
19316TIP3    H279364   2.602   2.926   5.139 -2.2970  1.2178 -0.1434
19317TIP3   OH279365   3.346   5.188   3.064 -0.3894  1.3165  0.0304
19317TIP3    H179366   3.257   5.170   3.034  0.1427  2.9103 -2.6610
19317TIP3    H279367   3.397   5.112   3.034 -0.7427  0.6048  1.2021
19318TIP3   OH279368   1.325   6.633  15.232 -0.1665  0.0142 -0.3218
19318TIP3    H179369   1.353   6.712  15.279  1.7636 -1.2346  0.6888
19318TIP3    H279370   1.359   6.644  15.143 -2.1613  1.4879 -0.9490
19319TIP3   OH279371   2.336   4.523  15.932  0.3534 -0.5624  0.0417
19319TIP3    H179372   2.295   4.565  16.008  1.3214 -1.0318  0.8307
19319TIP3    H279373   2.421   4.566  15.924  0.8001 -1.4389  0.0402
19320TIP3   OH279374   3.730   2.490   4.635  0.2034  0.0682  0.4081
19320TIP3    H179375   3.638   2.514   4.628  0.2302 -0.1788 -0.9105
19320TIP3    H279376   3.747   2.488   4.729 -0.7022  1.7358  0.6245
19321TIP3   OH279377   6.125   5.336  16.580  0.2710  0.3643 -0.3406
19321TIP3    H179378   6.092   5.272  16.642 -1.4498 -0.3759 -1.9588
19321TIP3    H279379   6.133   5.417  16.631  0.5465 -0.6409  1.2350
19322TIP3   OH279380   3.116   5.666   2.423 -0.5373  0.6452 -1.1690
19322TIP3    H179381   3.157   5.753   2.423 -1.1275  0.9927 -3.9139
19322TIP3    H279382   3.172   5.615   2.364 -1.4861 -0.1566 -1.3739
19323TIP3   OH279383   4.340   3.721  16.747 -0.2264  0.1948  0.6095
19323TIP3    H179384   4.381   3.787  16.692  1.8505 -1.4586  0.1103
19323TIP3    H279385   4.267   3.688  16.695  1.3444 -0.9185 -0.9394
19324TIP3   OH279386   4.445   4.016   1.112  0.1929  0.1499 -0.3574
19324TIP3    H179387   4.457   4.075   1.186 -0.8012  1.1503 -0.9772
19324TIP3    H279388   4.532   4.009   1.073  0.6096  0.0477  0.5727
19325TIP3   OH279389   5.237   4.536   3.618  0.2485  0.3961 -0.0413
19325TIP3    H179390   5.191   4.587   3.685 -1.7372 -1.3973 -0.0067
19325TIP3    H279391   5.320   4.582   3.606 -0.4410  2.1860  1.8141
19326TIP3   OH279392   4.329   2.410   2.557 -0.1869  0.3330 -0.2939
19326TIP3    H179393   4.257   2.390   2.497 -0.3085 -1.2140  0.3618
19326TIP3    H279394   4.304   2.494   2.595 -3.1606 -1.5327  2.1281
19327TIP3   OH279395   0.626   0.517   2.129 -0.4550 -0.1339 -0.2766
19327TIP3    H179396   0.705   0.569   2.116 -1.0522  1.0967  0.8737
19327TIP3    H279397   0.655   0.426   2.117  0.6776  0.4213 -1.9189
19328TIP3   OH279398   3.651   0.157   5.161 -0.0843 -0.5769 -0.6108
19328TIP3    H179399   3.666   0.064   5.177  1.6921 -0.1126  0.6522
19328TIP3    H279400   3.645   0.164   5.066  2.6213 -1.6350 -0.9194
19329TIP3   OH279401   3.360   2.775   5.730  0.4913 -0.7230 -0.4902
19329TIP3    H179402   3.319   2.807   5.811  1.1693 -2.3758  0.5380
19329TIP3    H279403   3.321   2.688   5.717 -0.0443 -0.2290 -2.2811
19330TIP3   OH279404   6.375   5.064   4.502 -0.2094 -0.3302  0.0588
19330TIP3    H179405   6.308   5.090   4.438  0.4873 -0.3601 -0.6823
19330TIP3    H279406   6.399   5.146   4.546 -0.2376 -0.2137 -0.1443
19331TIP3   OH279407   4.757   3.960  14.660  0.3876  0.3705 -0.5179
19331TIP3    H179408   4.775   4.007  14.742 -0.6627  2.1978 -1.3122
19331TIP3    H279409   4.758   4.029  14.593 -0.3729 -0.8841 -1.8201
19332TIP3   OH279410   4.149   4.407  15.715  0.6529  0.1075  0.0025
19332TIP3    H179411   4.150   4.486  15.660  0.6919  0.3748  0.3876
19332TIP3    H279412   4.186   4.339  15.659  1.4614  0.5606 -0.0214
19333TIP3   OH279413   6.247   5.196  14.818  0.0203 -0.4441  0.2063
19333TIP3    H179414   6.293   5.172  14.899 -0.9856 -0.6285  0.7338
19333TIP3    H279415   6.243   5.114  14.768 -0.3535 -0.5861  0.4696
19334TIP3   OH279416   2.013   5.111  11.204 -0.0965  0.3873  0.3829
19334TIP3    H179417   1.943   5.125  11.140  1.0050  0.0154 -0.9413
19334TIP3    H279418   2.059   5.032  11.173 -0.7009 -0.9364  2.7082
19335TIP3   OH279419   4.675   2.359   2.055 -0.1007  0.1692 -0.4128
19335TIP3    H179420   4.716   2.388   1.973 -0.0752  3.7202  0.7762
19335TIP3    H279421   4.581   2.356   2.035  0.0461 -0.7447 -1.0335
19336TIP3   OH279422   2.416   3.186   1.043 -0.0861  0.0124 -0.0378
19336TIP3    H179423   2.439   3.115   0.983  1.9853 -0.0266  0.7508
19336TIP3    H279424   2.337   3.224   1.006 -1.1593 -2.6015 -0.5721
19337TIP3   OH279425   6.117   4.483   6.014 -0.5635 -0.5183 -0.2736
19337TIP3    H179426   6.196   4.474   6.068 -0.2901 -0.3266 -0.6377
19337TIP3    H279427   6.045   4.481   6.077 -0.2645 -0.5921  0.0727
19338TIP3   OH279428   5.512   1.729   2.836  0.3439  0.1591  0.2391
19338TIP3    H179429   5.537   1.809   2.789 -1.8879  0.6968 -0.0799
19338TIP3    H279430   5.446   1.758   2.899  0.0211 -1.3167  0.5931
19339TIP3   OH279431   4.131   0.703   4.234 -0.0441  0.5875  0.6783
19339TIP3    H179432   4.197   0.732   4.297  1.7558 -0.2545 -0.7623
19339TIP3    H279433   4.180   0.649   4.172 -2.4473 -1.7357  0.7001
19340TIP3   OH279434   2.622   0.665  15.242 -0.6563 -0.5734 -0.1654
19340TIP3    H179435   2.577   0.747  15.261  0.5883  0.0898 -0.0040
19340TIP3    H279436   2.577   0.599  15.295 -1.0993  0.1693  0.3774
19341TIP3   OH279437   5.761   1.671   2.926  0.5489 -0.6470 -0.3652
19341TIP3    H179438   5.676   1.687   2.884  0.7740 -0.1663 -0.6403
19341TIP3    H279439   5.751   1.707   3.014  0.4146 -0.7385 -0.3421
19342TIP3   OH279440   4.599   4.983  15.856 -0.0149  0.2340  0.0965
19342TIP3    H179441   4.630   5.050  15.796 -1.8326  1.2890  0.2871
19342TIP3    H279442   4.618   5.017  15.944  0.8918 -0.4239  0.1586
19343TIP3   OH279443   4.975   0.825   4.660 -0.5929  0.0847 -0.1792
19343TIP3    H179444   4.978   0.900   4.600  0.7999 -0.8174 -1.2604
19343TIP3    H279445   4.921   0.760   4.615 -2.1343  0.5715  0.9351
19344TIP3   OH279446   6.197   6.744   0.066 -0.4268 -0.8304 -0.1326
19344TIP3    H179447   6.198   6.839   0.063  1.1223 -0.8440 -0.7015
19344TIP3    H279448   6.115   6.722   0.111 -0.6862  0.7637  0.2097
19345TIP3   OH279449   3.989   4.374   3.506 -0.1129 -0.4225  0.1328
19345TIP3    H179450   3.897   4.350   3.493 -0.7510  0.9754  1.8054
19345TIP3    H279451   4.033   4.344   3.427 -1.4331 -3.9516  0.6687
19346TIP3   OH279452   1.863   6.207  11.958 -0.5407  0.7514 -0.3020
19346TIP3    H179453   1.958   6.214  11.957 -0.5876  1.4242 -0.2609
19346TIP3    H279454   1.840   6.179  11.869 -0.2834  0.3065 -0.2265
19347TIP3   OH279455   5.584   4.500  15.751 -0.6469 -0.1798  1.0769
19347TIP3    H179456   5.491   4.510  15.731 -1.0076 -1.3400  2.1524
19347TIP3    H279457   5.622   4.586  15.730 -1.9560  0.3256  0.7042
19348TIP3   OH279458   3.967   5.062  13.856 -0.0098 -0.0720  0.7442
19348TIP3    H179459   3.933   5.019  13.778 -0.0952 -1.8448  1.7290
19348TIP3    H279460   4.058   5.081  13.835 -0.6971  1.7491 -0.7034
19349TIP3   OH279461   0.743   2.846   3.386 -0.7126 -0.0597 -0.9561
19349TIP3    H179462   0.664   2.827   3.438 -0.3419 -0.3311 -0.4917
19349TIP3    H279463   0.723   2.812   3.299 -0.9175 -0.5796 -0.7104
19350TIP3   OH279464   5.567   3.661  16.932 -0.3285  0.0707 -0.5810
19350TIP3    H179465   5.592   3.691  17.020 -0.7330  0.6030 -0.6417
19350TIP3    H279466   5.507   3.588  16.948 -0.0019 -0.1589 -0.4143
19351TIP3   OH279467   1.562   3.501   6.068  0.6392  0.4080  0.7275
19351TIP3    H179468   1.551   3.452   5.986  1.0506  0.0116  0.9123
19351TIP3    H279469   1.657   3.510   6.078  0.6258 -0.8271  1.9365
19352TIP3   OH279470   6.755   2.755   5.267  0.1616 -0.3996  0.1911
19352TIP3    H179471   6.719   2.827   5.216 -1.7949 -1.6487 -0.2416
19352TIP3    H279472   6.713   2.761   5.352 -0.3356 -1.2867  0.0107
19353TIP3   OH279473   4.670   6.467   5.300  0.2362  0.0018  0.3704
19353TIP3    H179474   4.689   6.379   5.331  1.2318  0.6411  1.6222
19353TIP3    H279475   4.736   6.523   5.342 -1.5986  1.6333  1.1827
19354TIP3   OH279476   4.223   2.318  15.161 -0.1909 -0.3732 -0.2793
19354TIP3    H179477   4.314   2.311  15.191 -0.3929  0.2809  0.5265
19354TIP3    H279478   4.202   2.411  15.173 -1.2893 -0.7120  0.5152
19355TIP3   OH279479   4.463   0.545  16.234 -0.3291 -0.4228 -0.4252
19355TIP3    H179480   4.398   0.479  16.260 -1.3265 -0.0042 -1.7992
19355TIP3    H279481   4.545   0.515  16.274 -1.0506 -1.7683  0.0745
19356TIP3   OH279482   1.204   1.200  15.821  0.1105 -0.2435 -0.5059
19356TIP3    H179483   1.136   1.260  15.851  0.5781  0.9993 -1.8413
19356TIP3    H279484   1.237   1.159  15.901  2.3677  4.0473  0.9464
19357TIP3   OH279485   1.131   0.836  12.221 -0.1574  0.1733 -0.7083
19357TIP3    H179486   1.220   0.812  12.196 -0.3722  0.0263 -1.3528
19357TIP3    H279487   1.119   0.924  12.185 -1.0721 -0.7217 -2.7054
19358TIP3   OH279488   2.610   2.044  13.645 -0.2100  0.2765  0.5595
19358TIP3    H179489   2.564   1.989  13.708 -0.2636 -0.1991  0.1081
19358TIP3    H279490   2.687   2.075  13.693  0.5353 -1.2675  0.4182
19359TIP3   OH279491   0.801   1.618  10.885 -0.7281 -0.6067 -0.2841
19359TIP3    H179492   0.750   1.656  10.957 -0.1234  1.6930 -1.0074
19359TIP3    H279493   0.887   1.600  10.924 -0.0406  1.6823 -0.6459
19360TIP3   OH279494   3.732   3.752  15.909  0.2341  0.8135  0.2943
19360TIP3    H179495   3.768   3.739  15.821 -0.6317  0.0173  0.0388
19360TIP3    H279496   3.656   3.694  15.912 -0.4906  1.7905  1.1312
19361TIP3   OH279497   6.326   3.124   5.004 -0.0544 -0.3111 -0.1460
19361TIP3    H179498   6.361   3.036   4.993  0.0188 -0.1593 -1.1838
19361TIP3    H279499   6.330   3.163   4.917  0.5646  0.9687  0.4360
19362TIP3   OH279500   5.667   6.226  15.663  0.5141  0.2846 -0.2624
19362TIP3    H179501   5.676   6.292  15.595  1.0627  0.1660 -0.3043
19362TIP3    H279502   5.573   6.205  15.663  0.6834 -0.5943 -1.8200
19363TIP3   OH279503   5.812   3.385   1.603  0.4239  0.1297 -0.1270
19363TIP3    H179504   5.875   3.391   1.676  0.0242 -0.2462  0.2484
19363TIP3    H279505   5.812   3.293   1.579 -1.2880 -0.2039  1.0375
19364TIP3   OH279506   2.736   5.500  14.750 -0.3425 -0.5395  0.5000
19364TIP3    H179507   2.766   5.557  14.679  0.3362 -2.6084 -0.9342
19364TIP3    H279508   2.642   5.490  14.734 -0.3790 -0.1958  0.4900
19365TIP3   OH279509   0.668   5.779  15.137 -0.2782 -0.0692 -0.0448
19365TIP3    H179510   0.602   5.843  15.112 -0.8227 -0.1988  1.0161
19365TIP3    H279511   0.697   5.808  15.224  0.0007 -0.8367  0.1260
19366TIP3   OH279512   2.197   1.757   6.558 -0.1137  0.0290  0.4102
19366TIP3    H179513   2.164   1.845   6.577 -0.8019  0.0610 -0.8606
19366TIP3    H279514   2.122   1.700   6.571  0.2107 -0.3094  0.7840
19367TIP3   OH279515   3.667   1.071   4.690 -0.0838  0.2411  0.0080
19367TIP3    H179516   3.595   1.059   4.628  0.0680 -0.2525 -0.0745
19367TIP3    H279517   3.739   1.020   4.653  0.5084  1.2640 -0.2448
19368TIP3   OH279518   6.571   6.246  16.786  0.5926 -0.3819 -0.0960
19368TIP3    H179519   6.584   6.173  16.725  2.2534 -0.4278  0.3017
19368TIP3    H279520   6.567   6.204  16.873 -0.4765 -0.1861 -0.0390
19369TIP3   OH279521   2.483   6.553  14.931  0.3286 -0.2981  0.2447
19369TIP3    H179522   2.548   6.569  14.999  0.1427  2.3475 -0.1508
19369TIP3    H279523   2.415   6.618  14.947 -1.8903 -2.4974  0.1772
19370TIP3   OH279524   2.761   1.747  14.623 -0.1136 -0.0274 -0.3237
19370TIP3    H179525   2.804   1.807  14.684  1.0298 -1.1643  0.0037
19370TIP3    H279526   2.690   1.709  14.673  1.0116 -1.1916  0.4239
19371TIP3   OH279527   3.434   0.029   5.758 -0.1252  0.0623  0.0971
19371TIP3    H179528   3.423   0.091   5.830 -0.9577 -0.3375  0.3145
19371TIP3    H279529   3.465  -0.051   5.801 -0.9974 -0.2956  0.0536
19372TIP3   OH279530   2.462   3.207  13.259 -0.0286  0.1399  0.2262
19372TIP3    H179531   2.552   3.210  13.289  0.3208  0.1972 -0.8240
19372TIP3    H279532   2.466   3.228  13.165 -1.1135  0.0582  0.1469
19373TIP3   OH279533   2.880   2.716   2.715 -0.1257 -0.1125  0.3083
19373TIP3    H179534   2.814   2.662   2.758 -1.9641  1.7742 -0.1213
19373TIP3    H279535   2.898   2.671   2.632 -2.5698  0.5855 -0.6205
19374TIP3   OH279536   3.667   1.097   1.796  0.1013 -0.1949 -0.3047
19374TIP3    H179537   3.763   1.099   1.790  0.2007 -0.6553  1.0453
19374TIP3    H279538   3.638   1.132   1.711  1.4549 -0.0622 -0.7390
19375TIP3   OH279539   1.747   0.484  11.376  0.0757 -0.1918 -0.4013
19375TIP3    H179540   1.674   0.533  11.337  1.8466  2.1407 -0.9120
19375TIP3    H279541   1.812   0.477  11.306  0.8033 -1.2950  0.3617
19376TIP3   OH279542   5.489   3.290  13.246  0.3256 -0.4284  0.2556
19376TIP3    H179543   5.454   3.202  13.230 -1.5512  0.6296 -1.7564
19376TIP3    H279544   5.411   3.345  13.254  1.5066  1.2612  0.2129
19377TIP3   OH279545   1.233   0.815   1.449 -0.1474  0.4633  0.2527
19377TIP3    H179546   1.301   0.755   1.481 -1.1188 -0.1311  1.2585
19377TIP3    H279547   1.165   0.810   1.516 -0.7163  1.8640 -0.2205
19378TIP3   OH279548   3.709   1.701  13.785 -0.0691  1.0305 -0.1385
19378TIP3    H179549   3.741   1.746  13.707  1.3192 -0.9052 -0.6961
19378TIP3    H279550   3.776   1.636  13.805 -0.4640  1.4002  2.6015
19379TIP3   OH279551   5.295   4.918  12.882 -0.5088 -0.2343  0.0594
19379TIP3    H179552   5.309   4.996  12.828 -0.4164 -0.3618 -0.1033
19379TIP3    H279553   5.242   4.949  12.955  2.0516  0.6477  1.6215
19380TIP3   OH279554   6.365   3.037   5.779  0.0595 -0.7162  0.2086
19380TIP3    H179555   6.273   3.062   5.780  0.2046 -0.1854  0.3959
19380TIP3    H279556   6.374   2.973   5.849  0.1237  0.2753  1.1084
19381TIP3   OH279557   4.251   1.792   4.192  0.3022 -0.4984  0.1147
19381TIP3    H179558   4.317   1.731   4.223  2.3684  1.2917 -0.5780
19381TIP3    H279559   4.243   1.773   4.098 -0.0405 -0.6077  0.1670
19382TIP3   OH279560   1.301   5.325  12.186 -0.0058 -0.1934  0.1530
19382TIP3    H179561   1.210   5.318  12.217  0.0461  1.6411  0.7606
19382TIP3    H279562   1.294   5.358  12.097  0.0898  0.6690  0.4626
19383TIP3   OH279563   2.117   0.367   5.591 -0.4553  0.7708  0.5033
19383TIP3    H179564   2.053   0.430   5.560 -0.6027  0.6831  0.6272
19383TIP3    H279565   2.140   0.315   5.514 -0.1983  1.0923  0.3627
19384TIP3   OH279566   0.968   6.242   0.242  0.7600  0.1139  0.0707
19384TIP3    H179567   0.914   6.310   0.202  1.7041  1.4119  0.9520
19384TIP3    H279568   0.914   6.163   0.237 -0.4397  0.9616 -0.7910
19385TIP3   OH279569   3.965   1.605  11.298  0.6343  0.1105  0.0045
19385TIP3    H179570   3.874   1.626  11.276  0.7955  0.7474 -0.0768
19385TIP3    H279571   3.974   1.630  11.390  0.5489 -0.5560  0.1956
19386TIP3   OH279572   3.780   6.135  14.309 -0.2380  0.1725  0.1373
19386TIP3    H179573   3.831   6.186  14.372  0.3017  0.3154 -0.4131
19386TIP3    H279574   3.783   6.045  14.343  2.0130 -0.1618 -0.9253
19387TIP3   OH279575   0.360   6.535   5.413 -0.6910 -0.1313  0.3324
19387TIP3    H179576   0.349   6.622   5.375 -0.2335 -0.3335 -0.2612
19387TIP3    H279577   0.433   6.544   5.474  0.5890 -0.5447 -1.1156
19388TIP3   OH279578   4.750   2.261  13.671  0.0086 -0.4176  0.6991
19388TIP3    H179579   4.693   2.307  13.733 -1.4673 -0.2253 -0.7408
19388TIP3    H279580   4.772   2.327  13.605  0.1825 -1.0403  0.1223
19389TIP3   OH279581   0.068   5.185   1.392  0.1537  0.5322 -0.4238
19389TIP3    H179582  -0.024   5.167   1.373  0.1752 -0.9733  0.8459
19389TIP3    H279583   0.109   5.197   1.306 -1.3277  1.8279 -0.9791
19390TIP3   OH279584   5.907   6.194  10.188  0.0716  1.1282 -0.8172
19390TIP3    H179585   5.866   6.258  10.131 -0.8814  0.0287 -1.3806
19390TIP3    H279586   5.912   6.237  10.273 -1.7476  1.4974 -0.8748
19391TIP3   OH279587   0.087   0.849  12.818  0.4190 -0.3945 -0.9353
19391TIP3    H179588   0.085   0.911  12.745  0.1659 -1.1460 -1.5771
19391TIP3    H279589  -0.005   0.835  12.840  0.3913 -1.7219 -1.8206
19392TIP3   OH279590   0.388   2.534  16.022 -0.0374  0.5087  0.0978
19392TIP3    H179591   0.381   2.605  15.958  2.1493  0.3353 -0.3733
19392TIP3    H279592   0.333   2.464  15.986  0.8148  0.5805 -1.3851
19393TIP3   OH279593   1.371   2.560  16.929  0.4317  0.2229  0.4291
19393TIP3    H179594   1.349   2.492  16.865  2.3243  0.1705 -0.1892
19393TIP3    H279595   1.451   2.528  16.971 -0.0811  0.8682  1.9200
19394TIP3   OH279596   4.392   5.093  14.066  0.5632 -0.5397 -0.3310
19394TIP3    H179597   4.318   5.121  14.120 -0.7814 -0.5704 -2.1061
19394TIP3    H279598   4.389   5.151  13.990  2.0483 -0.8925 -0.6684
19395TIP3   OH279599   2.167   4.114   5.131 -0.1031  0.2635  0.0859
19395TIP3    H179600   2.173   4.159   5.047 -1.0860  2.1500  0.9842
19395TIP3    H279601   2.074   4.118   5.154  0.3003  0.7254  1.7379
19396TIP3   OH279602   2.055   0.857  13.599 -0.3839 -0.0145 -0.0250
19396TIP3    H179603   2.143   0.837  13.631 -0.1364  0.8416 -0.1567
19396TIP3    H279604   2.058   0.837  13.506 -0.9119 -1.8677  0.3279
19397TIP3   OH279605   4.411   0.366  13.352  0.5145  0.1519 -0.6262
19397TIP3    H179606   4.483   0.362  13.415  1.1368 -0.4860 -1.3569
19397TIP3    H279607   4.350   0.429  13.389  0.9104 -0.1406  0.5706
19398TIP3   OH279608   1.206   2.918  15.454  0.3429 -0.5095 -0.3637
19398TIP3    H179609   1.271   2.848  15.456 -0.8231 -1.6561 -2.0337
19398TIP3    H279610   1.131   2.883  15.503  0.4732  0.3280  0.4648
19399TIP3   OH279611   1.545   2.521  14.331 -0.0246  0.6780 -0.0737
19399TIP3    H179612   1.630   2.551  14.300 -0.2915  0.7838 -0.7221
19399TIP3    H279613   1.504   2.481  14.254 -0.6406  0.8155  0.1763
19400TIP3   OH279614   0.652   6.646   3.993  0.2099  0.2611 -0.7069
19400TIP3    H179615   0.629   6.680   4.079 -0.3987  0.2887 -0.8786
19400TIP3    H279616   0.706   6.715   3.953 -3.9907  2.7064 -2.4850
19401TIP3   OH279617   0.645   6.136   3.646 -0.9718  0.2437 -0.3759
19401TIP3    H179618   0.643   6.198   3.573  1.4843 -0.3999 -1.0518
19401TIP3    H279619   0.580   6.070   3.623 -0.5907  0.3220 -1.7552
19402TIP3   OH279620   0.038   1.925  15.146 -0.3114  0.2422  0.2827
19402TIP3    H179621  -0.026   1.868  15.190 -2.2947  0.2975 -2.3780
19402TIP3    H279622   0.013   2.013  15.171  0.4303  0.1317  1.4225
19403TIP3   OH279623   0.287   3.275  12.961  0.1492 -0.0707 -0.7923
19403TIP3    H179624   0.359   3.222  12.927  0.3274 -0.2855 -0.0945
19403TIP3    H279625   0.249   3.222  13.031 -2.3440 -1.0922 -2.8433
19404TIP3   OH279626   4.980   5.711   2.955 -0.0352  0.0044  0.0557
19404TIP3    H179627   4.900   5.689   3.004  0.7246 -0.8024  0.9374
19404TIP3    H279628   4.959   5.686   2.865 -0.6402 -0.5783  0.3498
19405TIP3   OH279629   1.402   4.170   3.616  0.1071  0.5294 -0.5693
19405TIP3    H179630   1.312   4.186   3.643 -0.1141 -1.6576  0.0834
19405TIP3    H279631   1.454   4.186   3.696  0.3928  2.4218 -1.1094
19406TIP3   OH279632   4.476   4.578   2.208 -0.7310 -0.0632 -0.3340
19406TIP3    H179633   4.546   4.633   2.245 -1.0227 -0.5563  0.9783
19406TIP3    H279634   4.426   4.637   2.151 -1.2954  1.1413  1.3830
19407TIP3   OH279635   3.773   5.420   0.489  0.0264  0.6557 -0.7157
19407TIP3    H179636   3.847   5.446   0.435 -1.2931  0.3852 -2.6974
19407TIP3    H279637   3.705   5.394   0.426 -0.8980 -1.4428  1.0958
19408TIP3   OH279638   3.872   2.465  16.264  0.5772 -0.4399 -0.6454
19408TIP3    H179639   3.836   2.527  16.201  0.6783 -1.4508 -1.7156
19408TIP3    H279640   3.840   2.496  16.349  0.5994  1.0444 -1.1638
19409TIP3   OH279641   3.905   5.234  11.207 -0.4613  0.9629  0.0748
19409TIP3    H179642   3.915   5.220  11.113  0.0603  0.4092  0.2037
19409TIP3    H279643   3.969   5.302  11.228 -0.0725  0.5782  0.1463
19410TIP3   OH279644   1.441   6.768  16.125 -0.2633 -0.2135 -0.2290
19410TIP3    H179645   1.455   6.673  16.126  1.1355 -0.0070  1.1686
19410TIP3    H279646   1.528   6.805  16.111 -0.5590  0.8963  0.7886
19411TIP3   OH279647   5.148   6.448   0.552 -0.5088 -0.3105 -0.1139
19411TIP3    H179648   5.222   6.506   0.533 -0.4326  0.0081  1.1060
19411TIP3    H279649   5.107   6.486   0.630 -2.6784  0.1946 -1.4302
19412TIP3   OH279650   3.767   3.764  12.387 -0.3604 -0.3463  0.2890
19412TIP3    H179651   3.862   3.763  12.383 -0.3595 -1.1185  0.4750
19412TIP3    H279652   3.739   3.786  12.298  0.0080  1.0567  0.5109
19413TIP3   OH279653   1.984   2.400  13.758 -0.1404  0.6674 -0.5201
19413TIP3    H179654   1.953   2.491  13.764  0.1520  0.6687  1.0204
19413TIP3    H279655   2.055   2.395  13.821 -0.7288 -0.8767  0.0413
19414TIP3   OH279656   6.296   3.417   2.583 -0.3384  0.1383 -0.8027
19414TIP3    H179657   6.253   3.355   2.524  1.0246 -0.9844 -0.6335
19414TIP3    H279658   6.366   3.456   2.530 -0.7409  1.0288 -0.6925
19415TIP3   OH279659   4.688   5.219   0.462 -0.3382 -0.2986 -0.3058
19415TIP3    H179660   4.655   5.262   0.383  0.9853  1.9488  0.3133
19415TIP3    H279661   4.707   5.291   0.523  3.0623 -1.6281  0.3614
19416TIP3   OH279662   5.109   3.272   5.585 -0.4616  0.3145  0.3432
19416TIP3    H179663   5.107   3.269   5.681 -1.8641  0.1668  0.3165
19416TIP3    H279664   5.053   3.199   5.558 -0.1107  0.3938 -0.5964
19417TIP3   OH279665   2.415   4.881   4.718  0.2228  0.0894 -0.0525
19417TIP3    H179666   2.353   4.930   4.772  0.1189  1.0511 -1.0133
19417TIP3    H279667   2.442   4.808   4.773 -2.0135 -0.5415  0.2693
19418TIP3   OH279668   4.220   2.165   4.727 -0.5828 -0.1712  0.1155
19418TIP3    H179669   4.280   2.125   4.663 -0.2019  0.8355 -0.1561
19418TIP3    H279670   4.175   2.090   4.767 -0.1713 -0.8579 -0.6875
19419TIP3   OH279671   1.661   3.291  11.712  0.1794  0.5777  0.3681
19419TIP3    H179672   1.694   3.235  11.641  1.2822 -1.7413  2.6591
19419TIP3    H279673   1.574   3.255  11.731 -0.3940  1.6245 -0.2248
19420TIP3   OH279674   1.092   6.094  12.991 -0.1726 -0.3612  0.4584
19420TIP3    H179675   1.103   6.108  12.897  0.2563  2.2325  0.8628
19420TIP3    H279676   1.102   5.999  13.003  2.0660 -0.4403 -1.7974
19421TIP3   OH279677   2.956   5.927  11.575  0.1446 -0.2398 -0.1197
19421TIP3    H179678   2.878   5.930  11.520  1.2456 -1.7109 -1.7998
19421TIP3    H279679   2.974   6.019  11.595 -1.3986  0.1842 -0.5876
19422TIP3   OH279680   1.937   5.929   1.346  0.1840 -0.2690 -0.0170
19422TIP3    H179681   1.882   5.855   1.372 -0.3688  0.6545  1.4787
19422TIP3    H279682   1.990   5.949   1.424  0.8006  0.4983 -0.6203
19423TIP3   OH279683   2.065   1.909  13.945 -0.5368  0.4638 -0.1204
19423TIP3    H179684   2.016   1.862  13.878 -0.1870  0.4777 -0.3907
19423TIP3    H279685   2.131   1.959  13.895  0.2705 -0.1773  0.2902
19424TIP3   OH279686   1.855   2.075  15.190 -0.1802  0.4848  0.4845
19424TIP3    H179687   1.784   2.140  15.198 -0.6048  0.0560  0.2032
19424TIP3    H279688   1.820   2.008  15.131 -0.6510 -1.2292  2.6618
19425TIP3   OH279689   3.214   5.558   4.251  0.8207  0.1410 -0.1362
19425TIP3    H179690   3.307   5.538   4.261  0.6623 -1.0922 -0.9371
19425TIP3    H279691   3.172   5.472   4.237 -0.5863  0.5712  1.2905
19426TIP3   OH279692   5.059   0.681  16.704 -0.3769 -0.4549 -0.2268
19426TIP3    H179693   5.111   0.741  16.758  2.2073 -1.7964 -1.1620
19426TIP3    H279694   4.995   0.643  16.766 -0.3004  1.2267  0.9278
19427TIP3   OH279695   1.536   3.352   3.570  0.1456  0.5421 -0.1165
19427TIP3    H179696   1.443   3.372   3.563  0.2501  0.3453 -2.3139
19427TIP3    H279697   1.579   3.437   3.569 -0.0040  0.6455  1.1357
19428TIP3   OH279698   3.465   3.236   4.057 -0.2043 -0.0251 -0.1061
19428TIP3    H179699   3.412   3.209   4.132 -1.8710  0.8907 -0.9415
19428TIP3    H279700   3.511   3.156   4.031 -1.4171 -0.9023  0.4177
19429TIP3   OH279701   5.044   1.842  11.133 -0.8053  0.0914  0.1301
19429TIP3    H179702   5.074   1.788  11.206  1.2568 -2.2873 -2.3530
19429TIP3    H279703   4.952   1.819  11.121 -0.6337 -0.9476  0.7528
19430TIP3   OH279704   0.996   2.994  13.928 -0.6205 -0.4576  0.1861
19430TIP3    H179705   0.987   3.087  13.948  1.2536 -0.5332  1.5735
19430TIP3    H279706   0.945   2.950  13.996 -1.3709 -0.4623 -0.3726
19431TIP3   OH279707   6.503   2.573  14.182 -0.0918  0.4701  0.0203
19431TIP3    H179708   6.542   2.505  14.126 -1.4696 -0.9853  0.7953
19431TIP3    H279709   6.577   2.604  14.236  0.5601 -0.3876 -0.3644
19432TIP3   OH279710   5.648   3.806  13.547  0.0747 -0.3131 -0.1679
19432TIP3    H179711   5.732   3.763  13.561  0.1041 -0.5443 -1.0789
19432TIP3    H279712   5.625   3.841  13.634  1.5868  0.6278 -0.1374
19433TIP3   OH279713   5.033   5.322   1.991  0.1327  0.6494  0.2432
19433TIP3    H179714   5.085   5.313   1.912  0.3318  1.9300  0.2224
19433TIP3    H279715   4.944   5.336   1.960 -0.5631 -3.1641  0.2797
19434TIP3   OH279716   4.497   4.718   4.279  0.3403 -0.4796 -0.1410
19434TIP3    H179717   4.435   4.690   4.211  0.2414 -1.6979  0.4443
19434TIP3    H279718   4.487   4.654   4.349  3.9728 -2.1417 -1.0231
19435TIP3   OH279719   4.687   5.684   3.665 -0.6763  0.1278  0.2321
19435TIP3    H179720   4.743   5.758   3.639 -0.2010 -0.8244 -1.5077
19435TIP3    H279721   4.720   5.659   3.751  1.2938 -0.1037 -0.5553
19436TIP3   OH279722   6.636   3.582  13.545 -0.7737  0.3347  0.1980
19436TIP3    H179723   6.588   3.500  13.536 -1.9509  0.8811  1.5039
19436TIP3    H279724   6.632   3.603  13.638  0.7090  1.1751  0.0922
19437TIP3   OH279725   6.624   1.510  16.142 -0.1893 -0.1553 -0.5290
19437TIP3    H179726   6.655   1.549  16.224  0.7408  1.4035 -1.5962
19437TIP3    H279727   6.531   1.493  16.158  0.0269 -0.0561  0.9132
19438TIP3   OH279728   6.596   5.989   5.495  0.4765  0.1172 -0.0722
19438TIP3    H179729   6.660   5.989   5.424  0.2895  0.1855 -0.2414
19438TIP3    H279730   6.611   5.907   5.541  0.5070  0.0075 -0.2767
19439TIP3   OH279731   3.013   3.687   1.941 -0.1778  0.1054 -0.7432
19439TIP3    H179732   2.937   3.744   1.934 -1.4080 -1.5266 -1.0615
19439TIP3    H279733   2.990   3.625   2.010  0.9474 -0.2783 -0.7106
19440TIP3   OH279734   1.229   4.473   1.768 -0.1360 -0.0398 -0.4537
19440TIP3    H179735   1.207   4.401   1.827  0.3890  0.2701  0.1239
19440TIP3    H279736   1.320   4.494   1.789 -0.1834  0.5683 -0.8564
19441TIP3   OH279737   4.976   1.616  14.422 -0.1262 -0.5231 -0.4000
19441TIP3    H179738   4.899   1.655  14.382 -1.5315 -1.9449  0.8622
19441TIP3    H279739   5.031   1.690  14.447 -1.5632  0.5246 -0.3655
19442TIP3   OH279740   0.096   1.567   5.750  0.2225 -0.1315 -0.2279
19442TIP3    H179741   0.127   1.524   5.670  0.7033 -1.5420  0.6855
19442TIP3    H279742   0.153   1.533   5.819 -1.6314 -0.7398  1.0656
19443TIP3   OH279743   2.415   0.022  11.896  0.2789  0.6325 -0.4291
19443TIP3    H179744   2.434  -0.071  11.911 -0.1991  0.6232  0.1540
19443TIP3    H279745   2.332   0.021  11.848 -1.1435  0.8145  1.9310
19444TIP3   OH279746   2.789   4.237   4.380  0.3929 -0.1932  0.9299
19444TIP3    H179747   2.765   4.229   4.472  1.7580  2.2552  1.5245
19444TIP3    H279748   2.885   4.238   4.380  0.3906  0.9712 -0.3999
19445TIP3   OH279749   4.766   3.707  14.360 -0.3610 -0.0867 -0.7791
19445TIP3    H179750   4.763   3.769  14.287 -0.4653  0.8863  0.0419
19445TIP3    H279751   4.855   3.673  14.358 -0.1416  0.4822 -0.9158
19446TIP3   OH279752   6.240   1.437   5.522 -0.2682 -0.5616  0.1550
19446TIP3    H179753   6.230   1.344   5.539 -0.3000 -0.5712  0.0824
19446TIP3    H279754   6.155   1.466   5.490 -1.0191  0.0174  2.5859
19447TIP3   OH279755   2.541   6.134   4.494 -0.2339  0.6590  0.1346
19447TIP3    H179756   2.473   6.173   4.440 -0.2600  1.5259  0.7806
19447TIP3    H279757   2.515   6.042   4.502  0.7483  0.0732 -2.8234
19448TIP3   OH279758   6.318   4.114  14.501  0.0722  0.5377 -0.0367
19448TIP3    H179759   6.386   4.109  14.434 -0.4323 -0.1637 -0.5110
19448TIP3    H279760   6.281   4.026  14.504 -0.7557  0.8869  0.2659
19449TIP3   OH279761   5.026   5.682   5.514 -0.8112 -0.0746 -0.5247
19449TIP3    H179762   5.030   5.708   5.606  0.9543 -1.2575 -0.2493
19449TIP3    H279763   4.978   5.753   5.472  0.3751  1.6296  0.8981
19450TIP3   OH279764   2.299   2.936  12.485  0.5479 -0.3949  0.2169
19450TIP3    H179765   2.334   3.006  12.540 -0.8824  0.9196 -0.5112
19450TIP3    H279766   2.204   2.941  12.498  0.4413 -2.2885  0.2612
19451TIP3   OH279767   0.069   1.652  16.742 -0.1486  0.1914 -0.4292
19451TIP3    H179768   0.053   1.561  16.718  0.3062  0.1086 -0.4292
19451TIP3    H279769   0.126   1.647  16.819 -2.6478  0.4365  1.5174
19452TIP3   OH279770   1.393   3.878   6.094  0.3318  0.2445 -0.0254
19452TIP3    H179771   1.390   3.879   5.998  0.7521 -0.7276 -0.0554
19452TIP3    H279772   1.445   3.800   6.115 -1.6907 -0.8451  1.0504
19453TIP3   OH279773   3.746   4.271  12.451 -0.7804 -0.2358  0.2637
19453TIP3    H179774   3.750   4.351  12.400  1.1737 -0.4956 -0.0335
19453TIP3    H279775   3.809   4.285  12.522  1.0668 -2.2425 -0.9158
19454TIP3   OH279776   1.685   2.813  14.375  0.6295  0.0479  0.1628
19454TIP3    H179777   1.734   2.881  14.329  0.2104  0.1424 -0.1465
19454TIP3    H279778   1.732   2.800  14.457  0.7477  0.6567  0.1884
19455TIP3   OH279779   4.521   0.981  12.634 -0.3258  0.2571  0.7632
19455TIP3    H179780   4.565   1.055  12.677  3.6165 -1.7001  0.2912
19455TIP3    H279781   4.539   0.907  12.691 -0.7825 -1.1001 -0.8321
19456TIP3   OH279782   5.692   0.816   5.113  0.7647  0.0163 -0.0165
19456TIP3    H179783   5.611   0.807   5.063  0.1371  0.7130  0.8712
19456TIP3    H279784   5.750   0.865   5.055 -0.6267  2.5434  0.6579
19457TIP3   OH279785   4.754   2.545   2.484  0.1429  0.7128  0.2224
19457TIP3    H179786   4.747   2.507   2.571  0.5941 -0.2905 -0.1666
19457TIP3    H279787   4.678   2.511   2.437  1.0617 -0.4986 -0.4130
19458TIP3   OH279788   5.054   1.395   2.552  0.6085  0.2343 -0.5358
19458TIP3    H179789   4.972   1.440   2.533  1.8638  2.9945  0.3840
19458TIP3    H279790   5.046   1.368   2.643  0.5643  0.1790 -0.5565
19459TIP3   OH279791   6.103   1.532  13.853 -0.6698  0.4041 -0.2108
19459TIP3    H179792   6.068   1.523  13.764 -2.0071 -0.7730  0.4017
19459TIP3    H279793   6.070   1.455  13.899  1.4090  0.1242  0.8641
19460TIP3   OH279794   2.689   0.307  12.846  0.2996 -0.4037 -0.0983
19460TIP3    H179795   2.746   0.379  12.872 -0.8469  0.8843 -1.0812
19460TIP3    H279796   2.613   0.314  12.905  0.9056 -1.8255  0.8937
19461TIP3   OH279797   0.290   2.264  16.673  0.0547  0.3170  0.1579
19461TIP3    H179798   0.333   2.189  16.715 -1.9143 -0.0587  1.6205
19461TIP3    H279799   0.309   2.254  16.580  1.6175 -0.7959  0.5803
19462TIP3   OH279800   2.798   1.293  15.634  0.3011  0.1876  0.2198
19462TIP3    H179801   2.832   1.241  15.561 -1.0816  1.1969 -1.1915
19462TIP3    H279802   2.862   1.364  15.645  0.5940 -0.0559  0.1009
19463TIP3   OH279803   3.009   3.774  12.586  0.5279  0.1936 -0.1326
19463TIP3    H179804   2.921   3.736  12.595  0.7581 -0.6025 -1.1184
19463TIP3    H279805   2.995   3.856  12.540  0.2159  0.4521  0.4177
19464TIP3   OH279806   6.149   0.308   2.751 -0.1659 -0.2404  0.1491
19464TIP3    H179807   6.112   0.284   2.666 -0.6468 -1.6072  0.7171
19464TIP3    H279808   6.221   0.246   2.764 -1.7942 -1.8591  1.9036
19465TIP3   OH279809   0.333   2.605  16.276 -0.0765 -0.2533  0.0752
19465TIP3    H179810   0.415   2.625  16.322 -0.9236  0.9477  1.0709
19465TIP3    H279811   0.362   2.570  16.192  1.4782  0.0870  0.4443
19466TIP3   OH279812   4.206   1.911  12.604  1.0279  0.0908 -0.0865
19466TIP3    H179813   4.164   1.968  12.667  1.2925  0.0878  0.0943
19466TIP3    H279814   4.230   1.968  12.531  3.0612  0.5952  0.9411
19467TIP3   OH279815   1.402   2.745   1.221  0.3830  0.2121  0.1087
19467TIP3    H179816   1.439   2.658   1.202  0.0109 -0.1252  0.8944
19467TIP3    H279817   1.307   2.730   1.224  0.2375  0.9030 -1.0563
19468TIP3   OH279818   6.583   0.528  13.568  0.2075 -0.0395 -0.5577
19468TIP3    H179819   6.650   0.534  13.636  0.7860 -0.4512 -1.0812
19468TIP3    H279820   6.631   0.503  13.489 -0.7971 -2.0215 -0.5701
19469TIP3   OH279821   2.908   3.380  13.379 -0.4968 -0.1087 -0.2821
19469TIP3    H179822   2.832   3.382  13.436 -0.2802 -1.2930  0.0593
19469TIP3    H279823   2.950   3.296  13.397 -1.1518 -1.1223 -3.1351
19470TIP3   OH279824   4.147   1.027   5.692  0.5361  0.1282  0.5798
19470TIP3    H179825   4.059   1.061   5.708  0.0075 -1.2335  0.6209
19470TIP3    H279826   4.148   0.941   5.735  0.8942 -1.1878 -1.9850
19471TIP3   OH279827   1.483   2.025   1.073  1.3543 -0.3628  0.0349
19471TIP3    H179828   1.469   2.054   0.983  0.6624 -0.1624  0.2116
19471TIP3    H279829   1.562   2.071   1.101  2.1128 -1.1414 -0.7877
19472TIP3   OH279830   0.874   5.757   5.061  0.1414  0.0648  0.4944
19472TIP3    H179831   0.804   5.720   5.008  2.2879 -1.0668 -1.6595
19472TIP3    H279832   0.887   5.845   5.025  0.9403 -0.3437 -0.2273
19473TIP3   OH279833   2.502   5.429  13.003  0.7144 -0.4031  0.0344
19473TIP3    H179834   2.429   5.368  13.011  1.1538 -0.7658  1.5486
19473TIP3    H279835   2.467   5.502  12.952 -0.3212 -1.1503 -0.3372
19474TIP3   OH279836   1.794   5.455   5.840 -0.5491 -0.8600  0.1707
19474TIP3    H179837   1.792   5.359   5.837 -0.3967 -0.9029  1.2943
19474TIP3    H279838   1.756   5.478   5.924 -0.4474  0.0669 -0.0236
19475TIP3   OH279839   0.462   1.683  16.252 -0.2672 -0.2916 -0.3095
19475TIP3    H179840   0.452   1.741  16.327 -0.7104  0.4713 -0.9505
19475TIP3    H279841   0.471   1.742  16.177  0.7666 -1.0343 -0.7956
19476TIP3   OH279842   5.521   4.065   1.313  0.0170 -0.5367 -0.6552
19476TIP3    H179843   5.615   4.059   1.296 -0.0963 -2.4522 -0.6845
19476TIP3    H279844   5.480   4.015   1.242 -0.8574 -2.2077  0.9710
19477TIP3   OH279845   5.885   2.470   4.793 -0.3477 -0.6708 -0.3854
19477TIP3    H179846   5.953   2.489   4.728 -0.4404 -1.3951 -0.7042
19477TIP3    H279847   5.804   2.503   4.753 -0.4822 -1.5436 -0.8663
19478TIP3   OH279848   3.780   1.751  14.109  0.1292  0.1362  0.3234
19478TIP3    H179849   3.760   1.844  14.095 -0.1611  0.2215  1.3100
19478TIP3    H279850   3.700   1.705  14.085 -0.0046  0.2033  0.6382
19479TIP3   OH279851   3.926   1.345   3.837  0.3778 -0.6912  0.1515
19479TIP3    H179852   4.007   1.340   3.787  0.0206  0.5614 -0.5586
19479TIP3    H279853   3.920   1.436   3.866 -0.2752 -1.0026  1.0431
19480TIP3   OH279854   3.873   4.741  16.894  0.1408 -0.7006 -0.5666
19480TIP3    H179855   3.889   4.671  16.830 -1.2323 -3.3171  1.8349
19480TIP3    H279856   3.800   4.791  16.856  1.0406 -0.6200 -2.2426
19481TIP3   OH279857   0.446   3.387   1.474  0.2182 -0.3745 -0.1475
19481TIP3    H179858   0.427   3.331   1.399 -1.2654 -0.2987  0.1627
19481TIP3    H279859   0.512   3.339   1.525  0.1248 -1.0932 -0.7084
19482TIP3   OH279860   0.076   2.036   0.506  0.3648 -0.2065 -0.2586
19482TIP3    H179861   0.078   1.959   0.449  1.2778  0.2358 -0.8403
19482TIP3    H279862   0.140   2.095   0.468  1.2640 -0.0551  1.4302
19483TIP3   OH279863   6.055   0.755   2.839 -0.9151  0.0090  0.8885
19483TIP3    H179864   6.099   0.711   2.765 -2.2926  0.9397 -0.5128
19483TIP3    H279865   6.121   0.756   2.908  0.2352 -1.3526 -0.1502
19484TIP3   OH279866   4.057   2.341  10.982 -0.5572  1.2103  0.1406
19484TIP3    H179867   4.140   2.367  10.941 -0.4159 -1.4865 -1.3261
19484TIP3    H279868   3.990   2.377  10.925 -0.3579 -0.7814 -1.4051
19485TIP3   OH279869   5.435   1.349   1.835 -0.4889  0.4546 -0.3647
19485TIP3    H179870   5.474   1.375   1.752  1.0252 -1.2971 -0.2284
19485TIP3    H279871   5.474   1.409   1.899 -1.3577  1.5471 -0.8318
19486TIP3   OH279872   0.525   5.504   3.284  0.2796 -0.2142  0.0268
19486TIP3    H179873   0.503   5.492   3.377 -0.1906 -0.7037 -0.1488
19486TIP3    H279874   0.618   5.482   3.280 -0.2276 -2.4655 -0.0233
19487TIP3   OH279875   4.436   3.820   1.815  0.4655 -0.2097  1.1462
19487TIP3    H179876   4.526   3.798   1.839  1.0324  1.7662  0.8973
19487TIP3    H279877   4.425   3.782   1.727  1.5544  0.8039  0.5571
19488TIP3   OH279878   6.314   3.503  12.663  0.1866 -0.0852  0.2375
19488TIP3    H179879   6.405   3.482  12.640  0.6243 -0.4290  2.2291
19488TIP3    H279880   6.271   3.417  12.670  0.6406 -0.1247  2.9765
19489TIP3   OH279881   1.608   2.221  15.232 -0.3907  0.2060  0.3881
19489TIP3    H179882   1.609   2.274  15.153 -0.8405 -1.3075 -0.6607
19489TIP3    H279883   1.515   2.213  15.253 -0.4550 -1.6663 -0.5144
19490TIP3   OH279884   4.003   4.616   0.178  0.0624 -0.2029  0.3215
19490TIP3    H179885   4.048   4.598   0.261 -0.0829  0.5136  0.5597
19490TIP3    H279886   3.938   4.682   0.200  3.3066  3.7671 -1.2676
19491TIP3   OH279887   2.391   5.086   5.825 -0.2534 -0.2668 -0.3027
19491TIP3    H179888   2.405   5.180   5.830 -1.8409  0.0604 -1.5676
19491TIP3    H279889   2.474   5.048   5.853  1.2522  1.5161 -2.1416
19492TIP3   OH279890   6.727   4.273  13.594 -0.3118  0.6118 -0.6615
19492TIP3    H179891   6.804   4.323  13.621 -1.0399  0.6362  1.4650
19492TIP3    H279892   6.743   4.250  13.502  2.2001  0.6185 -0.2342
19493TIP3   OH279893   0.313   2.316   2.026  0.6995 -0.0541  0.3891
19493TIP3    H179894   0.299   2.233   2.071 -0.0340 -1.0426 -1.6219
19493TIP3    H279895   0.405   2.313   1.997  0.9804  0.3048  1.2169
19494TIP3   OH279896   1.174   1.759  15.810 -0.4837 -0.2756  0.2590
19494TIP3    H179897   1.117   1.833  15.831  0.0990 -0.0127  0.9279
19494TIP3    H279898   1.257   1.779  15.852  0.4716 -0.1352 -1.6271
19495TIP3   OH279899   4.908   1.864  14.127  0.6749 -0.2595 -0.4005
19495TIP3    H179900   4.897   1.772  14.148 -0.2318  0.0707  0.6280
19495TIP3    H279901   4.821   1.903  14.139  1.2835  0.9357  0.3312
19496TIP3   OH279902   0.541   4.807  11.662 -0.6608  0.7108  0.2930
19496TIP3    H179903   0.604   4.868  11.700 -0.0773  1.6011 -1.9662
19496TIP3    H279904   0.572   4.720  11.688 -0.0587  1.2605  1.4435
19497TIP3   OH279905   4.644   0.084   2.948 -0.1659  0.7105  0.5426
19497TIP3    H179906   4.638  -0.011   2.950  0.0219  0.6641 -0.6090
19497TIP3    H279907   4.720   0.102   2.892 -2.0294  1.5679 -1.7824
19498TIP3   OH279908   2.349   4.376   3.112  0.2550  0.5470 -0.2399
19498TIP3    H179909   2.264   4.337   3.131  0.3835  0.2134 -0.3400
19498TIP3    H279910   2.396   4.308   3.063  0.4402  0.8691 -0.5133
19499TIP3   OH279911   3.395   4.998   1.442  0.2639 -0.4583 -0.1018
19499TIP3    H179912   3.313   5.046   1.454  0.8958  0.3643  1.0590
19499TIP3    H279913   3.371   4.921   1.391 -0.8864  0.7277 -1.3703
19500TIP3   OH279914   6.002   4.776  11.048  0.2287  0.4865 -0.2913
19500TIP3    H179915   5.961   4.690  11.054 -0.2529  0.7842  0.6910
19500TIP3    H279916   5.930   4.836  11.029  0.4930  0.7506 -0.4751
19501TIP3   OH279917   6.552   4.983   3.556 -0.1077  0.4469 -0.1001
19501TIP3    H179918   6.609   5.056   3.577  0.3070 -0.0029  0.3420
19501TIP3    H279919   6.585   4.910   3.608  2.1813 -1.2492 -3.7439
19502TIP3   OH279920   3.863   0.718   5.010  0.6100  0.1914 -0.2792
19502TIP3    H179921   3.860   0.794   5.069 -1.6082  0.8647 -1.2074
19502TIP3    H279922   3.820   0.648   5.060  0.8200  0.1166 -0.2042
19503TIP3   OH279923   6.659   2.226   0.084 -0.1571  0.2002 -0.0993
19503TIP3    H179924   6.619   2.257   0.002 -1.4562 -1.1513 -0.0057
19503TIP3    H279925   6.710   2.300   0.115  1.1856  0.3961 -2.6577
19504TIP3   OH279926   3.732   3.088  17.037 -0.6338  0.4636  0.1112
19504TIP3    H179927   3.660   3.077  16.974 -1.4570  1.5978  0.8295
19504TIP3    H279928   3.777   3.167  17.008 -2.3143  2.2396  2.1409
19505TIP3   OH279929   3.365   0.623  15.446 -0.1515  0.3754 -0.8297
19505TIP3    H179930   3.292   0.594  15.391  0.2513 -2.9792  0.2898
19505TIP3    H279931   3.327   0.635  15.533  0.0690  1.5970 -0.8844
19506TIP3   OH279932   0.082   5.503   1.054  0.3888  0.1100 -0.3195
19506TIP3    H179933   0.141   5.428   1.055 -1.2240 -1.2036 -0.3818
19506TIP3    H279934   0.017   5.483   1.121 -0.2944  1.2477 -0.6371
19507TIP3   OH279935   4.900   0.133   0.402  0.0668  0.3692 -0.6063
19507TIP3    H179936   4.896   0.038   0.411 -0.0962  0.7109  3.5848
19507TIP3    H279937   4.990   0.151   0.374  1.0902 -0.8299  1.8554
19508TIP3   OH279938   2.396   0.119  13.002  0.1189  0.4156  0.6595
19508TIP3    H179939   2.469   0.177  12.982 -0.2564  0.1560 -1.6112
19508TIP3    H279940   2.318   0.168  12.977 -0.2588 -0.6884 -0.4032
19509TIP3   OH279941   1.780   6.178  12.895 -0.2779  0.6796 -0.3948
19509TIP3    H179942   1.802   6.101  12.948 -3.6220 -0.4148 -0.4375
19509TIP3    H279943   1.816   6.160  12.809 -0.3047 -0.4752 -0.1728
19510TIP3   OH279944   0.438   2.714   3.783 -0.5946  0.3660 -0.3530
19510TIP3    H179945   0.504   2.711   3.852  0.1118  0.6625 -1.0190
19510TIP3    H279946   0.445   2.629   3.739 -1.9481 -0.3477  0.7758
19511TIP3   OH279947   2.267   1.237   1.681 -0.8123 -0.0116 -0.0777
19511TIP3    H179948   2.346   1.191   1.709 -0.2057  0.4615 -0.9793
19511TIP3    H279949   2.195   1.190   1.724 -0.0014 -0.0602  1.2462
19512TIP3   OH279950   2.019   5.820   5.559 -0.0552  0.1708  0.0593
19512TIP3    H179951   1.938   5.769   5.562 -0.4146  0.7635  0.4717
19512TIP3    H279952   2.068   5.782   5.486 -0.7840 -0.0775 -0.3117
19513TIP3   OH279953   5.533   0.773  11.660 -0.5796 -0.0302 -0.1457
19513TIP3    H179954   5.615   0.733  11.690 -1.2272 -0.8940  0.5172
19513TIP3    H279955   5.543   0.780  11.565 -0.4901 -1.9182 -0.2973
19514TIP3   OH279956   4.383   6.034  14.191  0.8818 -0.4804  0.2286
19514TIP3    H179957   4.397   5.970  14.121 -0.4233 -1.3883  0.7690
19514TIP3    H279958   4.291   6.059  14.183  1.3985  1.4016 -0.0149
19515TIP3   OH279959   1.200   3.309   0.107  0.0638  0.0102  0.8185
19515TIP3    H179960   1.212   3.333   0.016 -0.9244  0.7625  0.8735
19515TIP3    H279961   1.108   3.281   0.113  0.3086 -0.6886  1.4352
19516TIP3   OH279962   5.158   4.815  15.248  0.3159  0.1485 -0.3452
19516TIP3    H179963   5.121   4.793  15.163  2.8889 -0.0370 -1.4798
19516TIP3    H279964   5.170   4.730  15.292  0.9748  0.0541 -0.6921
19517TIP3   OH279965   0.108   0.196  16.590  0.0019  0.1206  0.6476
19517TIP3    H179966   0.044   0.221  16.524  1.0408  0.3697 -0.2832
19517TIP3    H279967   0.116   0.101  16.581 -1.3580 -0.1242  1.8134
19518TIP3   OH279968   3.267   4.913  15.992  0.4863 -0.1131  0.4644
19518TIP3    H179969   3.314   4.836  15.959 -0.6649 -0.9495  0.7425
19518TIP3    H279970   3.178   4.881  16.009 -0.5267  1.7293 -1.2189
19519TIP3   OH279971   3.881   2.641   5.736  0.9454  0.2567 -0.3572
19519TIP3    H179972   3.969   2.644   5.775  0.3386 -0.9000  1.1205
19519TIP3    H279973   3.853   2.732   5.735  0.2848  0.1814  3.5589
19520TIP3   OH279974   3.492   2.385  12.841  0.4905  0.3952  0.6444
19520TIP3    H179975   3.445   2.401  12.923 -0.1573  2.0202 -0.0323
19520TIP3    H279976   3.507   2.472  12.804  1.4574 -0.2765 -0.6012
19521TIP3   OH279977   3.103   0.054  15.874 -0.0911  0.4222  0.0155
19521TIP3    H179978   3.054   0.134  15.854  1.6078  1.4864  0.0134
19521TIP3    H279979   3.048  -0.017  15.841 -0.4827  1.7446 -2.2766
19522TIP3   OH279980   0.071   6.160   2.446  0.3581 -0.1145 -0.0135
19522TIP3    H179981   0.125   6.163   2.367  1.5678 -0.9122  0.7748
19522TIP3    H279982  -0.008   6.209   2.422  0.2791 -1.1669 -2.0360
19523TIP3   OH279983   4.417   1.289  14.963 -0.2604 -0.0044 -0.5193
19523TIP3    H179984   4.508   1.300  14.992  0.2355 -1.2421 -1.5444
19523TIP3    H279985   4.378   1.230  15.027  0.1315 -0.7832 -0.9981
19524TIP3   OH279986   6.091   5.815   4.562  0.1077 -0.6248 -0.6317
19524TIP3    H179987   6.006   5.830   4.604  1.0207  1.5438  0.5261
19524TIP3    H279988   6.103   5.891   4.505  2.0553  0.0008  0.5637
19525TIP3   OH279989   5.689   2.335  16.755  0.4693  0.0829  0.1852
19525TIP3    H179990   5.743   2.404  16.716  0.3433  1.3925  2.2077
19525TIP3    H279991   5.604   2.343  16.713  0.9982 -0.0669 -0.9234
19526TIP3   OH279992   5.185   2.426   4.197 -0.3511  0.2189  0.2181
19526TIP3    H179993   5.155   2.343   4.236  0.2909  0.1406  0.5520
19526TIP3    H279994   5.222   2.400   4.112  0.0618  0.1313  0.4234
19527TIP3   OH279995   2.012   3.185   3.495  0.2908  0.0557 -0.4181
19527TIP3    H179996   2.003   3.225   3.582  0.9283 -0.4023 -0.1354
19527TIP3    H279997   1.974   3.249   3.435 -0.5463  0.1896  0.2428
19528TIP3   OH279998   6.436   3.988  15.430 -0.5257 -0.4806 -1.1613
19528TIP3    H179999   6.380   3.974  15.354  0.5087  0.6893 -2.1783
19528TIP3    H280000   6.435   4.083  15.444  0.7066 -0.5006 -0.8289
19529TIP3   OH280001   4.582   6.468   5.603 -0.1728 -0.3384  0.2795
19529TIP3    H180002   4.650   6.534   5.585 -0.3291 -0.7890 -2.0987
19529TIP3    H280003   4.507   6.496   5.552 -0.4228 -2.0770 -0.3374
19530TIP3   OH280004   2.673   1.866   3.255 -0.1931 -0.0776 -0.3214
19530TIP3    H180005   2.730   1.930   3.296 -0.4464  0.3552 -0.6475
19530TIP3    H280006   2.717   1.782   3.269 -1.0294 -0.1614  2.2747
19531TIP3   OH280007   1.119   5.302  14.669  0.3044 -0.3299  0.0521
19531TIP3    H180008   1.068   5.223  14.689  1.1247 -1.0083 -0.4773
19531TIP3    H280009   1.199   5.269  14.627  0.2821  0.8277 -0.9437
19532TIP3   OH280010   3.616   4.921   0.484 -0.1520  0.2866  0.1543
19532TIP3    H180011   3.567   4.840   0.470 -0.0289 -0.1183  1.9038
19532TIP3    H280012   3.616   4.932   0.579  2.4778  0.7060  0.1237
19533TIP3   OH280013   3.138   5.617   2.713 -0.0692  0.1961  0.2899
19533TIP3    H180014   3.160   5.641   2.623 -0.4469 -0.0401  0.1324
19533TIP3    H280015   3.047   5.588   2.708  0.5003 -1.6599  0.4038
19534TIP3   OH280016   3.513   3.014   0.869  0.4370 -0.3501 -0.0415
19534TIP3    H180017   3.425   2.987   0.841  0.2703 -0.5209  0.6528
19534TIP3    H280018   3.516   3.107   0.848  0.3697 -0.5050 -0.7785
19535TIP3   OH280019   1.236   0.430  14.221 -0.1426  0.5493 -0.9414
19535TIP3    H180020   1.213   0.494  14.289 -1.0055  0.5907 -1.2637
19535TIP3    H280021   1.181   0.354  14.240  0.6455  0.0197 -0.7534
19536TIP3   OH280022   0.395   0.015  15.203  0.2920  0.3392 -0.5937
19536TIP3    H180023   0.450   0.091  15.220  3.1112 -1.1236 -2.7292
19536TIP3    H280024   0.413  -0.045  15.276  2.3802 -0.5485 -1.7976
19537TIP3   OH280025   0.475   1.647  14.619  0.1154  0.7743 -0.3466
19537TIP3    H180026   0.394   1.680  14.658 -0.3116  0.6584 -1.1394
19537TIP3    H280027   0.545   1.695  14.664 -0.4163  1.3028 -0.0904
19538TIP3   OH280028   5.020   1.542   4.063 -0.1779  0.0844 -0.1693
19538TIP3    H180029   4.934   1.499   4.062 -0.9592  1.5611  0.5159
19538TIP3    H280030   5.013   1.611   3.996  1.2568 -1.2195 -1.6875
19539TIP3   OH280031   1.454   0.681   4.241 -0.2394 -0.2216  0.8925
19539TIP3    H180032   1.543   0.685   4.278 -0.6809 -1.7230  2.1634
19539TIP3    H280033   1.407   0.751   4.286  0.4573  1.0337 -0.2843
19540TIP3   OH280034   2.935   5.819   0.408  0.3184  0.2255 -0.1716
19540TIP3    H180035   2.920   5.726   0.421 -0.2698  0.1732 -1.2500
19540TIP3    H280036   2.892   5.861   0.482 -2.3404 -0.1369 -1.4789
19541TIP3   OH280037   6.193   2.287  13.754 -0.6609 -0.3357  0.1438
19541TIP3    H180038   6.127   2.311  13.690 -1.8535  1.4469  2.0085
19541TIP3    H280039   6.250   2.364  13.761  0.5614 -1.1911 -0.1172
19542TIP3   OH280040   0.137   4.525   0.159  0.0423 -0.0659 -0.1113
19542TIP3    H180041   0.051   4.510   0.197  1.1494 -1.9058  1.7263
19542TIP3    H280042   0.176   4.594   0.213  0.4476 -0.5685  0.2442
19543TIP3   OH280043   3.336   2.330   3.301 -0.3364  0.4683  0.0890
19543TIP3    H180044   3.262   2.385   3.275 -0.8345 -0.9637 -1.5633
19543TIP3    H280045   3.297   2.253   3.340  0.3233  0.3756  0.5802
19544TIP3   OH280046   3.105   3.414   3.837 -0.8332  0.5776 -0.0707
19544TIP3    H180047   3.097   3.343   3.773 -0.1711  1.0229 -0.6660
19544TIP3    H280048   3.200   3.429   3.842 -0.9307  0.9533  0.5667
19545TIP3   OH280049   5.179   6.025  11.141  0.2338 -0.2672  0.0326
19545TIP3    H180050   5.130   5.994  11.217 -3.0295  0.9673 -1.4727
19545TIP3    H280051   5.160   5.961  11.072  1.7901 -0.4608 -0.2230
19546TIP3   OH280052   2.827   4.122   1.463  0.0638 -0.4159 -0.1141
19546TIP3    H180053   2.887   4.048   1.478  0.6189  0.1337  0.3824
19546TIP3    H280054   2.855   4.189   1.525  0.7867  0.9446 -1.8386
19547TIP3   OH280055   1.111   5.856  16.151  0.0515 -0.2538  0.3689
19547TIP3    H180056   1.071   5.903  16.224 -0.3904 -0.0467 -0.0026
19547TIP3    H280057   1.202   5.886  16.150 -0.0287 -0.0019  0.6270
19548TIP3   OH280058   3.794   2.802   2.509  0.5074  0.4862  0.0504
19548TIP3    H180059   3.771   2.894   2.502  2.1919  0.8647 -0.8358
19548TIP3    H280060   3.719   2.761   2.553 -0.2546  2.2576  0.4244
19549TIP3   OH280061   3.503   2.129  14.348  0.0665 -0.4123 -0.5127
19549TIP3    H180062   3.500   2.185  14.271 -1.2674  1.2248  0.6971
19549TIP3    H280063   3.444   2.056  14.327 -1.3211  0.6979 -0.5440
19550TIP3   OH280064   2.909   2.511  17.140  0.0845 -0.2043 -0.5167
19550TIP3    H180065   2.966   2.526  17.064 -0.3625 -0.9715 -1.0167
19550TIP3    H280066   2.833   2.466  17.104 -0.5551  0.2602  0.2494
19551TIP3   OH280067   1.744   3.311   0.280 -0.1156 -0.2597 -0.2192
19551TIP3    H180068   1.709   3.236   0.231  0.8201 -0.7322 -0.1786
19551TIP3    H280069   1.686   3.319   0.356 -2.1531  1.0558 -1.8276
19552TIP3   OH280070   4.003   0.542  12.065 -0.5883  0.4105  0.5723
19552TIP3    H180071   3.929   0.550  12.006 -0.2507  0.5012  0.1597
19552TIP3    H280072   3.985   0.462  12.116 -0.7824  0.2248  0.2105
19553TIP3   OH280073   6.665   0.903  17.072  0.0432  0.2870  0.0967
19553TIP3    H180074   6.687   0.875  17.160 -2.5980  0.1003  0.7416
19553TIP3    H280075   6.666   0.822  17.020 -1.1164 -0.0313  0.5567
19554TIP3   OH280076   1.942   3.232   3.148  0.0021  0.2951 -0.0239
19554TIP3    H180077   1.956   3.215   3.055 -1.1716  2.9938 -0.7281
19554TIP3    H280078   2.019   3.283   3.174  0.4564 -0.6727  0.5828
19555TIP3   OH280079   6.192   1.975  11.085 -0.5157 -0.6186  0.4095
19555TIP3    H180080   6.177   1.885  11.114  1.8367 -1.0101  0.5042
19555TIP3    H280081   6.227   1.967  10.997 -0.5698  0.2234  0.3006
19556TIP3   OH280082   2.635   5.422   1.864 -0.7334 -0.0223 -0.2795
19556TIP3    H180083   2.587   5.340   1.879 -0.5159  0.0397  0.8099
19556TIP3    H280084   2.703   5.398   1.801 -0.9000 -0.5939 -0.2499
19557TIP3   OH280085   5.795   4.202  15.884 -0.2531 -0.1381 -0.1302
19557TIP3    H180086   5.723   4.178  15.942 -0.4679  2.5992  0.8229
19557TIP3    H280087   5.753   4.242  15.809  0.2565  3.4601  1.3930
19558TIP3   OH280088   3.926   0.890  15.962 -0.1175 -0.3537  1.0873
19558TIP3    H180089   3.879   0.890  15.879  1.6298  2.0309  0.0479
19558TIP3    H280090   3.929   0.798  15.988 -1.4163 -1.0287 -1.0480
19559TIP3   OH280091   6.489   6.082  12.502  0.1906  0.4412  0.2274
19559TIP3    H180092   6.499   6.077  12.407 -0.5883  2.9184 -0.0123
19559TIP3    H280093   6.507   5.993  12.533  0.2938 -0.4227 -2.2478
19560TIP3   OH280094   3.507   5.913   4.690  0.3551 -0.1308  0.2728
19560TIP3    H180095   3.593   5.898   4.649 -0.3446  1.1607 -1.6929
19560TIP3    H280096   3.449   5.851   4.646  0.1477 -0.6404  1.2470
19561TIP3   OH280097   1.064   2.801  12.028  0.5035 -0.0431 -0.5960
19561TIP3    H180098   1.120   2.724  12.030 -0.8445 -1.0272 -0.4560
19561TIP3    H280099   0.983   2.774  12.071 -0.4684  1.0555 -1.6906
19562TIP3   OH280100   3.146   5.895   3.810  0.3881  0.1356 -0.6047
19562TIP3    H180101   3.127   5.878   3.718 -1.4449 -0.1206 -0.1988
19562TIP3    H280102   3.192   5.816   3.839  1.5492  0.4903 -1.4532
19563TIP3   OH280103   6.575   0.766  11.203  0.4712  0.1690 -0.3442
19563TIP3    H180104   6.486   0.794  11.180 -0.1112 -1.8526 -0.6276
19563TIP3    H280105   6.623   0.767  11.120 -0.0667 -1.5043 -0.6855
19564TIP3   OH280106   6.282   3.403   6.434  0.2204 -0.1646  0.3303
19564TIP3    H180107   6.189   3.386   6.423  0.6859 -1.6588 -1.7069
19564TIP3    H280108   6.316   3.323   6.475  0.7443  0.0172  0.2602
19565TIP3   OH280109   2.558   3.519   3.464  0.0194 -0.5380 -0.0586
19565TIP3    H180110   2.561   3.600   3.516  1.6582 -0.0829 -0.8416
19565TIP3    H280111   2.492   3.466   3.507  0.0504  0.5843  1.4158
19566TIP3   OH280112   4.483   3.374  10.997  0.1440 -0.5257  0.3006
19566TIP3    H180113   4.414   3.437  11.021  0.1808 -0.2306 -0.3656
19566TIP3    H280114   4.505   3.396  10.907  0.2723 -1.4000  0.1210
19567TIP3   OH280115   1.610   2.163   6.017  0.2921  0.5150 -0.2636
19567TIP3    H180116   1.678   2.175   6.083 -1.0895  0.9672  1.1289
19567TIP3    H280117   1.621   2.073   5.986 -0.0062 -0.2369  1.7319
19568TIP3   OH280118   5.439   6.475   4.461  0.2656 -0.7292  0.6644
19568TIP3    H180119   5.486   6.429   4.531  1.4367  0.0750  0.4207
19568TIP3    H280120   5.508   6.514   4.407 -0.6739  0.2999  0.1786
19569TIP3   OH280121   6.132   1.899  15.683 -0.2506  0.6413 -0.3637
19569TIP3    H180122   6.098   1.875  15.769 -0.0774  2.0784  0.1254
19569TIP3    H280123   6.069   1.964  15.650 -0.3326  0.0800 -1.3292
19570TIP3   OH280124   0.883   1.039  14.944 -1.1529  0.2979 -0.6313
19570TIP3    H180125   0.957   1.026  15.004 -2.5087  0.4870  1.1427
19570TIP3    H280126   0.834   0.957  14.949 -2.3306  1.0166  0.0688
19571TIP3   OH280127   4.482   3.983  14.217 -0.3115  0.4520 -0.2784
19571TIP3    H180128   4.567   3.949  14.188 -2.1784 -1.9823 -3.1524
19571TIP3    H280129   4.455   3.922  14.286 -0.1333  0.6912  0.0029
19572TIP3   OH280130   2.571   6.514  12.752 -0.1512  0.3221 -0.1624
19572TIP3    H180131   2.563   6.429  12.708 -0.1723 -0.3850  1.1477
19572TIP3    H280132   2.659   6.544  12.732 -0.2226  0.0895 -0.8214
19573TIP3   OH280133   2.777   2.183  13.798 -0.3107 -0.3739 -0.2891
19573TIP3    H180134   2.855   2.235  13.812  0.5064 -1.7663  0.4234
19573TIP3    H280135   2.795   2.099  13.841 -1.2317 -1.5681 -2.1506
19574TIP3   OH280136   4.435   4.809  12.619  0.4774 -0.8787  0.2694
19574TIP3    H180137   4.453   4.833  12.528 -1.3272  0.5004  0.2397
19574TIP3    H280138   4.461   4.886  12.669  0.7140 -1.3261  0.8344
19575TIP3   OH280139   4.967   1.827  17.125  0.5728  0.2872  0.3194
19575TIP3    H180140   4.957   1.778  17.207  0.3212 -2.5196 -1.3251
19575TIP3    H280141   5.008   1.764  17.065 -0.7550  1.7639 -2.1861
19576TIP3   OH280142   2.957   0.716   3.424 -0.2736  0.3068 -0.1408
19576TIP3    H180143   2.957   0.688   3.515 -0.2965  1.4276  0.2082
19576TIP3    H280144   2.999   0.644   3.377  1.1040  0.3839  0.9467
19577TIP3   OH280145   3.789   2.814   6.087  0.3023 -0.3211 -0.5354
19577TIP3    H180146   3.850   2.767   6.030  0.6726  0.4904 -0.8261
19577TIP3    H280147   3.709   2.821   6.035  0.8258  0.9280 -1.2162
19578TIP3   OH280148   2.544   0.071   1.033  0.0203 -0.6966 -0.2823
19578TIP3    H180149   2.452   0.087   1.053 -0.3336 -2.0606 -0.6960
19578TIP3    H280150   2.571   0.146   0.980 -0.8894 -0.3373 -0.2482
19579TIP3   OH280151   3.230   3.226  16.169 -0.1325  0.0995  0.7737
19579TIP3    H180152   3.240   3.247  16.076 -2.3325 -0.2390  0.4336
19579TIP3    H280153   3.315   3.246  16.207  0.6695  0.6658 -1.2336
19580TIP3   OH280154   2.771   6.260  14.472  0.1869 -0.1718 -0.2326
19580TIP3    H180155   2.851   6.293  14.433  0.0146  0.0460 -0.4022
19580TIP3    H280156   2.738   6.332  14.526  1.3266 -1.0413  1.6896
19581TIP3   OH280157   4.260   4.444  11.829  0.7129  0.4573  0.2865
19581TIP3    H180158   4.329   4.378  11.829  0.4655  0.2014  0.5827
19581TIP3    H280159   4.178   4.394  11.832  0.5036  0.7511 -0.4492
19582TIP3   OH280160   3.814   3.338  17.020  0.3069  0.4019  0.1549
19582TIP3    H180161   3.766   3.393  17.083  2.0282  0.1826  1.7008
19582TIP3    H280162   3.904   3.340  17.051  0.5511 -2.5894 -0.2723
19583TIP3   OH280163   6.360   3.944  15.058 -0.0647 -0.1936 -0.4250
19583TIP3    H180164   6.311   3.864  15.075  1.9975 -1.9165 -2.2507
19583TIP3    H280165   6.354   3.956  14.963  1.2875  0.7062 -0.4116
19584TIP3   OH280166   4.554   1.865   3.185  0.1823 -0.1236  0.1536
19584TIP3    H180167   4.473   1.870   3.236 -0.3400 -0.6093 -0.6170
19584TIP3    H280168   4.617   1.916   3.235 -0.9033  1.2162  0.1992
19585TIP3   OH280169   2.649   6.724   4.942  0.4576 -0.5236  0.3238
19585TIP3    H180170   2.600   6.805   4.927  0.4409 -0.5774  0.0747
19585TIP3    H280171   2.732   6.739   4.896  0.7301 -0.3760  0.8675
19586TIP3   OH280172   3.202   1.858  11.110 -0.0095  0.3994 -0.2852
19586TIP3    H180173   3.243   1.779  11.075 -0.0843 -0.1530  0.8656
19586TIP3    H280174   3.269   1.897  11.165 -0.1266  0.9095 -0.5036
19587TIP3   OH280175   3.036   1.864   0.314 -0.5198  0.1952  0.1011
19587TIP3    H180176   2.966   1.913   0.356 -1.1658 -0.4351 -0.2374
19587TIP3    H280177   3.113   1.920   0.324 -1.1774  1.1260  0.0047
19588TIP3   OH280178   3.967   3.462  14.221 -0.3094 -0.0610 -0.1644
19588TIP3    H180179   3.992   3.541  14.269  0.0436 -0.1320 -0.2306
19588TIP3    H280180   3.876   3.477  14.195 -0.3262  0.2094  0.0545
19589TIP3   OH280181   4.154   0.254   4.545 -0.1210 -0.0027 -0.0682
19589TIP3    H180182   4.211   0.311   4.493  1.2256  0.2420  1.6405
19589TIP3    H280183   4.074   0.305   4.557 -0.5853 -0.1839 -2.1342
19590TIP3   OH280184   1.372   2.664  10.967 -0.1410  0.0804 -0.5446
19590TIP3    H180185   1.418   2.688  10.886 -0.2315  0.0436 -0.6065
19590TIP3    H280186   1.283   2.645  10.939  0.5464 -2.7735 -0.8617
19591TIP3   OH280187   6.445   5.035   0.527  0.2881  0.0162 -0.1184
19591TIP3    H180188   6.436   4.958   0.582 -0.9689 -0.6876 -1.2793
19591TIP3    H280189   6.426   5.109   0.585 -0.6576 -0.7001  0.4886
19592TIP3   OH280190   1.111   1.721   4.430 -1.3952 -0.3360  0.0116
19592TIP3    H180191   1.160   1.798   4.459 -1.8168 -0.7007  1.7495
19592TIP3    H280192   1.155   1.693   4.350  0.0558  0.4498  0.5192
19593TIP3   OH280193   5.887   2.663   6.159  0.2349  0.3306  0.3587
19593TIP3    H180194   5.864   2.744   6.205  2.0272  0.9869  0.1006
19593TIP3    H280195   5.975   2.642   6.189  0.0522 -1.1692 -0.1005
19594TIP3   OH280196   2.665   4.260  15.191  0.1381 -0.1344 -0.0018
19594TIP3    H180197   2.701   4.172  15.178 -1.2890 -0.5241 -1.4843
19594TIP3    H280198   2.731   4.318  15.153  1.0058 -0.5571  0.8232
19595TIP3   OH280199   0.324   5.261   4.440 -0.5088 -0.3692  0.1435
19595TIP3    H180200   0.275   5.189   4.480 -0.0739  0.0514  1.4701
19595TIP3    H280201   0.398   5.218   4.397 -0.2963 -0.7433  0.8659
19596TIP3   OH280202   3.954   2.539   4.030 -0.1715 -0.3074  0.6907
19596TIP3    H180203   3.892   2.612   4.022 -1.5505 -1.6049 -0.6657
19596TIP3    H280204   3.971   2.533   4.124 -1.1365  0.8579  0.9589
19597TIP3   OH280205   3.408   2.091   3.766  0.3230  0.2364 -0.2144
19597TIP3    H180206   3.462   2.080   3.845 -1.1600 -0.4902  0.7277
19597TIP3    H280207   3.402   2.185   3.753  0.4483  0.3631  0.6391
19598TIP3   OH280208   1.851   5.333  15.604 -0.2127  0.5442 -0.2682
19598TIP3    H180209   1.780   5.286  15.561  0.9532 -0.6950 -0.8869
19598TIP3    H280210   1.826   5.425  15.599 -1.5425  0.1619 -0.8753
19599TIP3   OH280211   4.735   2.410  15.219 -0.1164 -0.5433  0.1540
19599TIP3    H180212   4.760   2.371  15.135  0.3119 -1.4784  0.6993
19599TIP3    H280213   4.653   2.455  15.201 -0.1405 -0.9181 -0.7187
19600TIP3   OH280214   0.547   5.932  11.208 -0.3074  0.2492  0.1947
19600TIP3    H180215   0.524   5.990  11.136 -0.4728  0.3845  0.3567
19600TIP3    H280216   0.609   5.983  11.261  0.2902 -0.0776 -0.1907
19601TIP3   OH280217   0.545   1.813   3.037 -0.1828  0.1204 -0.6037
19601TIP3    H180218   0.599   1.892   3.046  0.0220  0.1942 -2.2917
19601TIP3    H280219   0.476   1.823   3.102  0.2903  1.3288 -0.2781
19602TIP3   OH280220   5.334   1.592   1.093  0.0735 -0.2771 -0.4010
19602TIP3    H180221   5.399   1.656   1.062  0.1822 -0.1701  0.0478
19602TIP3    H280222   5.386   1.519   1.127 -0.0390 -0.1095  0.1314
19603TIP3   OH280223   2.479   1.517  12.616  0.0734 -0.3078 -0.2190
19603TIP3    H180224   2.392   1.508  12.577 -0.4914  1.8049  0.4710
19603TIP3    H280225   2.483   1.608  12.644  1.2978 -1.1871  2.6620
19604TIP3   OH280226   3.666   4.735  15.341 -0.0427 -0.2229  0.0552
19604TIP3    H180227   3.615   4.655  15.326 -0.0201 -0.2646  0.2033
19604TIP3    H280228   3.690   4.764  15.253 -1.0028  0.2454 -0.0533
19605TIP3   OH280229   2.043   2.527  15.974 -0.5272  0.5087 -0.4370
19605TIP3    H180230   2.043   2.503  16.066  0.0850 -1.4143 -0.9268
19605TIP3    H280231   2.056   2.622  15.974  1.6821  0.2472  1.3738
19606TIP3   OH280232   6.043   3.497  11.342  0.0860  0.1661  0.6207
19606TIP3    H180233   5.972   3.477  11.281 -0.0549 -0.9780  1.1698
19606TIP3    H280234   6.039   3.593  11.351 -2.3620 -0.0010  1.8289
19607TIP3   OH280235   1.327   5.679  14.810 -0.2078  0.3000  0.4202
19607TIP3    H180236   1.384   5.752  14.789  0.9196 -0.6540  0.1359
19607TIP3    H280237   1.241   5.719  14.824  0.4409  1.6927  0.4780
19608TIP3   OH280238   6.653   5.437  11.483 -0.1670 -0.0694 -0.3667
19608TIP3    H180239   6.632   5.359  11.534 -1.7770  1.2398  1.0628
19608TIP3    H280240   6.733   5.471  11.524  1.8195 -2.1388 -2.4078
19609TIP3   OH280241   6.690   2.152   1.337  0.9220  0.0291 -0.1992
19609TIP3    H180242   6.684   2.074   1.282 -3.0910 -0.4990  0.8198
19609TIP3    H280243   6.685   2.225   1.276 -0.9587 -0.5455 -0.7640
19610TIP3   OH280244   3.188   1.368  13.805 -0.3273  0.0892 -0.3931
19610TIP3    H180245   3.262   1.415  13.767 -0.5877  1.0265  0.2610
19610TIP3    H280246   3.128   1.436  13.834 -1.1133 -0.6567 -0.2411
19611TIP3   OH280247   5.852   6.092   2.585  0.1250 -0.3737 -0.0815
19611TIP3    H180248   5.820   6.130   2.667 -0.9251 -1.9149  0.2472
19611TIP3    H280249   5.821   6.152   2.517 -1.9716 -0.8689  0.3806
19612TIP3   OH280250   4.630   3.675   6.451  0.1009  0.6969 -0.6294
19612TIP3    H180251   4.556   3.639   6.501  0.1541  0.2931 -0.8442
19612TIP3    H280252   4.630   3.769   6.474  0.0865  0.5300  0.0845
19613TIP3   OH280253   2.127   5.223   0.552  0.3445 -0.5484 -0.4841
19613TIP3    H180254   2.190   5.209   0.623 -0.7699  2.0149  1.0522
19613TIP3    H280255   2.082   5.139   0.544 -1.1075 -0.2172  3.4444
19614TIP3   OH280256   6.273   3.990  16.077 -0.1478  0.2358 -1.0432
19614TIP3    H180257   6.302   3.989  16.169 -1.2027  0.3984 -0.6982
19614TIP3    H280258   6.334   4.049  16.033 -1.0248  1.9825  0.0308
19615TIP3   OH280259   3.175   4.603  16.169  0.5189  0.7437  0.1490
19615TIP3    H180260   3.140   4.517  16.146 -0.9827  0.7024  2.3562
19615TIP3    H280261   3.138   4.662  16.104 -0.7022  0.1221  0.2558
19616TIP3   OH280262   6.082   5.042   3.922  0.3543  0.0483  0.7282
19616TIP3    H180263   6.059   5.024   4.013 -0.4780 -1.9290  0.1468
19616TIP3    H280264   5.998   5.058   3.879  0.3412 -3.1931 -0.5565
19617TIP3   OH280265   3.601   1.313  13.267 -0.0249 -0.3337 -0.1300
19617TIP3    H180266   3.596   1.223  13.300  1.0595 -0.4793 -0.3503
19617TIP3    H280267   3.692   1.338  13.278 -0.1886  0.5261 -0.6432
19618TIP3   OH280268   3.910   3.267  12.924  0.0780 -0.0133 -0.3527
19618TIP3    H180269   3.931   3.247  13.015  1.5708 -0.2578 -0.7402
19618TIP3    H280270   3.816   3.285  12.924  0.0710 -0.0371  1.2247
19619TIP3   OH280271   0.756   1.658  13.344  0.2132  0.4426  0.3412
19619TIP3    H180272   0.807   1.717  13.289 -1.1903  0.8350 -0.5695
19619TIP3    H280273   0.751   1.704  13.429  1.1394  0.5105  0.3667
19620TIP3   OH280274   2.787   2.792  16.206 -0.2099  0.0716 -0.1685
19620TIP3    H180275   2.877   2.788  16.173 -0.3900  0.4392 -0.6969
19620TIP3    H280276   2.770   2.703  16.238  0.7683  0.3004  1.0669
19621TIP3   OH280277   0.425   1.327   4.677  0.0851 -0.1002 -0.1563
19621TIP3    H180278   0.341   1.368   4.698  1.5037  1.4826  2.6955
19621TIP3    H280279   0.489   1.396   4.689  1.8360 -1.3072 -2.2608
19622TIP3   OH280280   1.777   6.631   4.368 -0.1924  0.9190  0.5015
19622TIP3    H180281   1.832   6.580   4.428 -0.1431  0.4825  0.0852
19622TIP3    H280282   1.799   6.722   4.387  0.2687  0.7616  0.7195
19623TIP3   OH280283   3.624   0.286  17.125  0.7980 -0.2452  0.1516
19623TIP3    H180284   3.592   0.267  17.037  2.2263 -1.6092 -0.0925
19623TIP3    H280285   3.660   0.375  17.119  1.5049 -0.5948 -0.8188
19624TIP3   OH280286   6.311   2.551   3.635 -0.1835  0.0553 -0.2449
19624TIP3    H180287   6.349   2.636   3.655  0.2386 -0.0319 -0.6758
19624TIP3    H280288   6.222   2.555   3.671 -0.1271  0.6397 -0.1748
19625TIP3   OH280289   4.382   2.186   1.072 -0.3486 -0.3348 -0.2124
19625TIP3    H180290   4.321   2.119   1.041 -1.7965  0.4321  0.9202
19625TIP3    H280291   4.344   2.268   1.043  0.5032  0.1227 -0.0641
19626TIP3   OH280292   5.470   1.152  14.644  0.3037 -0.3270  0.4258
19626TIP3    H180293   5.427   1.220  14.592  1.0284  2.0954  2.8580
19626TIP3    H280294   5.562   1.155  14.616  1.0108  2.0397  2.8046
19627TIP3   OH280295   0.772   4.101   2.879 -0.8790  0.5785  0.4031
19627TIP3    H180296   0.677   4.105   2.885 -0.9235 -0.5114  0.6745
19627TIP3    H280297   0.797   4.036   2.945  0.0019  0.4396 -0.0587
19628TIP3   OH280298   5.259   5.368   4.857  0.6082 -0.4870  0.3958
19628TIP3    H180299   5.214   5.397   4.777 -1.9778 -1.3201  1.4897
19628TIP3    H280300   5.294   5.448   4.895  2.0380 -0.1026 -1.6460
19629TIP3   OH280301   3.776   3.532   4.726 -0.2432 -0.1172 -0.0433
19629TIP3    H180302   3.798   3.615   4.768 -2.6344  0.4669  0.1446
19629TIP3    H280303   3.797   3.546   4.634 -1.2760  0.9659 -0.1299
19630TIP3   OH280304   2.099   3.978   4.754 -0.3518  0.5769  0.4157
19630TIP3    H180305   2.050   4.060   4.755  0.5543  1.1357 -0.1109
19630TIP3    H280306   2.187   4.003   4.726  0.0305 -0.5234  0.6074
19631TIP3   OH280307   4.171   4.077   5.267  0.6506  0.4675 -0.3428
19631TIP3    H180308   4.248   4.107   5.316  0.0959  1.3343  0.0008
19631TIP3    H280309   4.166   3.983   5.286  0.1396  0.8864  1.6888
19632TIP3   OH280310   1.704   2.327  12.114  0.3765 -0.1116 -0.1797
19632TIP3    H180311   1.790   2.369  12.108  0.2260  0.1683 -0.3880
19632TIP3    H280312   1.642   2.396  12.093  0.1536 -0.5732 -1.0393
19633TIP3   OH280313   5.312   6.328  16.157  0.1604  0.5133  0.6065
19633TIP3    H180314   5.235   6.366  16.116  1.1273  0.3667 -1.4280
19633TIP3    H280315   5.356   6.402  16.200  0.0093  0.9988 -0.0674
19634TIP3   OH280316   2.125   0.033   3.061  0.2000 -0.2651  0.8419
19634TIP3    H180317   2.196   0.077   3.105 -0.4049 -1.1548  2.7711
19634TIP3    H280318   2.060   0.017   3.130 -1.8498  0.4984 -0.8510
19635TIP3   OH280319   1.860   0.759  10.740 -0.3155 -0.0410 -0.4086
19635TIP3    H180320   1.888   0.669  10.753 -0.8409 -0.1488 -0.0276
19635TIP3    H280321   1.765   0.758  10.754 -0.3259  0.5674 -0.3952
19636TIP3   OH280322   6.082   4.614  16.700 -0.4956  0.1986 -0.5466
19636TIP3    H180323   6.154   4.621  16.764  0.1530 -2.9798 -0.8388
19636TIP3    H280324   6.117   4.653  16.620  0.5867 -0.4497 -0.4033
19637TIP3   OH280325   3.925   4.507   4.601 -0.1259  0.3472 -0.0328
19637TIP3    H180326   3.902   4.488   4.510  1.3811  1.0074 -0.5747
19637TIP3    H280327   3.842   4.501   4.649 -0.6218 -1.9974 -1.0928
19638TIP3   OH280328   0.515   4.332  14.616 -0.2642  0.0360 -0.4776
19638TIP3    H180329   0.601   4.367  14.592 -0.3920 -0.5936 -1.9156
19638TIP3    H280330   0.495   4.269  14.547 -2.1088  0.5515 -0.4352
19639TIP3   OH280331   3.659   5.718  11.245 -0.8310 -0.4072  0.5595
19639TIP3    H180332   3.696   5.677  11.323  0.3944 -0.1325  0.1323
19639TIP3    H280333   3.702   5.803  11.239 -1.0945 -0.3228 -0.2791
19640TIP3   OH280334   1.004   3.483   5.187  0.3244  0.9399 -0.2702
19640TIP3    H180335   0.987   3.577   5.179  0.7364  1.1101  0.7501
19640TIP3    H280336   0.942   3.453   5.254 -1.4148  0.0181 -2.2074
19641TIP3   OH280337   3.705   5.099  13.974  0.1317 -0.4147  0.1763
19641TIP3    H180338   3.795   5.113  13.945  0.0784  0.8379  0.5909
19641TIP3    H280339   3.665   5.186  13.971 -0.9714 -0.9080  0.3134
19642TIP3   OH280340   4.167   0.557   2.506  0.1062  0.2348 -0.1586
19642TIP3    H180341   4.117   0.549   2.425  2.5247  1.9795 -1.8977
19642TIP3    H280342   4.109   0.604   2.566  0.0290  3.2359 -2.5005
19643TIP3   OH280343   6.463   5.648   0.964 -0.0403  0.3032 -0.5255
19643TIP3    H180344   6.454   5.614   1.053  0.5568  0.2639 -0.4785
19643TIP3    H280345   6.423   5.735   0.967 -1.3221 -0.2700 -0.5789
19644TIP3   OH280346   2.582   6.327   4.790  0.0979  0.2293  0.2974
19644TIP3    H180347   2.656   6.309   4.732  0.5565  1.8120  0.3691
19644TIP3    H280348   2.511   6.352   4.730  0.9674  3.2004  0.4693
19645TIP3   OH280349   3.104   0.719   0.278 -0.3119  0.0616 -0.0672
19645TIP3    H180350   3.157   0.798   0.279 -0.3268  0.0682  2.0406
19645TIP3    H280351   3.014   0.750   0.285 -0.4207 -0.0758 -0.8182
19646TIP3   OH280352   3.028   2.877  15.332 -0.2461 -0.2478  0.6576
19646TIP3    H180353   3.063   2.962  15.361 -2.0619  0.8501 -0.2686
19646TIP3    H280354   2.993   2.838  15.412 -1.6164  0.9878  0.6948
19647TIP3   OH280355   3.548   0.148   2.288 -0.5215  0.0521 -0.1847
19647TIP3    H180356   3.509   0.227   2.252 -0.8808 -0.5239 -1.0958
19647TIP3    H280357   3.547   0.160   2.383 -2.8874  0.0708 -0.1938
19648TIP3   OH280358   4.420   3.369  15.538  0.0674  0.3862 -0.3588
19648TIP3    H180359   4.384   3.291  15.495 -0.9275  0.7114 -0.1366
19648TIP3    H280360   4.343   3.414  15.573  0.6193  1.6109 -0.7204
19649TIP3   OH280361   5.678   1.634   5.438 -0.4050  0.2706 -0.4746
19649TIP3    H180362   5.652   1.704   5.498 -2.2535 -0.1652 -0.7324
19649TIP3    H280363   5.716   1.567   5.494 -1.4042  0.2022  0.1357
19650TIP3   OH280364   4.145   1.283   5.370 -0.0601 -0.0121 -0.0512
19650TIP3    H180365   4.148   1.261   5.277 -1.9529  0.9315 -0.3603
19650TIP3    H280366   4.083   1.355   5.375 -1.7311 -1.5676  2.2518
19651TIP3   OH280367   0.884   3.596  12.196  0.2865  0.3898  0.0322
19651TIP3    H180368   0.886   3.532  12.126 -0.2369 -0.1180  0.4789
19651TIP3    H280369   0.799   3.584  12.238  0.3661  1.0679  0.4040
19652TIP3   OH280370   6.029   4.859   1.024 -0.3606 -0.4131  0.4477
19652TIP3    H180371   6.106   4.852   1.079  0.3160  0.1787 -0.4149
19652TIP3    H280372   6.042   4.794   0.956 -0.7402 -0.4829  0.4416
19653TIP3   OH280373   5.181   1.528   4.697 -0.8904 -0.1467 -0.2477
19653TIP3    H180374   5.232   1.558   4.772 -1.8913 -0.5646  0.6019
19653TIP3    H280375   5.150   1.608   4.655 -0.4626  0.0827 -0.1334
19654TIP3   OH280376   1.252   4.474   2.511  0.2523 -0.4270 -1.3756
19654TIP3    H180377   1.181   4.479   2.574 -0.2636 -0.9761 -1.9099
19654TIP3    H280378   1.310   4.406   2.546  0.3795 -0.1701 -1.0823
19655TIP3   OH280379   5.880   6.278   0.304 -0.4278 -0.1771 -0.2444
19655TIP3    H180380   5.806   6.324   0.343 -1.1938 -1.8444  0.3001
19655TIP3    H280381   5.881   6.193   0.348  0.0042 -1.2809 -2.3320
19656TIP3   OH280382   1.022   2.001   4.046  0.3945 -0.1557 -0.0327
19656TIP3    H180383   1.107   2.040   4.025 -0.1379 -0.1671 -2.2803
19656TIP3    H280384   1.043   1.909   4.063  1.2146  0.4188  2.2787
19657TIP3   OH280385   0.985   6.430   2.306 -0.4016 -0.3757 -0.3340
19657TIP3    H180386   0.941   6.457   2.387  2.6554  0.1804  1.1874
19657TIP3    H280387   0.952   6.342   2.289 -2.4931  0.2098  0.4285
19658TIP3   OH280388   3.129   5.393   1.598 -0.5222  0.9298  0.2603
19658TIP3    H180389   3.137   5.312   1.547 -1.7950  0.9585 -0.0091
19658TIP3    H280390   3.152   5.463   1.537 -0.4016  0.8465  0.2099
19659TIP3   OH280391   6.031   0.923  13.638  0.0764 -0.1780 -0.1936
19659TIP3    H180392   5.939   0.904  13.654 -0.4115  3.2811  1.5578
19659TIP3    H280393   6.042   0.909  13.544 -2.5939  0.6535 -0.6807
19660TIP3   OH280394   3.811   3.294   2.411 -0.3509  0.8672 -0.1029
19660TIP3    H180395   3.825   3.386   2.431  2.8126  0.6049 -0.9134
19660TIP3    H280396   3.794   3.292   2.317 -3.3185  0.8703  0.3827
19661TIP3   OH280397   1.921   0.814   2.017  0.1643 -0.2913  0.3186
19661TIP3    H180398   1.920   0.788   2.110  0.8491 -0.5856  0.2502
19661TIP3    H280399   1.831   0.838   1.998 -0.2447 -1.4724  0.7237
19662TIP3   OH280400   3.938   4.462  16.184  0.1476 -0.2330  0.1084
19662TIP3    H180401   3.955   4.487  16.093  3.0315 -3.5158 -0.3806
19662TIP3    H280402   3.845   4.443  16.187 -0.2435  1.2400 -1.7924
19663TIP3   OH280403   6.136   1.226   1.363 -0.0045 -0.2382  0.4131
19663TIP3    H180404   6.046   1.193   1.363  0.4790 -1.6996 -1.8765
19663TIP3    H280405   6.154   1.246   1.271  1.8751  0.4025  0.8975
19664TIP3   OH280406   4.911   5.600   1.394 -0.4448 -0.9962 -0.3885
19664TIP3    H180407   4.911   5.555   1.310 -0.0502 -1.4511 -0.1493
19664TIP3    H280408   4.982   5.558   1.443  0.4902  0.4623 -0.4730
19665TIP3   OH280409   6.584   3.268   4.844 -0.3106 -0.8926  0.2143
19665TIP3    H180410   6.599   3.320   4.765 -0.0964 -1.2604  0.0101
19665TIP3    H280411   6.592   3.177   4.814  0.0509 -1.0246  0.7201
19666TIP3   OH280412   6.290   1.196   2.913  0.1298  0.0933 -0.2973
19666TIP3    H180413   6.319   1.246   2.990  1.9951  2.1201 -2.2492
19666TIP3    H280414   6.204   1.232   2.891  0.9049  1.5953 -0.9192
19667TIP3   OH280415   3.289   1.084  16.185 -0.1626 -0.3535 -0.4016
19667TIP3    H180416   3.258   1.157  16.131  0.0653 -0.1732 -0.2888
19667TIP3    H280417   3.243   1.095  16.268 -0.9057 -0.9315 -0.7403
19668TIP3   OH280418   3.959   1.137  11.500 -0.4443  0.2096 -0.3168
19668TIP3    H180419   3.970   1.197  11.427 -1.3216  0.3517 -0.3411
19668TIP3    H280420   3.978   1.051  11.464  2.4365  0.6365  0.1210
19669TIP3   OH280421   1.239   0.755  13.606 -0.5050  0.0389 -0.6252
19669TIP3    H180422   1.155   0.757  13.652 -0.9188  1.0827 -1.4274
19669TIP3    H280423   1.240   0.834  13.552  1.5188  0.6832  0.3007
19670TIP3   OH280424   0.041   4.342  16.591  0.0334 -0.3600  1.1374
19670TIP3    H180425  -0.047   4.319  16.562  1.8550 -1.7840 -3.8646
19670TIP3    H280426   0.038   4.437  16.604 -2.0097 -0.2717  0.1811
19671TIP3   OH280427   6.611   2.532   6.268  0.4594  0.5351 -0.2794
19671TIP3    H180428   6.679   2.559   6.206  2.2123  0.6883  1.6390
19671TIP3    H280429   6.632   2.440   6.286  2.1154  1.4336  2.6974
19672TIP3   OH280430   2.083   4.552  14.537 -0.0041  0.2481  0.2412
19672TIP3    H180431   2.154   4.561  14.474  0.2787 -1.1982  0.3246
19672TIP3    H280432   2.004   4.552  14.483  0.1787  0.0018 -0.0356
19673TIP3   OH280433   6.621   0.153   3.097  0.0033  0.0225  0.6583
19673TIP3    H180434   6.550   0.162   3.160  0.5149 -0.2943  1.2865
19673TIP3    H280435   6.665   0.071   3.121  0.6597  0.2794  0.3638
19674TIP3   OH280436   2.852   3.996   1.203 -0.2817  0.4026 -0.0043
19674TIP3    H180437   2.766   3.975   1.166  0.1493 -2.7120  0.6291
19674TIP3    H280438   2.832   4.030   1.291 -0.8529 -0.5323  0.2327
19675TIP3   OH280439   1.540   5.809   5.814 -0.0235 -0.3934 -0.3734
19675TIP3    H180440   1.624   5.845   5.786 -0.3698  0.9673  0.3109
19675TIP3    H280441   1.550   5.793   5.907 -0.8006  0.6329 -0.0952
19676TIP3   OH280442   5.689   0.301   3.622 -0.2781 -0.0420 -0.1452
19676TIP3    H180443   5.681   0.382   3.672  0.4676 -0.8450  1.3177
19676TIP3    H280444   5.761   0.254   3.664 -1.9873 -2.3462  0.3356
19677TIP3   OH280445   4.237   3.112   0.702  0.2429 -0.1686 -0.0821
19677TIP3    H180446   4.330   3.088   0.696  0.5742  0.2551  2.7900
19677TIP3    H280447   4.192   3.028   0.708  0.7568 -0.3440  1.8777
19678TIP3   OH280448   1.497   3.153  14.651  0.6233  0.5149 -0.7546
19678TIP3    H180449   1.497   3.240  14.690  1.5903  0.1176  0.1498
19678TIP3    H280450   1.500   3.168  14.557 -0.8579  1.4725 -0.6670
19679TIP3   OH280451   1.525   1.217   0.796  0.1116 -0.3380 -0.7678
19679TIP3    H180452   1.448   1.171   0.765  0.9162 -2.1952 -0.0679
19679TIP3    H280453   1.578   1.231   0.717  0.4629 -1.7724 -0.7846
19680TIP3   OH280454   4.370   5.320   5.849  0.2767  0.2603  0.4650
19680TIP3    H180455   4.464   5.336   5.844  0.6298 -1.4507  1.1297
19680TIP3    H280456   4.357   5.244   5.792 -1.0131  1.6278 -1.1130
19681TIP3   OH280457   0.316   3.015   3.112 -0.2545 -0.2971  0.3680
19681TIP3    H180458   0.344   2.971   3.032 -0.5155  1.4555 -0.7186
19681TIP3    H280459   0.255   2.954   3.154 -0.9176 -0.8057 -1.3015
19682TIP3   OH280460   5.370   2.534  16.534  0.2520  0.1870 -0.0776
19682TIP3    H180461   5.292   2.544  16.479  0.8960  0.3010 -0.9843
19682TIP3    H280462   5.442   2.564  16.478  1.1932 -1.7508  0.0659
19683TIP3   OH280463   3.131   0.346  16.768  0.2583 -0.8469  0.0983
19683TIP3    H180464   3.072   0.326  16.696  1.8822 -0.8705 -1.2448
19683TIP3    H280465   3.211   0.380  16.726  1.3655 -1.2111  1.8387
19684TIP3   OH280466   1.801   1.754   3.417  0.6254 -0.5898 -0.7137
19684TIP3    H180467   1.731   1.800   3.371 -0.2915 -1.1660  0.0783
19684TIP3    H280468   1.767   1.742   3.506  1.8807 -0.5497 -0.2196
19685TIP3   OH280469   0.700   6.290  13.908 -0.4635  0.3402  0.4162
19685TIP3    H180470   0.665   6.378  13.897  2.2353  1.3225 -0.6178
19685TIP3    H280471   0.623   6.233  13.902 -2.1124  2.5279  0.1272
19686TIP3   OH280472   5.784   3.499   6.186  0.6051  0.0646 -0.8359
19686TIP3    H180473   5.864   3.457   6.155 -0.1404 -0.6571 -1.8460
19686TIP3    H280474   5.756   3.447   6.261  0.0329 -0.8696 -1.6902
19687TIP3   OH280475   2.574   1.631   0.461 -0.1407 -0.0191  0.1178
19687TIP3    H180476   2.504   1.571   0.489 -1.4079  0.7346 -1.3075
19687TIP3    H280477   2.575   1.622   0.366  1.4340  0.3120  0.0996
19688TIP3   OH280478   4.999   5.894  12.159  0.7975 -0.2611 -0.4063
19688TIP3    H180479   4.922   5.906  12.215  0.8215  0.5446 -0.5451
19688TIP3    H280480   5.069   5.870  12.220  0.0321 -2.7596 -0.4790
19689TIP3   OH280481   6.683   4.014   2.543 -0.0271 -0.0206 -0.1027
19689TIP3    H180482   6.687   4.050   2.631  1.9173 -1.0927  0.2800
19689TIP3    H280483   6.766   3.967   2.532 -0.1875  0.1784 -2.5318
19690TIP3   OH280484   5.915   4.752  13.739 -0.2259  0.2574 -0.5232
19690TIP3    H180485   5.979   4.681  13.741  0.8083  1.1526 -1.2351
19690TIP3    H280486   5.831   4.708  13.723  0.1139 -0.9772  0.9438
19691TIP3   OH280487   5.838   5.429  14.656 -0.5013  0.2679  0.6226
19691TIP3    H180488   5.861   5.434  14.563 -1.5587 -1.9959  0.1986
19691TIP3    H280489   5.921   5.417  14.701 -0.0917  0.2433 -0.1315
19692TIP3   OH280490   6.615   6.669  13.416 -0.5592 -0.1933 -0.1973
19692TIP3    H180491   6.593   6.623  13.497 -0.4877 -1.2095 -0.7432
19692TIP3    H280492   6.706   6.646  13.399  0.0675  1.6798  0.5176
19693TIP3   OH280493   5.199   5.756  16.263 -0.2412 -0.0048  0.0395
19693TIP3    H180494   5.264   5.768  16.331  0.0837 -0.8359 -0.1167
19693TIP3    H280495   5.247   5.768  16.181 -0.1610 -1.1055 -0.0887
19694TIP3   OH280496   0.917   2.716   5.317  0.4100 -0.1960  0.3994
19694TIP3    H180497   0.980   2.645   5.331  2.3355  1.5200  0.7142
19694TIP3    H280498   0.953   2.790   5.365 -1.1134  1.2519 -0.6221
19695TIP3   OH280499   3.494   1.011  15.520  0.3421  0.5160 -0.0449
19695TIP3    H180500   3.458   1.002  15.608  1.0698  0.4784  0.2471
19695TIP3    H280501   3.541   1.094  15.522  0.1676  0.6288 -0.4699
19696TIP3   OH280502   4.228   5.456   2.294 -0.0367  0.1309 -0.2959
19696TIP3    H180503   4.209   5.544   2.325 -0.8453  0.1697 -0.8662
19696TIP3    H280504   4.199   5.456   2.202  2.0626 -0.0553 -0.9772
19697TIP3   OH280505   1.894   1.271   3.041 -0.6166 -0.0914 -0.4170
19697TIP3    H180506   1.875   1.186   3.081 -0.2157  1.2857  2.9245
19697TIP3    H280507   1.810   1.317   3.042 -0.4506  0.2119 -0.4925
19698TIP3   OH280508   3.072   0.925  16.598  0.2149  0.1875  0.3610
19698TIP3    H180509   2.995   0.971  16.630 -0.3934  0.9562 -2.1191
19698TIP3    H280510   3.044   0.834  16.587 -0.3889  0.4744 -0.5795
19699TIP3   OH280511   2.076   5.364  16.012  0.5718 -0.1284 -0.3804
19699TIP3    H180512   2.074   5.373  15.917  1.7911  2.3823 -0.2253
19699TIP3    H280513   2.156   5.313  16.029  1.7310  1.5834 -0.5975
19700TIP3   OH280514   2.491   0.082  16.979  0.3714 -0.8079  0.3171
19700TIP3    H180515   2.457   0.152  16.924 -0.7819 -1.5272  0.0933
19700TIP3    H280516   2.581   0.070  16.950 -0.0756 -0.8433 -1.0863
19701TIP3   OH280517   0.542   2.091  12.105  0.0520 -0.2080  0.4899
19701TIP3    H180518   0.585   2.082  12.020 -0.7104 -0.5970  0.1407
19701TIP3    H280519   0.602   2.049  12.167 -0.2118 -1.4680 -0.1077
19702TIP3   OH280520   3.946   0.851   2.389  0.0313 -0.5175 -0.0671
19702TIP3    H180521   3.900   0.849   2.473  0.9276  0.2192  0.4467
19702TIP3    H280522   3.885   0.810   2.327 -0.6205 -1.0820  0.9447
19703TIP3   OH280523   2.696   4.094   4.162  0.1883 -0.2293 -0.4173
19703TIP3    H180524   2.782   4.128   4.136 -1.3984  2.5525 -2.3171
19703TIP3    H280525   2.676   4.140   4.244 -0.4421  0.8384 -1.1589
19704TIP3   OH280526   1.100   2.876   5.523 -0.0719 -0.7973 -0.1302
19704TIP3    H180527   1.161   2.886   5.596  0.0741  1.0983 -0.4837
19704TIP3    H280528   1.132   2.800   5.475  1.5412 -0.3085  0.1423
19705TIP3   OH280529   4.402   0.395   4.525  0.3993  0.1474  0.3438
19705TIP3    H180530   4.430   0.332   4.459  1.1800 -0.4130  1.1926
19705TIP3    H280531   4.461   0.379   4.599 -0.7637  0.4582  1.3388
19706TIP3   OH280532   6.473   3.227  17.073 -0.6812 -0.0341 -0.8186
19706TIP3    H180533   6.535   3.291  17.037 -0.2757  0.3265  0.4953
19706TIP3    H280534   6.424   3.196  16.996 -0.2103  1.1194 -1.6091
19707TIP3   OH280535   3.605   3.862   1.140  0.5186 -0.2562 -0.7128
19707TIP3    H180536   3.542   3.909   1.195  0.8165 -0.8725  0.1556
19707TIP3    H280537   3.614   3.917   1.062 -0.1326  0.4696 -0.2814
19708TIP3   OH280538   0.629   5.311  10.340  0.6291 -0.5026 -0.0126
19708TIP3    H180539   0.723   5.292  10.336 -0.0276 -3.5518 -2.8476
19708TIP3    H280540   0.594   5.247  10.403  0.3473  0.2389  0.5903
19709TIP3   OH280541   4.242   2.451  11.482  0.0806  0.5638  0.1764
19709TIP3    H180542   4.319   2.488  11.440 -1.0262  1.8076 -0.7903
19709TIP3    H280543   4.186   2.421  11.410 -0.3203 -0.3955  0.8650
19710TIP3   OH280544   0.641   1.493   1.624 -0.0103 -0.0231 -0.0428
19710TIP3    H180545   0.718   1.464   1.673  0.1792 -1.3121 -1.0899
19710TIP3    H280546   0.675   1.560   1.564  0.4182 -0.9846 -0.8935
19711TIP3   OH280547   6.111   0.996  14.580 -0.0315  0.0684  0.2452
19711TIP3    H180548   6.149   0.984  14.667  0.5583  1.0798  0.1312
19711TIP3    H280549   6.019   0.971  14.591  0.0142  0.2779  1.1802
19712TIP3   OH280550   4.284   2.556   4.734  0.4145 -0.2438 -0.5243
19712TIP3    H180551   4.266   2.598   4.650  0.0819 -0.4218 -0.5454
19712TIP3    H280552   4.211   2.584   4.790  1.2222  0.7863  0.0427
19713TIP3   OH280553   1.531   4.889   1.859 -0.1154 -0.4294  0.7172
19713TIP3    H180554   1.440   4.915   1.871 -0.7328 -0.9156 -2.3553
19713TIP3    H280555   1.572   4.967   1.821  0.4625 -0.6022  0.9895
19714TIP3   OH280556   6.483   0.706   5.766  0.7545 -0.3390 -0.1124
19714TIP3    H180557   6.535   0.779   5.733  0.3383 -0.1031 -0.2520
19714TIP3    H280558   6.414   0.747   5.818 -1.3822 -0.4338 -2.7627
19715TIP3   OH280559   4.899   1.520   5.224  0.1600  0.1881 -1.1622
19715TIP3    H180560   4.912   1.452   5.158  0.5336  1.2227 -2.1779
19715TIP3    H280561   4.987   1.542   5.254 -0.0854 -1.3975  0.8882
19716TIP3   OH280562   5.826   3.687  11.894  0.1700  0.1984 -0.3615
19716TIP3    H180563   5.805   3.736  11.973 -0.7376 -0.3315 -0.2721
19716TIP3    H280564   5.829   3.596  11.923  2.1961  0.2113 -0.4460
19717TIP3   OH280565   5.476   3.113  16.542  0.1953  0.3912  0.0842
19717TIP3    H180566   5.510   3.119  16.453 -0.0299  0.9335  0.0304
19717TIP3    H280567   5.455   3.021  16.554 -0.5180  0.4404 -0.7055
19718TIP3   OH280568   1.733   5.224  14.447  0.3501 -0.7503 -0.3837
19718TIP3    H180569   1.660   5.234  14.508 -0.3777  1.6866 -1.5976
19718TIP3    H280570   1.812   5.228  14.503 -0.3581 -0.4677  0.6098
19719TIP3   OH280571   1.773   2.259   1.983 -0.3988  0.1206  0.1748
19719TIP3    H180572   1.803   2.307   2.060  0.3587  1.2887 -0.8284
19719TIP3    H280573   1.851   2.253   1.927 -0.1311 -3.3619  0.7974
19720TIP3   OH280574   0.697   1.075   6.495  0.8504 -0.0183 -0.1838
19720TIP3    H180575   0.654   1.002   6.538  2.1782 -0.2038  0.8890
19720TIP3    H280576   0.719   1.043   6.407  1.1328 -0.8022  0.1696
19721TIP3   OH280577   6.671   6.126  15.387 -0.2756  0.5170 -0.6688
19721TIP3    H180578   6.711   6.212  15.379  0.9441 -0.0419 -0.7269
19721TIP3    H280579   6.741   6.065  15.363 -0.1168 -0.6549  2.5790
19722TIP3   OH280580   5.996   1.591  14.178  0.4500 -0.0320 -0.1199
19722TIP3    H180581   6.069   1.530  14.188  1.1476  1.0463  1.7975
19722TIP3    H280582   5.945   1.557  14.105  2.3983 -1.2902 -0.9305
19723TIP3   OH280583   6.330   5.204   3.549  0.3880 -0.6398 -0.9456
19723TIP3    H180584   6.266   5.193   3.620  0.8786 -0.3023 -0.4499
19723TIP3    H280585   6.307   5.288   3.509  1.4134  0.1875  0.1586
19724TIP3   OH280586   3.743   3.334   4.136 -0.4135 -0.5815  0.6396
19724TIP3    H180587   3.653   3.302   4.121 -1.3811  1.7530  1.2978
19724TIP3    H280588   3.753   3.407   4.075 -0.8407  2.4959  4.0877
19725TIP3   OH280589   1.682   5.613   3.263 -0.1526 -0.4709  0.0246
19725TIP3    H180590   1.637   5.557   3.327  0.2897  1.5028  2.1351
19725TIP3    H280591   1.613   5.671   3.230  0.0097 -0.1970  0.1677
19726TIP3   OH280592   5.022   5.835   4.219 -0.2503 -0.0939 -0.9985
19726TIP3    H180593   4.962   5.760   4.217 -2.4652  1.6509 -1.5942
19726TIP3    H280594   5.109   5.795   4.225 -1.3215 -2.7381 -2.1619
19727TIP3   OH280595   5.142   0.940   0.193  0.1081 -0.2948  0.0878
19727TIP3    H180596   5.121   0.878   0.263 -0.0578  1.1229  1.3236
19727TIP3    H280597   5.088   0.912   0.119 -1.9433 -0.0607  1.4517
19728TIP3   OH280598   1.304   6.633  11.248 -0.2439 -0.0274 -0.2068
19728TIP3    H180599   1.248   6.697  11.203  1.0214 -0.1487 -2.0115
19728TIP3    H280600   1.242   6.572  11.289 -1.4424  0.4525 -1.2611
19729TIP3   OH280601   5.516   1.521   5.197  0.0697 -0.4310 -0.1056
19729TIP3    H180602   5.468   1.600   5.173 -1.4394 -1.4068 -0.3760
19729TIP3    H280603   5.504   1.513   5.292 -1.7344 -1.5580 -0.3963
19730TIP3   OH280604   3.804   5.114  16.915  0.4369 -0.3393  0.6987
19730TIP3    H180605   3.811   5.042  16.852 -0.5917 -0.1005  0.2936
19730TIP3    H280606   3.859   5.183  16.878  0.6305 -0.5580  0.5744
19731TIP3   OH280607   5.311   2.312  16.301  0.3442 -0.0080 -0.7871
19731TIP3    H180608   5.349   2.336  16.217  0.5910  0.3847 -0.5674
19731TIP3    H280609   5.218   2.333  16.293  0.4685  0.5452 -0.7722
19732TIP3   OH280610   5.192   2.768  14.998 -0.1083 -0.0955 -0.9384
19732TIP3    H180611   5.161   2.750  14.909  0.4583 -1.5721 -0.8600
19732TIP3    H280612   5.116   2.806  15.042  0.0393  2.0308 -2.4485
19733TIP3   OH280613   0.686   0.211   4.030 -0.1253  0.1375 -0.1802
19733TIP3    H180614   0.746   0.244   3.963 -0.5625 -0.3668 -0.8199
19733TIP3    H280615   0.664   0.289   4.082  0.2116  0.5260 -0.6131
19734TIP3   OH280616   4.115   6.078  11.632 -0.0872  0.1361 -0.4815
19734TIP3    H180617   4.179   6.058  11.564 -1.1613 -2.3518 -0.8456
19734TIP3    H280618   4.050   6.133  11.588 -0.3886 -0.8457 -1.2777
19735TIP3   OH280619   3.632   3.581   4.312  0.1031  0.1579  0.0359
19735TIP3    H180620   3.709   3.576   4.369  1.1206  3.3302 -0.9565
19735TIP3    H280621   3.659   3.538   4.232  0.7039  0.7885 -0.1135
19736TIP3   OH280622   5.623   6.771  15.207 -0.1152 -0.6916 -0.1313
19736TIP3    H180623   5.536   6.795  15.238 -0.4727 -1.2967 -0.6450
19736TIP3    H280624   5.670   6.743  15.285 -0.0025  0.7281  0.3240
19737TIP3   OH280625   4.852   4.190   1.611  0.1133  0.2383 -0.0512
19737TIP3    H180626   4.921   4.125   1.602  0.4587  0.3983  1.2751
19737TIP3    H280627   4.896   4.274   1.602 -0.2958  0.3043 -1.5354
19738TIP3   OH280628   6.651   6.049   4.342  0.2476  0.1860  0.0913
19738TIP3    H180629   6.646   5.977   4.279 -0.2119  0.3038 -0.0077
19738TIP3    H280630   6.571   6.099   4.328  0.4653  0.5977  0.3074
19739TIP3   OH280631   3.610   0.284  14.397  0.9572  0.0246  0.0082
19739TIP3    H180632   3.562   0.282  14.480  1.0810  0.3874  0.0903
19739TIP3    H280633   3.639   0.375  14.389 -0.4048  0.3731 -1.1982
19740TIP3   OH280634   1.858   2.134  14.625  0.5574 -0.1776 -0.3434
19740TIP3    H180635   1.809   2.214  14.605  1.2108  0.2879 -0.0936
19740TIP3    H280636   1.914   2.120  14.549  1.1250  0.1254  0.0171
19741TIP3   OH280637   2.888   2.855  13.311 -0.0558  0.6644  0.3323
19741TIP3    H180638   2.826   2.808  13.368  0.7547 -1.8066 -0.7373
19741TIP3    H280639   2.896   2.799  13.234  0.1394  3.1583 -1.5027
19742TIP3   OH280640   2.177   4.542   0.311  0.9346 -0.3195  0.2016
19742TIP3    H180641   2.109   4.589   0.360 -0.0464  0.4506 -1.8592
19742TIP3    H280642   2.238   4.610   0.284 -0.0095 -0.3359 -2.0216
19743TIP3   OH280643   3.397   1.268   3.627 -0.2020 -0.4697 -0.0079
19743TIP3    H180644   3.426   1.331   3.561 -0.5710  0.5692  0.8016
19743TIP3    H280645   3.352   1.199   3.578  2.0397 -1.1867 -1.1141
19744TIP3   OH280646   1.694   2.002   2.331 -0.6192 -0.2778  0.0322
19744TIP3    H180647   1.729   2.071   2.275  0.4027 -0.9587 -0.1871
19744TIP3    H280648   1.613   1.974   2.288 -1.2274  1.0241  0.3188
19745TIP3   OH280649   2.972   0.265  16.499 -0.1094 -0.4228  0.3154
19745TIP3    H180650   3.020   0.184  16.481  0.3580 -0.1426  0.2843
19745TIP3    H280651   3.020   0.332  16.452 -0.6253 -0.1597  0.1588
19746TIP3   OH280652   5.884   5.404   5.941 -0.9014 -0.6795 -0.4140
19746TIP3    H180653   5.857   5.405   5.849 -1.2085  0.1469 -0.3193
19746TIP3    H280654   5.920   5.491   5.956 -0.0003 -1.1237  0.0042
19747TIP3   OH280655   6.687   1.994   2.982 -0.1550  0.2402  0.7907
19747TIP3    H180656   6.685   1.979   2.887  0.0220 -2.7932  1.2205
19747TIP3    H280657   6.595   1.997   3.007 -0.1932 -0.9952  0.8069
19748TIP3   OH280658   1.297   3.096   5.240 -0.1449  0.6659 -0.2598
19748TIP3    H180659   1.297   3.049   5.323 -0.4760  2.3673  0.7314
19748TIP3    H280660   1.286   3.188   5.265 -0.7048  1.1432 -2.2124
19749TIP3   OH280661   5.271   0.374  16.657  0.1595 -0.2095 -0.0659
19749TIP3    H180662   5.218   0.322  16.717 -0.2933 -0.9384 -1.0901
19749TIP3    H280663   5.262   0.330  16.573  0.6982  0.8721 -0.6946
19750TIP3   OH280664   5.636   5.684   0.783 -0.0284  0.0333  0.0610
19750TIP3    H180665   5.615   5.760   0.730 -0.1298 -0.0465 -0.0121
19750TIP3    H280666   5.722   5.655   0.752 -0.4199 -0.4621 -0.5636
19751TIP3   OH280667   4.665   4.699  17.237  0.3209 -0.1235  0.0833
19751TIP3    H180668   4.628   4.734  17.318  0.8725 -0.4803  0.4908
19751TIP3    H280669   4.723   4.769  17.206  0.2043 -0.0367  0.0567
19752TIP3   OH280670   0.439   5.957   0.772  0.1378 -0.4905 -0.8240
19752TIP3    H180671   0.418   5.874   0.730 -0.2975 -0.2368 -1.1176
19752TIP3    H280672   0.526   5.980   0.738  1.1022 -1.7623  0.7375
19753TIP3   OH280673   5.948   5.650  17.044 -0.2319  0.6597  0.0457
19753TIP3    H180674   6.027   5.646  17.098 -1.5472 -0.5744  1.9282
19753TIP3    H280675   5.971   5.602  16.964  0.7457 -0.1404  0.8024
19754TIP3   OH280676   6.531   2.500   5.955 -0.4236  0.4244 -0.6450
19754TIP3    H180677   6.587   2.485   6.031 -0.0200  0.2354 -0.9807
19754TIP3    H280678   6.592   2.510   5.882 -0.8239  0.3299 -0.9923
19755TIP3   OH280679   5.626   5.248  15.882 -0.4683  0.4540  0.1055
19755TIP3    H180680   5.604   5.335  15.915  0.0100 -0.5885  3.3094
19755TIP3    H280681   5.700   5.263  15.823  0.8529  2.0298  2.0882
19756TIP3   OH280682   2.069   0.101  16.478  0.0282 -0.0764 -0.0561
19756TIP3    H180683   2.016   0.036  16.525 -0.9142  1.5193  1.1326
19756TIP3    H280684   2.129   0.049  16.425 -2.3393 -1.9229 -1.0053
19757TIP3   OH280685   1.586   0.917   0.121  0.2726  0.2762  0.7632
19757TIP3    H180686   1.500   0.889   0.152  0.7075 -0.6987  1.1078
19757TIP3    H280687   1.646   0.891   0.190  0.8212  1.2059  0.6549
19758TIP3   OH280688   1.529   5.200  14.242 -0.3768 -0.3187 -0.0481
19758TIP3    H180689   1.560   5.158  14.162  0.5958 -0.0384  0.1796
19758TIP3    H280690   1.604   5.250  14.274 -0.1231 -2.0359  2.1348
19759TIP3   OH280691   2.241   2.656   2.621 -0.3132 -0.0705  0.2342
19759TIP3    H180692   2.154   2.636   2.588 -0.7795  0.0079  1.4042
19759TIP3    H280693   2.226   2.706   2.701  0.7636 -2.0585  1.7088
19760TIP3   OH280694   3.181   3.718  11.417  0.6862 -0.0504  0.1645
19760TIP3    H180695   3.208   3.629  11.440  0.9608  0.4172  1.7078
19760TIP3    H280696   3.113   3.740  11.480  1.1066  1.0796  0.2434
19761TIP3   OH280697   0.388   5.402   3.060  0.3141  0.0566 -0.4028
19761TIP3    H180698   0.454   5.346   3.019  0.7865  1.5783 -1.7403
19761TIP3    H280699   0.436   5.453   3.125 -0.1733 -1.2421  1.0439
19762TIP3   OH280700   0.776   4.021  14.489 -0.2101  0.0952 -0.1370
19762TIP3    H180701   0.725   3.975  14.555  1.4809 -0.6487  0.6683
19762TIP3    H280702   0.814   4.095  14.535  0.2560  0.0797 -0.4932
19763TIP3   OH280703   5.779   1.120   0.348 -0.1005 -0.4566  0.3194
19763TIP3    H180704   5.830   1.137   0.268 -0.9498  0.9353  0.0459
19763TIP3    H280705   5.720   1.049   0.324  1.4198 -1.8287  0.5249
19764TIP3   OH280706   2.867   2.113   4.782  0.7369 -0.5971 -0.3489
19764TIP3    H180707   2.931   2.083   4.847  2.2581  0.5172 -1.3132
19764TIP3    H280708   2.905   2.192   4.746 -1.0421 -0.1257 -1.2084
19765TIP3   OH280709   1.796   2.987  14.162 -0.0422 -1.0533  0.4704
19765TIP3    H180710   1.843   3.059  14.205  0.3578 -0.7028 -0.5287
19765TIP3    H280711   1.865   2.928  14.134 -0.3014 -1.2784  0.3126
19766TIP3   OH280712   0.183   4.040   4.469  0.5974 -0.5434  0.4626
19766TIP3    H180713   0.099   4.009   4.436  0.7930 -0.9627  0.3610
19766TIP3    H280714   0.176   4.030   4.564 -0.1732  1.1717  0.6090
19767TIP3   OH280715   1.601   6.655   5.478  0.2222  0.3618 -0.1556
19767TIP3    H180716   1.676   6.629   5.532  0.4344 -0.8338 -0.9925
19767TIP3    H280717   1.614   6.748   5.461  1.3346  0.2430  0.0080
19768TIP3   OH280718   3.336   0.312  12.144 -0.0506 -0.4114  0.9487
19768TIP3    H180719   3.287   0.379  12.194 -0.1645  0.7208 -0.6438
19768TIP3    H280720   3.409   0.360  12.106 -0.7583 -0.9456 -1.1365
19769TIP3   OH280721   3.365   1.442  15.734  0.1848 -0.0663 -0.3624
19769TIP3    H180722   3.318   1.511  15.781  0.2280 -0.1523 -0.1927
19769TIP3    H280723   3.405   1.389  15.803  0.8281  0.2173 -0.5176
19770TIP3   OH280724   5.833   2.658   5.804 -0.3238  0.3105 -0.5886
19770TIP3    H180725   5.874   2.725   5.750 -1.7394  1.0267 -0.7847
19770TIP3    H280726   5.803   2.592   5.742  0.1086 -0.0021 -0.4745
19771TIP3   OH280727   1.577   5.045  14.003 -0.4015 -0.5882  0.0002
19771TIP3    H180728   1.632   4.986  14.054 -1.4080 -0.6121  1.0755
19771TIP3    H280729   1.504   4.990  13.974 -0.7043 -0.1662 -0.0364
19772TIP3   OH280730   4.222   1.298   3.226  0.2732 -0.4791 -0.5498
19772TIP3    H180731   4.302   1.315   3.277  0.2173  0.4372 -0.7575
19772TIP3    H280732   4.174   1.381   3.229 -1.0514 -1.2480  0.2202
19773TIP3   OH280733   1.949   6.166   5.612  0.1240  0.5625  0.9654
19773TIP3    H180734   1.956   6.098   5.678  1.9066  0.0327  0.2735
19773TIP3    H280735   1.858   6.195   5.616 -0.7886 -2.1781  0.9547
19774TIP3   OH280736   4.155   1.327   2.217  0.1570 -0.5844  0.1299
19774TIP3    H180737   4.109   1.244   2.230 -0.5007 -0.7019 -2.5171
19774TIP3    H280738   4.104   1.391   2.267 -1.3477 -1.1967 -0.5922
19775TIP3   OH280739   3.476   3.682  17.024 -0.3062  0.5967  0.3527
19775TIP3    H180740   3.504   3.715  16.938  0.0524  0.6075  0.4741
19775TIP3    H280741   3.383   3.704  17.029 -0.3994  0.3269 -0.1632
19776TIP3   OH280742   1.774   5.728   5.623 -0.5025 -0.1618  0.0481
19776TIP3    H180743   1.781   5.807   5.678 -0.9326 -0.2497  0.2312
19776TIP3    H280744   1.774   5.656   5.686  1.4624 -0.4022 -0.1961
19777TIP3   OH280745   3.624   2.012   0.032 -0.4178 -0.2909  0.2820
19777TIP3    H180746   3.713   2.039   0.011 -1.1250 -0.1030 -2.6924
19777TIP3    H280747   3.618   1.921   0.003 -1.1397 -0.3560  0.6085
19778TIP3   OH280748   0.231   3.994  12.308 -0.1052  0.6719 -0.2674
19778TIP3    H180749   0.205   4.013  12.218  0.4248  0.6779 -0.4195
19778TIP3    H280750   0.164   4.037  12.361  0.1956  1.6114 -0.6375
19779TIP3   OH280751   4.457   3.063  13.778  0.0180 -0.3252 -0.5748
19779TIP3    H180752   4.387   3.005  13.809 -1.5538  1.0581 -1.3908
19779TIP3    H280753   4.428   3.151  13.805  2.1808  0.1168  0.3600
19780TIP3   OH280754   2.034   2.152  15.557  0.2443  0.5513 -0.3880
19780TIP3    H180755   2.030   2.071  15.608 -1.0047  0.8102 -0.0698
19780TIP3    H280756   2.064   2.218  15.620 -0.6847  0.7429 -0.1485
19781TIP3   OH280757   0.511   4.465  11.990 -0.1073  0.1988 -0.4043
19781TIP3    H180758   0.475   4.465  11.901  1.0476  1.9905 -0.9015
19781TIP3    H280759   0.594   4.512  11.983 -0.7566  1.8190  1.9055
19782TIP3   OH280760   6.189   5.380  11.240  0.4469  0.4578  0.5059
19782TIP3    H180761   6.184   5.335  11.324 -0.0570 -1.6384 -0.6200
19782TIP3    H280762   6.134   5.458  11.252 -2.6818 -1.7108  0.9827
19783TIP3   OH280763   1.347   5.857   4.043 -0.0523 -0.8624  0.4825
19783TIP3    H180764   1.255   5.883   4.037  1.1244  3.4709 -0.0739
19783TIP3    H280765   1.360   5.838   4.136 -1.2403 -0.4118  0.7544
19784TIP3   OH280766   3.079   3.438  14.942 -0.3816 -0.1661  0.4153
19784TIP3    H180767   3.090   3.532  14.932  3.5580 -0.5763 -0.0200
19784TIP3    H280768   3.070   3.405  14.853  1.9097 -0.5179  0.2818
19785TIP3   OH280769   4.523   0.267  15.755 -0.3399 -0.1748 -0.4805
19785TIP3    H180770   4.555   0.259  15.845 -0.5849  3.2140 -0.0033
19785TIP3    H280771   4.589   0.222  15.702  1.0279 -0.1983  1.2107
19786TIP3   OH280772   4.666   2.998   1.068 -0.0082 -0.3858 -0.0416
19786TIP3    H180773   4.673   3.060   1.140 -0.0722 -0.9985  0.4979
19786TIP3    H280774   4.679   2.913   1.109  0.6198 -0.6893 -0.8619
19787TIP3   OH280775   6.436   1.648   3.102  0.0018 -0.2718 -0.3972
19787TIP3    H180776   6.356   1.651   3.154  0.2404  0.2482 -0.0645
19787TIP3    H280777   6.502   1.613   3.161  0.2668  0.2930 -0.3554
19788TIP3   OH280778   1.332   2.974   6.298 -0.0004 -0.3157 -0.0806
19788TIP3    H180779   1.363   3.018   6.377 -0.3573 -0.8018  0.3346
19788TIP3    H280780   1.301   3.044   6.242 -0.0765  0.0046  0.3597
19789TIP3   OH280781   4.246   2.373  12.475  0.0736  0.0786  0.1644
19789TIP3    H180782   4.327   2.399  12.520  0.8446 -0.2052 -1.0511
19789TIP3    H280783   4.265   2.286  12.439 -1.2333 -0.5892  1.0152
19790TIP3   OH280784   0.057   3.500   0.083  0.1566 -0.0148 -0.9158
19790TIP3    H180785  -0.016   3.509   0.145  2.0637  0.8918  1.2603
19790TIP3    H280786   0.064   3.587   0.042  0.2514 -0.0057 -0.8790
19791TIP3   OH280787   1.715   0.557  12.607 -0.0310  0.1383 -0.3284
19791TIP3    H180788   1.740   0.625  12.544  1.9074  0.9649  1.2841
19791TIP3    H280789   1.631   0.524  12.574  1.3762 -0.1312 -3.8804
19792TIP3   OH280790   5.536   3.050   0.137  0.2755 -0.2824  0.0164
19792TIP3    H180791   5.457   2.998   0.125  0.5456 -0.4241 -1.1816
19792TIP3    H280792   5.588   3.035   0.058  0.7399  1.1409  0.0240
19793TIP3   OH280793   6.057   4.090  15.234 -0.4753 -0.3308  0.4437
19793TIP3    H180794   6.061   4.098  15.329  1.9143 -0.0446  0.3320
19793TIP3    H280795   6.131   4.141  15.202  1.5672 -4.1550 -1.3167
19794TIP3   OH280796   0.117   1.925  16.748 -0.2606 -0.7642  0.0844
19794TIP3    H180797   0.206   1.920  16.713  0.3711 -1.9173  1.7863
19794TIP3    H280798   0.079   1.839  16.730 -0.8700 -0.4390 -0.1939
19795TIP3   OH280799   2.279   3.470   5.355  0.3952  0.0548  0.1890
19795TIP3    H180800   2.312   3.545   5.304 -1.5170  0.2484 -0.8494
19795TIP3    H280801   2.226   3.510   5.424 -0.6571 -0.3192 -0.3878
19796TIP3   OH280802   1.759   4.137   5.635 -0.4818  0.0707  0.3882
19796TIP3    H180803   1.756   4.164   5.543 -0.0084  0.4034  0.4684
19796TIP3    H280804   1.836   4.182   5.671  1.1421 -2.3899  0.1915
19797TIP3   OH280805   1.319   0.252  11.761 -0.0362 -1.0126  0.6317
19797TIP3    H180806   1.354   0.213  11.841  0.3852 -1.1818  0.3650
19797TIP3    H280807   1.295   0.178  11.706  1.7200 -0.9374 -0.3011
19798TIP3   OH280808   5.753   5.086  16.099 -0.4998 -0.5397  0.4183
19798TIP3    H180809   5.838   5.077  16.056  0.0001 -0.5237  1.4102
19798TIP3    H280810   5.710   5.158  16.052  0.7345  0.6219  1.0655
19799TIP3   OH280811   6.722   2.438   3.053 -0.2764  0.4879 -0.1285
19799TIP3    H180812   6.790   2.458   3.117  1.1102  0.5531 -1.6051
19799TIP3    H280813   6.698   2.524   3.016 -0.2628  0.3338 -0.4989
19800TIP3   OH280814   0.698   4.080  12.761 -0.4640 -0.5876  0.5599
19800TIP3    H180815   0.775   4.134  12.777  0.6344 -2.2605  1.0162
19800TIP3    H280816   0.691   4.025  12.838  0.6096 -3.6407 -1.4355
19801TIP3   OH280817   4.121   4.691  15.646  0.0407 -0.1743  0.1437
19801TIP3    H180818   4.028   4.710  15.635 -0.0021 -0.9399 -0.8794
19801TIP3    H280819   4.163   4.777  15.652 -0.4239  0.2211 -2.0088
19802TIP3   OH280820   3.758   0.140   4.906 -0.8782  0.7796 -0.3708
19802TIP3    H180821   3.806   0.146   4.824 -0.8645  2.7385 -0.2423
19802TIP3    H280822   3.670   0.111   4.881 -0.6498  0.5996 -0.9678
19803TIP3   OH280823   0.186   1.435   4.715 -0.0413  0.3176 -0.3873
19803TIP3    H180824   0.208   1.523   4.743 -0.0320  0.6411 -1.4019
19803TIP3    H280825   0.161   1.444   4.623  1.2000 -0.9246 -0.8670
19804TIP3   OH280826   2.156   0.639   3.095 -0.2337 -0.4236 -0.0263
19804TIP3    H180827   2.169   0.690   3.175  2.8749 -1.5183  0.2386
19804TIP3    H280828   2.173   0.701   3.025 -1.4744  0.1542  0.1646
19805TIP3   OH280829   3.042   5.102  12.493  0.6088  0.3487  0.2344
19805TIP3    H180830   2.964   5.122  12.544  2.3322  2.8159  1.9745
19805TIP3    H280831   3.015   5.114  12.402 -1.3303  0.0369  0.7539
19806TIP3   OH280832   3.354   2.949   3.189  0.0523  0.3254  0.4865
19806TIP3    H180833   3.314   2.864   3.170  1.0909 -0.1360  0.3496
19806TIP3    H280834   3.448   2.930   3.197  0.4814  1.7263 -1.0754
19807TIP3   OH280835   4.697   0.194   3.920 -0.4002  0.5176 -0.4524
19807TIP3    H180836   4.709   0.161   3.831 -0.5491 -2.1578  0.4686
19807TIP3    H280837   4.640   0.271   3.909 -1.3009 -0.3911 -2.5744
19808TIP3   OH280838   5.993   5.788   2.782 -0.8994 -0.7228  0.3389
19808TIP3    H180839   6.006   5.710   2.836  2.2876  1.3355  2.7537
19808TIP3    H280840   5.959   5.854   2.843 -1.6539  0.3503 -1.2125
19809TIP3   OH280841   4.794   4.034  16.001  0.0215 -0.1513 -0.5724
19809TIP3    H180842   4.822   3.981  16.076 -1.5548 -1.4259 -0.8644
19809TIP3    H280843   4.809   4.124  16.028  1.5064 -0.6753  0.4356
19810TIP3   OH280844   1.228   6.512   1.913  0.3913  0.2214 -0.1388
19810TIP3    H180845   1.239   6.478   1.824  0.7269  1.1441 -0.4504
19810TIP3    H280846   1.317   6.518   1.947  0.4968  2.5464 -0.7469
19811TIP3   OH280847   3.874   5.738  15.779  0.5106 -0.4582 -0.2049
19811TIP3    H180848   3.942   5.789  15.823  0.0638  3.5443 -3.8723
19811TIP3    H280849   3.923   5.672  15.728  1.3640 -0.4930  0.6422
19812TIP3   OH280850   1.409   5.222   2.687  0.2882  0.9855  0.2187
19812TIP3    H180851   1.398   5.251   2.596  0.7539 -1.5389 -0.6729
19812TIP3    H280852   1.499   5.191   2.691 -0.5801 -1.5818  0.7356
19813TIP3   OH280853   3.690   3.044   2.522  0.1036 -0.0119 -0.2162
19813TIP3    H180854   3.695   3.124   2.469  1.7990 -0.2988 -0.5177
19813TIP3    H280855   3.596   3.028   2.531 -0.2401  0.2010 -2.9041
19814TIP3   OH280856   3.451   6.246  17.003  0.1323  0.7511  0.5614
19814TIP3    H180857   3.490   6.299  17.073  2.3341  1.0309 -0.8120
19814TIP3    H280858   3.372   6.294  16.979  0.8122  2.1325  0.9847
19815TIP3   OH280859   1.018   0.935   1.069  0.1238 -1.1179  0.3353
19815TIP3    H180860   1.065   0.892   0.998 -0.7192 -2.6640  0.6947
19815TIP3    H280861   0.942   0.975   1.026 -0.2866 -1.8935  0.3416
19816TIP3   OH280862   5.827   2.583  16.666  0.2847 -0.3993 -0.3667
19816TIP3    H180863   5.762   2.653  16.657  1.5162  0.9126  0.6949
19816TIP3    H280864   5.861   2.570  16.578  0.4310  0.7319 -0.4871
19817TIP3   OH280865   4.125   2.465  13.169 -0.9383  0.0676  0.3815
19817TIP3    H180866   4.213   2.503  13.180 -0.0328 -2.0404  0.6619
19817TIP3    H280867   4.068   2.521  13.221  0.4127  0.8946  1.0054
19818TIP3   OH280868   1.989   2.989   3.781  0.0695 -0.3126 -0.5838
19818TIP3    H180869   1.922   2.974   3.714 -2.7446  0.6158  1.9157
19818TIP3    H280870   1.978   3.081   3.806  1.2539 -0.5609  0.9170
19819TIP3   OH280871   5.887   2.266  13.400 -0.1260 -0.2194  0.1034
19819TIP3    H180872   5.873   2.171  13.408  2.1320 -0.9247 -3.1589
19819TIP3    H280873   5.808   2.298  13.357 -1.9301 -0.1730  3.3146
19820TIP3   OH280874   4.477   1.218  12.199  0.5370 -0.1393  0.6019
19820TIP3    H180875   4.564   1.191  12.168  1.0639  0.8369  1.1736
19820TIP3    H280876   4.443   1.140  12.244  0.3325 -1.1155 -1.2175
19821TIP3   OH280877   2.164   4.105  16.836 -0.4469  0.5160 -0.3636
19821TIP3    H180878   2.232   4.172  16.835 -0.2745  0.3683  1.3914
19821TIP3    H280879   2.172   4.063  16.921 -1.0428 -1.2461 -1.1535
19822TIP3   OH280880   0.071   2.661  15.287 -0.6097 -0.3836  0.1243
19822TIP3    H180881  -0.023   2.666  15.271 -0.2472 -0.0736 -2.0093
19822TIP3    H280882   0.088   2.568  15.303 -1.7159 -0.0676  3.6693
19823TIP3   OH280883   0.014   3.146  15.662 -0.2031  0.4998  0.0979
19823TIP3    H180884   0.068   3.199  15.603  1.5537 -1.0816  0.2613
19823TIP3    H280885  -0.022   3.077  15.606 -2.3097  1.6715 -0.0661
19824TIP3   OH280886   6.554   0.567  16.102 -0.3253 -0.5553 -0.3622
19824TIP3    H180887   6.644   0.575  16.132 -0.4476 -1.3693  0.2328
19824TIP3    H280888   6.525   0.658  16.091  0.8354 -0.3064 -1.3967
19825TIP3   OH280889   4.746   3.151   3.485  0.2465  0.5489  0.1432
19825TIP3    H180890   4.802   3.218   3.444 -1.5490  0.4108 -2.6919
19825TIP3    H280891   4.791   3.069   3.466  1.1599  0.7334  1.4422
19826TIP3   OH280892   5.499   5.097  12.031  0.7612 -0.3781  0.6059
19826TIP3    H180893   5.444   5.043  12.088  0.3186 -1.9631 -1.2530
19826TIP3    H280894   5.468   5.186  12.044 -0.9245 -1.0210  1.0601
19827TIP3   OH280895   3.047   3.610  12.021 -0.1855 -0.4820  0.7835
19827TIP3    H180896   2.968   3.658  12.046 -0.9904 -0.4496 -1.6455
19827TIP3    H280897   3.088   3.665  11.954  1.0212 -1.2746  0.8507
19828TIP3   OH280898   1.339   4.280   4.462 -0.7812 -0.0015  0.0810
19828TIP3    H180899   1.310   4.224   4.390  1.4447 -0.1147 -0.7826
19828TIP3    H280900   1.392   4.222   4.517  2.5035  1.4367 -1.4330
19829TIP3   OH280901   2.966   1.476   0.276 -0.2246 -0.0200 -0.2216
19829TIP3    H180902   2.936   1.454   0.188 -0.8899 -1.5558  0.3653
19829TIP3    H280903   3.049   1.520   0.263 -0.4143 -0.0670 -1.6341
19830TIP3   OH280904   1.887   3.404  11.862 -0.2469  0.5090 -0.0445
19830TIP3    H180905   1.818   3.360  11.812 -0.9379  2.4069 -0.8296
19830TIP3    H280906   1.899   3.488  11.817  1.0162  1.1321  1.4069
19831TIP3   OH280907   2.501   2.154   2.043  0.3839  0.2463  0.5239
19831TIP3    H180908   2.501   2.203   1.961 -1.9064 -0.0208  0.3379
19831TIP3    H280909   2.411   2.159   2.075  0.7256 -1.5383  1.8793
19832TIP3   OH280910   6.191   1.440   2.057  0.2225  0.0414  0.4596
19832TIP3    H180911   6.261   1.489   2.014  0.0626  0.5353  0.7495
19832TIP3    H280912   6.232   1.358   2.084  0.5412  0.0861  0.1162
19833TIP3   OH280913   3.037   0.964  14.687 -0.0300 -0.1440 -0.8296
19833TIP3    H180914   2.999   0.896  14.632 -0.2984 -0.4201 -0.2954
19833TIP3    H280915   2.962   1.008  14.726  0.1512  0.2965 -0.9727
19834TIP3   OH280916   1.279   1.134  13.223 -0.2166  0.0868  0.2094
19834TIP3    H180917   1.219   1.065  13.250 -0.8915  0.8350  0.6454
19834TIP3    H280918   1.256   1.209  13.279  0.7630  0.5404  0.0121
19835TIP3   OH280919   0.020   6.748  15.601 -0.0573 -0.2819  0.7886
19835TIP3    H180920   0.007   6.659  15.569  0.2484 -0.3354  0.8199
19835TIP3    H280921  -0.055   6.797  15.565 -0.5977 -0.6984  1.3399
19836TIP3   OH280922   0.574   4.367   1.050 -0.5943 -0.8983  0.2151
19836TIP3    H180923   0.544   4.321   1.129 -0.1098 -3.0812 -0.8136
19836TIP3    H280924   0.547   4.309   0.978  1.5027 -0.3702 -1.0318
19837TIP3   OH280925   6.568   0.989   2.069  0.7197  0.5222 -0.1665
19837TIP3    H180926   6.629   1.056   2.097  0.3867  0.7148  0.1044
19837TIP3    H280927   6.588   0.913   2.124  0.5475  0.6684  0.1031
19838TIP3   OH280928   5.586   4.765   3.835 -0.5690 -0.4570  0.6245
19838TIP3    H180929   5.674   4.803   3.840 -1.2285  1.2303 -0.2823
19838TIP3    H280930   5.596   4.691   3.774  0.2140 -0.2568  0.5048
19839TIP3   OH280931   2.493   0.605   5.170 -0.2757  0.3484  0.3271
19839TIP3    H180932   2.500   0.549   5.247  0.4805  0.6488  0.4812
19839TIP3    H280933   2.414   0.657   5.185  0.6565  1.4233  1.5835
19840TIP3   OH280934   2.579   0.850  11.506 -0.2661 -0.6421 -0.8482
19840TIP3    H180935   2.582   0.846  11.411  2.4303  1.6848 -0.9169
19840TIP3    H280936   2.636   0.779  11.536  0.3916 -0.1751 -0.9989
19841TIP3   OH280937   0.541   4.866   3.637 -0.5309 -0.1396 -0.0238
19841TIP3    H180938   0.579   4.787   3.598 -0.7948  0.1733 -0.9321
19841TIP3    H280939   0.546   4.851   3.731 -0.0035 -0.9705 -0.1770
19842TIP3   OH280940   5.930   3.550  14.918 -0.4373 -0.3775  0.2558
19842TIP3    H180941   5.836   3.567  14.914 -0.2845  0.3986 -0.1028
19842TIP3    H280942   5.970   3.621  14.867  0.3727 -0.4092  0.8326
19843TIP3   OH280943   4.898   5.116   3.333 -0.2090 -0.2821  0.0395
19843TIP3    H180944   4.861   5.204   3.333 -1.3752 -0.7631 -0.5622
19843TIP3    H280945   4.929   5.102   3.243 -0.4751 -0.6684  0.0043
19844TIP3   OH280946   3.036   2.842  11.356  0.1936  0.0879  0.2139
19844TIP3    H180947   3.054   2.928  11.394 -3.0097  0.8204  0.2492
19844TIP3    H280948   2.956   2.814  11.400 -0.9648 -1.1400 -2.6144
19845TIP3   OH280949   4.090   2.494   1.983 -0.5204  0.4062 -0.5087
19845TIP3    H180950   4.102   2.528   1.894  0.0851  0.7226 -0.3046
19845TIP3    H280951   4.146   2.548   2.038 -0.5890 -0.0444  0.0131
19846TIP3   OH280952   4.877   0.746  10.909  0.7380 -0.1708 -0.2131
19846TIP3    H180953   4.886   0.778  10.819 -0.4471 -1.3784 -0.7715
19846TIP3    H280954   4.783   0.747  10.926  0.6024 -3.5426 -0.3544
19847TIP3   OH280955   3.743   4.303   6.421  0.1626  0.4499  0.4041
19847TIP3    H180956   3.811   4.353   6.467 -1.3157  2.5215  0.3833
19847TIP3    H280957   3.671   4.299   6.483 -0.1949 -0.5809 -0.0840
19848TIP3   OH280958   0.709   3.271  14.332 -0.2532  0.0167  0.0656
19848TIP3    H180959   0.637   3.256  14.271  0.8138 -2.6949 -0.5764
19848TIP3    H280960   0.774   3.319  14.281 -0.7195  0.6432  0.0508
19849TIP3   OH280961   4.181   0.382  15.953  0.7065  0.1158 -0.7995
19849TIP3    H180962   4.120   0.352  16.020 -3.0942  0.4334 -3.9324
19849TIP3    H280963   4.172   0.477  15.952  0.1485  0.0676 -2.2265
19850TIP3   OH280964   4.821   2.259  14.968  0.0670  0.0840 -0.2632
19850TIP3    H180965   4.780   2.194  14.911 -0.5147 -0.6922  0.9866
19850TIP3    H280966   4.881   2.208  15.023 -0.0464  0.6695  0.4084
19851TIP3   OH280967   3.251   3.599  13.021 -0.2825  0.0549  0.1375
19851TIP3    H180968   3.202   3.663  12.968  2.0099  1.5123 -0.3110
19851TIP3    H280969   3.254   3.639  13.108 -2.0416 -1.2363  0.8070
19852TIP3   OH280970   1.479   1.740   0.706  0.2037  0.0450 -0.5808
19852TIP3    H180971   1.560   1.690   0.717 -0.3243 -0.8062 -0.4802
19852TIP3    H280972   1.501   1.807   0.642  0.6134 -1.0269 -1.5869
19853TIP3   OH280973   6.715   1.647  13.777  0.3583  0.0174 -0.0110
19853TIP3    H180974   6.667   1.677  13.701 -0.2516  0.5002  0.5660
19853TIP3    H280975   6.679   1.697  13.850 -1.5354 -2.9302  1.1779
19854TIP3   OH280976   0.171   5.795   4.869  0.5434  0.6900  0.3247
19854TIP3    H180977   0.233   5.810   4.798  2.0740  0.7530  1.6261
19854TIP3    H280978   0.101   5.744   4.830  1.9646 -0.3547 -0.9431
19855TIP3   OH280979   0.678   5.101   0.624  0.1080 -0.5679 -0.1367
19855TIP3    H180980   0.735   5.065   0.556  1.1495  1.9248 -0.6397
19855TIP3    H280981   0.622   5.163   0.579  0.9684  1.3001  1.2741
19856TIP3   OH280982   5.974   2.863   0.551 -0.3484  0.4274 -0.1605
19856TIP3    H180983   5.961   2.791   0.613 -0.6116  0.1691 -0.5069
19856TIP3    H280984   5.886   2.898   0.538 -0.5105 -0.4169 -1.4472
19857TIP3   OH280985   1.737   0.062  16.028 -0.2205 -0.3859  0.0089
19857TIP3    H180986   1.754   0.040  16.119  0.6679  1.3689  0.2923
19857TIP3    H280987   1.815   0.110  16.000 -1.3034  0.7707 -1.1012
19858TIP3   OH280988   3.790   4.116   5.155  0.0313 -0.4220 -0.1951
19858TIP3    H180989   3.713   4.145   5.106  0.1013 -0.5141 -0.3606
19858TIP3    H280990   3.861   4.171   5.123 -0.0562 -0.0219  0.2898
19859TIP3   OH280991   6.205   3.239  13.097  0.2453 -0.1273  0.3754
19859TIP3    H180992   6.291   3.250  13.055 -0.0469  1.0026  0.0487
19859TIP3    H280993   6.154   3.187  13.034 -0.1827  1.5368 -0.6825
19860TIP3   OH280994   0.497   3.096  12.810 -0.3644 -0.0813  0.3535
19860TIP3    H180995   0.500   3.160  12.739  1.4920 -2.2286 -1.5642
19860TIP3    H280996   0.475   3.013  12.767  2.5100 -1.7688  2.0096
19861TIP3   OH280997   6.024   5.637   1.863  0.2751  0.2104 -0.1726
19861TIP3    H180998   6.027   5.547   1.895  0.7405 -0.8281 -3.0084
19861TIP3    H280999   5.932   5.653   1.844  0.3830 -0.2321 -1.1199
19862TIP3   OH281000   6.725   1.841   0.730  0.1169 -0.2983  0.1235
19862TIP3    H181001   6.780   1.784   0.783  0.0489 -0.3531  0.1346
19862TIP3    H281002   6.636   1.805   0.740  0.2693 -0.9972 -0.9422
19863TIP3   OH281003   5.810   3.243  15.501 -0.4654  0.5790  0.0226
19863TIP3    H181004   5.776   3.168  15.452 -0.4749  0.2210  0.5713
19863TIP3    H281005   5.735   3.301  15.512 -0.1909  1.2230 -1.4281
19864TIP3   OH281006   5.380   5.774  11.728  0.1996 -0.0367 -0.5351
19864TIP3    H181007   5.460   5.721  11.729  2.2288  2.8722 -0.5373
19864TIP3    H281008   5.340   5.759  11.813  1.3983 -0.5989 -0.0632
19865TIP3   OH281009   0.489   1.723  11.549 -0.5088  0.6074  0.3578
19865TIP3    H181010   0.455   1.657  11.488  2.0015 -0.9247  0.5164
19865TIP3    H281011   0.576   1.690  11.573 -1.3180  1.2623  4.5821
19866TIP3   OH281012   3.269   2.060  13.052 -0.0826 -0.3658 -0.3645
19866TIP3    H181013   3.195   2.121  13.045  2.3758  3.1303  2.1762
19866TIP3    H281014   3.250   2.008  13.130 -0.8021 -0.8733 -0.8725
19867TIP3   OH281015   4.365   1.039   3.992 -1.1674  0.3868  0.6911
19867TIP3    H181016   4.316   1.104   4.042 -0.3880  1.7260 -0.2507
19867TIP3    H281017   4.361   1.070   3.902  1.2360  0.4064  0.5680
19868TIP3   OH281018   1.798   2.050   3.100 -0.0958 -0.1147  0.7031
19868TIP3    H181019   1.804   2.030   3.006 -1.2627  0.5275  0.4788
19868TIP3    H281020   1.815   2.145   3.105 -0.6672 -0.0311  1.0650
19869TIP3   OH281021   3.253   6.286   4.967  0.8030  0.4334 -0.0695
19869TIP3    H181022   3.304   6.345   5.023 -0.7064  0.6730  1.0807
19869TIP3    H281023   3.317   6.250   4.905  2.5035  0.1438  1.8170
19870TIP3   OH281024   3.674   1.959   4.170 -0.0581  0.0843 -0.4392
19870TIP3    H181025   3.705   1.953   4.080  0.9056 -1.0932 -0.0535
19870TIP3    H281026   3.744   2.006   4.216 -0.6854  0.9561 -0.3546
19871TIP3   OH281027   4.102   4.715  14.670  0.2525 -0.5789  0.2664
19871TIP3    H181028   4.094   4.809  14.656  0.3199 -0.5401  0.4917
19871TIP3    H281029   4.181   4.691  14.621  0.4854 -0.4428  0.5693
19872TIP3   OH281030   3.705   2.179  14.513  0.6789  0.3862  0.3198
19872TIP3    H181031   3.643   2.144  14.449  0.6442  2.2655 -0.6870
19872TIP3    H281032   3.753   2.102  14.544 -0.3416 -0.7392 -0.8443
19873TIP3   OH281033   0.331   0.414   2.091 -0.0791  0.9081  0.3945
19873TIP3    H181034   0.326   0.393   1.998 -0.7698 -1.5137  0.9354
19873TIP3    H281035   0.422   0.397   2.114 -0.1328  0.5835  0.3675
19874TIP3   OH281036   5.330   3.818  14.837 -0.4724  0.5341 -0.0990
19874TIP3    H181037   5.279   3.756  14.889  1.8795 -0.5966  0.9406
19874TIP3    H281038   5.396   3.765  14.793  0.5058  2.0774 -0.5564
19875TIP3   OH281039   3.459   3.370  16.858 -0.0210 -0.6875  0.0561
19875TIP3    H181040   3.537   3.413  16.822  0.2731 -1.7724 -0.6288
19875TIP3    H281041   3.472   3.370  16.952 -0.4157  1.4753  0.1326
19876TIP3   OH281042   3.920   4.958  15.200 -0.2071  0.1159  0.1251
19876TIP3    H181043   3.932   5.025  15.133  0.2847  2.5737  2.5502
19876TIP3    H281044   3.856   4.898  15.163  0.1170  1.3607 -2.5525
19877TIP3   OH281045   6.782   5.453   4.491 -0.2242  0.3871 -0.4746
19877TIP3    H181046   6.695   5.436   4.454 -0.6412 -1.8034  1.3831
19877TIP3    H281047   6.841   5.402   4.436 -0.6578 -1.5883  0.8326
19878TIP3   OH281048   2.679   1.938  14.415  0.6728  0.7382 -0.7928
19878TIP3    H181049   2.691   1.867  14.478 -1.3158  0.6053 -0.5375
19878TIP3    H281050   2.753   1.929  14.355 -0.6828 -2.9352 -2.0677
19879TIP3   OH281051   4.437   5.880  16.161 -0.6212 -0.1541 -0.0932
19879TIP3    H181052   4.475   5.799  16.195 -1.0394 -0.8296 -1.1953
19879TIP3    H281053   4.487   5.898  16.082  1.7895  2.5848  1.9730
19880TIP3   OH281054   1.281   4.751  13.309 -0.9898 -0.5556  0.3139
19880TIP3    H181055   1.308   4.677  13.255  0.6065  0.7486 -0.7149
19880TIP3    H281056   1.185   4.750  13.304 -1.0369 -3.2829  1.3520
19881TIP3   OH281057   3.821   2.630  16.739  0.8125  0.2549  0.3635
19881TIP3    H181058   3.742   2.683  16.732  0.8143  0.0318 -1.7475
19881TIP3    H281059   3.831   2.612  16.833 -1.6239  0.2785  0.6475
19882TIP3   OH281060   4.416   3.461   4.701  0.4779  0.0237  0.1253
19882TIP3    H181061   4.404   3.439   4.793 -1.6483 -0.5141 -0.2640
19882TIP3    H281062   4.497   3.512   4.699  0.5688  0.0004  2.2812
19883TIP3   OH281063   2.929   2.786  15.609 -0.2877  0.1124 -0.2525
19883TIP3    H181064   2.836   2.769  15.592 -0.1664  0.1417 -0.9607
19883TIP3    H281065   2.947   2.739  15.691 -1.4573  1.8984  1.0650
19884TIP3   OH281066   2.341   1.497   0.489  0.2830  0.5854 -0.0215
19884TIP3    H181067   2.332   1.499   0.584 -0.7871  0.4890 -0.1053
19884TIP3    H281068   2.283   1.567   0.459  0.6879  0.6726 -0.5937
19885TIP3   OH281069   1.286   0.532  16.381  0.1909 -0.2081  0.3810
19885TIP3    H181070   1.362   0.497  16.427  0.8541 -0.0663 -0.5973
19885TIP3    H281071   1.302   0.512  16.289  0.0061  1.5684 -0.0625
19886TIP3   OH281072   5.387   4.443  13.447 -0.3446 -0.2038  0.5180
19886TIP3    H181073   5.332   4.521  13.439  2.4717  1.8036 -0.0089
19886TIP3    H281074   5.371   4.411  13.536 -2.4552  0.1914  0.3136
19887TIP3   OH281075   2.476   3.609   5.967 -0.0013 -0.3707  0.3997
19887TIP3    H181076   2.471   3.650   5.881  0.7807  2.0372  1.4616
19887TIP3    H281077   2.569   3.586   5.977 -0.0899 -0.6350  0.6172
19888TIP3   OH281078   2.544   4.972   4.283 -0.0166 -0.5505 -0.3258
19888TIP3    H181079   2.589   4.887   4.290 -2.8335 -2.2628 -1.8060
19888TIP3    H281080   2.535   4.986   4.188 -0.7012  0.7754 -0.0705
19889TIP3   OH281081   1.032   6.694  14.737 -0.2716  0.2865  0.1500
19889TIP3    H181082   0.997   6.773  14.778 -1.6386  0.1154 -0.6547
19889TIP3    H281083   1.067   6.724  14.653  1.8702  0.5135  1.0914
19890TIP3   OH281084   1.199   4.916   4.049  0.0796 -0.2580 -0.3139
19890TIP3    H181085   1.130   4.978   4.025  0.7604  0.3629 -0.7134
19890TIP3    H281086   1.229   4.881   3.965  1.3423  0.6853 -0.2724
19891TIP3   OH281087   6.111   4.327  16.452 -0.5524 -0.8323  0.2095
19891TIP3    H181088   6.125   4.309  16.545  0.4725  1.5332  0.5594
19891TIP3    H281089   6.197   4.315  16.412 -0.5778 -0.0062 -0.1041
19892TIP3   OH281090   0.606   3.840  16.941  0.0970  0.4750  0.2404
19892TIP3    H181091   0.555   3.921  16.934  0.9975  0.9865 -0.4809
19892TIP3    H281092   0.641   3.842  17.030 -2.3732 -0.6366  1.2822
19893TIP3   OH281093   6.037   0.333  15.177  0.0567 -0.6148 -0.2103
19893TIP3    H181094   6.068   0.327  15.087  1.0343 -1.3969  0.1695
19893TIP3    H281095   5.978   0.259  15.187 -1.0249  0.1942 -0.5799
19894TIP3   OH281096   4.966   4.470  15.828 -0.5568  0.0433 -0.1150
19894TIP3    H181097   5.031   4.532  15.860  0.4522 -1.3728  0.6423
19894TIP3    H281098   4.882   4.515  15.840  0.1783  1.3676  0.1268
19895TIP3   OH281099   5.815   1.838  14.245 -0.1668  0.8915  0.3092
19895TIP3    H181100   5.750   1.894  14.202  0.5510  1.9408  0.5824
19895TIP3    H281101   5.821   1.761  14.188 -1.4601  0.8920  0.1421
19896TIP3   OH281102   5.246   0.085  15.945 -0.1224 -0.5680  0.1186
19896TIP3    H181103   5.337   0.104  15.971  0.4869 -2.3351 -0.6237
19896TIP3    H281104   5.196   0.160  15.976  1.4697  0.0295  1.3145
19897TIP3   OH281105   3.995   6.716   2.982 -0.0646 -0.2955 -0.5897
19897TIP3    H181106   4.064   6.762   2.934  0.3249 -0.7653 -0.4847
19897TIP3    H281107   3.943   6.786   3.021 -0.5937  0.0924 -1.9827
19898TIP3   OH281108   2.955   3.653   1.466 -0.1356  0.2680  0.4405
19898TIP3    H181109   3.020   3.632   1.533  0.3535  0.7874  0.1248
19898TIP3    H281110   2.889   3.704   1.512 -1.0282 -1.4089  1.0784
19899TIP3   OH281111   1.942   4.571  11.408  0.3915  0.2809 -0.2858
19899TIP3    H181112   1.913   4.516  11.335 -1.1370  0.9896 -0.2491
19899TIP3    H281113   2.001   4.635  11.367  0.5434 -0.1172 -0.6910
19900TIP3   OH281114   4.320   3.682   5.219 -0.1118 -0.0548  0.0226
19900TIP3    H181115   4.278   3.646   5.298  1.1347 -0.9303  0.3133
19900TIP3    H281116   4.248   3.693   5.157 -0.9138 -0.6599  0.8145
19901TIP3   OH281117   4.221   5.575   2.683 -0.1725 -0.3090  0.3264
19901TIP3    H181118   4.145   5.550   2.735 -0.5670 -0.9891 -0.5736
19901TIP3    H281119   4.252   5.493   2.645  1.1068 -0.0660  0.8121
19902TIP3   OH281120   2.142   4.260   4.894  0.0485  0.4002 -0.0625
19902TIP3    H181121   2.141   4.355   4.877 -0.7306  0.2600 -0.8061
19902TIP3    H281122   2.068   4.226   4.844  0.4632 -0.6415  0.0343
19903TIP3   OH281123   1.735   3.141   5.868  0.8155 -0.3446  0.8385
19903TIP3    H181124   1.762   3.175   5.782 -2.1390 -1.9824 -0.8483
19903TIP3    H281125   1.780   3.057   5.876  2.1822  0.4500  1.5381
19904TIP3   OH281126   1.041   5.006  13.117  0.4457 -0.0897  0.4708
19904TIP3    H181127   1.098   5.000  13.040 -0.1685  0.2679 -0.0158
19904TIP3    H281128   0.954   5.024  13.081  0.3761  1.3664  1.3282
19905TIP3   OH281129   1.455   3.885   4.711 -0.4501 -0.1479 -0.0815
19905TIP3    H181130   1.370   3.890   4.667  0.2824  1.2865 -1.3871
19905TIP3    H281131   1.490   3.974   4.705  1.0035 -0.6492  0.7338
19906TIP3   OH281132   6.100   2.261  12.368  0.5132 -0.2020  0.6262
19906TIP3    H181133   6.180   2.262  12.314  0.4150 -0.7699  0.4579
19906TIP3    H281134   6.101   2.174  12.409 -0.3735 -0.4735  0.0842
19907TIP3   OH281135   3.557   6.394  12.248  0.3150  0.1105 -0.0416
19907TIP3    H181136   3.505   6.367  12.173  0.3767  0.7734 -0.3302
19907TIP3    H281137   3.551   6.321  12.310  0.2212 -0.4112 -0.6654
19908TIP3   OH281138   0.320   1.797  17.223  0.3595 -0.0439 -0.3982
19908TIP3    H181139   0.358   1.716  17.257  1.6636  1.7006  2.4631
19908TIP3    H281140   0.381   1.825  17.155  0.4643 -0.9079 -0.6703
19909TIP3   OH281141   6.071   3.128   4.256 -0.3832 -0.3344  0.1020
19909TIP3    H181142   5.992   3.115   4.203 -0.7333  0.2604  0.4833
19909TIP3    H281143   6.105   3.039   4.269 -1.6815 -0.7096  1.0087
19910TIP3   OH281144   6.326   2.171  15.945 -0.1746  0.1956 -0.2473
19910TIP3    H181145   6.413   2.212  15.947  0.3788 -0.9099 -1.3886
19910TIP3    H281146   6.337   2.088  15.992 -1.5017  1.6578  2.8445
19911TIP3   OH281147   5.582   3.405  15.163  0.7685  0.3529 -0.6217
19911TIP3    H181148   5.564   3.361  15.079  0.8664 -1.2800  0.1898
19911TIP3    H281149   5.661   3.362  15.196  0.3549  0.5164  0.6133
19912TIP3   OH281150   4.264   2.921  13.931  0.3324 -0.0014 -0.2158
19912TIP3    H181151   4.185   2.868  13.941  1.4800 -1.6898  0.0386
19912TIP3    H281152   4.232   3.012  13.927 -1.7249 -0.7502 -1.5437
19913TIP3   OH281153   6.717   0.191  11.123  0.1627 -0.9081 -0.0355
19913TIP3    H181154   6.792   0.231  11.167 -0.7005  0.6497  0.0614
19913TIP3    H281155   6.660   0.163  11.194  0.3907 -1.5610 -0.1144
19914TIP3   OH281156   1.764   0.510   0.648 -0.7035 -0.1257  0.2915
19914TIP3    H181157   1.838   0.486   0.592 -0.1710 -3.1741  2.1403
19914TIP3    H281158   1.690   0.462   0.612 -0.8734 -0.2737  0.8347
19915TIP3   OH281159   1.743   1.414  14.174  0.7808  0.0542  0.1448
19915TIP3    H181160   1.816   1.356  14.154  1.3852  0.4770  1.0831
19915TIP3    H281161   1.677   1.357  14.213  0.5549 -0.3539 -0.8381
19916TIP3   OH281162   1.311   0.864  13.342  0.4811  0.6758 -0.2058
19916TIP3    H181163   1.351   0.940  13.383  2.3045 -0.3618 -0.0075
19916TIP3    H281164   1.361   0.789  13.375 -1.0857 -0.5889 -0.6188
19917TIP3   OH281165   1.931   1.895  16.685  0.1196 -0.0827 -0.2299
19917TIP3    H181166   1.862   1.854  16.634 -3.4394  4.6219  0.4945
19917TIP3    H281167   1.943   1.981  16.646  1.7884  1.2173  2.9389
19918TIP3   OH281168   3.923   5.422   4.668  0.3607 -0.5026 -0.1591
19918TIP3    H181169   3.875   5.445   4.747  1.9777 -0.0015  0.6995
19918TIP3    H281170   3.871   5.458   4.596 -0.2012  0.5993  0.7875
19919TIP3   OH281171   1.469   4.926  14.902  0.4502  0.2785 -0.3299
19919TIP3    H181172   1.518   4.955  14.979 -0.2392 -0.1823  0.2883
19919TIP3    H281173   1.459   4.831  14.914  0.2208  0.2258 -0.9135
19920TIP3   OH281174   5.711   3.762   4.761 -0.3892  0.0410  0.3965
19920TIP3    H181175   5.619   3.782   4.779 -0.7884 -1.4435  0.0983
19920TIP3    H281176   5.760   3.817   4.822 -1.4531  1.2792  0.1502
19921TIP3   OH281177   2.156   5.234   3.854 -1.0779 -0.5153  0.2996
19921TIP3    H181178   2.156   5.318   3.808  0.3586 -0.4628  0.3711
19921TIP3    H281179   2.142   5.169   3.785 -1.0888 -0.2926  0.0896
19922TIP3   OH281180   2.378   6.056  12.267 -0.1813 -0.0875 -0.7546
19922TIP3    H181181   2.311   6.080  12.203 -0.7058  1.6991  0.4236
19922TIP3    H281182   2.459   6.095  12.232  0.0621 -1.3548 -1.6414
19923TIP3   OH281183   1.371   5.763   2.601  0.6119  0.1065  0.3090
19923TIP3    H181184   1.351   5.850   2.637  2.4671 -0.1956  2.1202
19923TIP3    H281185   1.287   5.733   2.565 -0.7778  1.3491  2.4205
19924TIP3   OH281186   5.410   5.317   6.164 -0.0238 -0.0799 -0.0891
19924TIP3    H181187   5.322   5.299   6.196 -0.1316  1.5009  0.5645
19924TIP3    H281188   5.398   5.390   6.102  0.8115  0.0683 -0.0755
19925TIP3   OH281189   5.151   0.432  12.050 -0.0887  0.0559 -0.0078
19925TIP3    H181190   5.100   0.449  11.971  0.7747  2.1662 -0.1453
19925TIP3    H281191   5.108   0.484  12.118  1.2275  1.0142  0.1079
19926TIP3   OH281192   6.225   0.792  12.037 -0.1251  0.1712  0.2739
19926TIP3    H181193   6.133   0.814  12.051  0.2055  1.2244  0.8180
19926TIP3    H281194   6.242   0.719  12.096 -0.2852  0.7868  1.0868
19927TIP3   OH281195   5.901   6.285   5.254  0.0416  0.0341 -0.8144
19927TIP3    H181196   5.844   6.346   5.207  0.6593  0.8214 -0.5619
19927TIP3    H281197   5.988   6.324   5.248  0.3756 -0.6153 -0.2875
19928TIP3   OH281198   0.052   0.188  12.776  0.1496 -0.9685  0.3374
19928TIP3    H181199   0.121   0.122  12.773 -0.6567 -1.8212  0.5866
19928TIP3    H281200  -0.005   0.167  12.703 -1.9374 -2.5785  2.3440
19929TIP3   OH281201   0.056   6.695   1.353 -0.1812  0.0396  0.4328
19929TIP3    H181202   0.141   6.730   1.379 -0.0169 -0.3678  0.4552
19929TIP3    H281203   0.066   6.676   1.260 -0.4431  0.5554  0.2983
19930TIP3   OH281204   3.673   6.604  16.268 -0.0216 -0.0875  0.5071
19930TIP3    H181205   3.615   6.679  16.275  0.6933  0.4151  1.1840
19930TIP3    H281206   3.695   6.583  16.359  1.1749 -0.0102  0.2378
19931TIP3   OH281207   2.373   1.266   3.100  0.4687  0.3146 -0.5477
19931TIP3    H181208   2.439   1.197   3.106 -0.0004 -0.1799 -0.9692
19931TIP3    H281209   2.386   1.304   3.013 -0.4590 -0.4659 -1.0379
19932TIP3   OH281210   5.783   5.501   4.264  0.0623 -0.1713  0.4667
19932TIP3    H181211   5.860   5.537   4.220 -0.7812  0.3788 -0.5954
19932TIP3    H281212   5.734   5.459   4.193 -2.5890  2.8977  0.4061
19933TIP3   OH281213   0.597   4.955  13.246  0.0923  0.7114 -0.4056
19933TIP3    H181214   0.506   4.983  13.251 -0.3920 -1.0822  0.9902
19933TIP3    H281215   0.635   5.010  13.177 -2.1796  1.0695 -1.4073
19934TIP3   OH281216   2.848   0.529   2.429 -0.0091  0.0293 -0.1804
19934TIP3    H181217   2.937   0.564   2.431 -0.5284  1.3590 -0.1980
19934TIP3    H281218   2.839   0.480   2.510  1.6376 -2.3761 -1.3647
19935TIP3   OH281219   1.089   0.081  15.245 -0.2228 -0.0509  0.7643
19935TIP3    H181220   1.155   0.013  15.234  1.1416  1.1379  1.3499
19935TIP3    H281221   1.013   0.051  15.195  0.3208 -2.0259  1.1164
19936TIP3   OH281222   3.902   1.042  16.181 -0.3690 -0.0352  0.1108
19936TIP3    H181223   3.818   1.084  16.161 -0.4651 -0.8200 -1.1610
19936TIP3    H281224   3.915   0.979  16.110  1.0904 -0.2308  0.5404
19937TIP3   OH281225   4.542   1.698  12.087 -0.5402  0.0649 -0.3971
19937TIP3    H181226   4.492   1.623  12.056 -0.1868  0.6409 -2.4291
19937TIP3    H281227   4.633   1.676  12.070 -0.0997 -0.6091  2.4973
19938TIP3   OH281228   4.072   2.405  14.298 -0.2304 -0.5578 -0.0176
19938TIP3    H181229   4.159   2.396  14.339 -0.5958 -0.8224  0.7249
19938TIP3    H281230   4.027   2.324  14.322 -1.8618  1.0231  2.4854
19939TIP3   OH281231   3.128   2.965   2.036  0.4750  0.1489 -0.1588
19939TIP3    H181232   3.046   3.013   2.042 -0.3989 -0.7212 -3.9446
19939TIP3    H281233   3.103   2.873   2.035  1.6501 -0.1942  0.7059
19940TIP3   OH281234   5.135   4.183  14.787 -0.0359 -0.1723  0.3628
19940TIP3    H181235   5.193   4.131  14.842  0.6437  1.7434  1.5379
19940TIP3    H281236   5.073   4.222  14.849  0.4555  1.6588 -0.2666
19941TIP3   OH281237   0.878   0.510   1.949  0.3257  0.0213  0.0469
19941TIP3    H181238   0.874   0.453   2.026 -0.8703 -0.3281 -0.2594
19941TIP3    H281239   0.903   0.595   1.984  2.0871 -0.6713  0.5201
19942TIP3   OH281240   1.504   3.968  13.675  0.4794  0.1927 -0.2629
19942TIP3    H181241   1.592   3.995  13.649  1.9511 -1.1470  2.9939
19942TIP3    H281242   1.481   4.026  13.748 -0.4034 -0.9000  0.3474
19943TIP3   OH281243   6.763   2.750   1.435  0.0365  0.0294 -0.0025
19943TIP3    H181244   6.733   2.678   1.381 -0.9758  2.2569 -2.4864
19943TIP3    H281245   6.686   2.776   1.486 -0.2022  0.8442 -0.7868
19944CLA    CLA81246   0.726   1.950  12.296 -0.0433 -0.1644 -0.0673
19945LIG     O181247   3.794   3.325  16.547 -0.2839 -0.1549  0.5023
19945LIG     O281248   3.680   4.375  16.555  0.7291 -0.0987  0.5192
19945LIG     O381249   4.234   2.968  16.865  0.4504  0.0249  0.3696
19945LIG     O481250   3.653   4.253  16.368  0.1502 -0.1885 -0.0699
19945LIG      N81251   3.774   3.643  16.486 -0.1651 -0.2880  0.1652
19945LIG     C181252   3.739   3.783  16.530  0.0175  0.4141 -0.5892
19945LIG     C281253   3.829   3.563  16.605  0.6171  0.1788  0.3698
19945LIG     C381254   3.855   3.880  16.548 -0.3430  0.0833  0.2643
19945LIG     C481255   3.881   3.636  16.380 -0.0668  0.1936  0.3262
19945LIG     C581256   3.647   3.575  16.442  0.0594  0.6554 -1.0755
19945LIG     C681257   3.895   3.422  16.577  0.0283  0.5380 -0.6374
19945LIG     C781258   3.788   4.012  16.597  0.0007 -0.2206 -0.1933
19945LIG     C881259   3.833   3.195  16.508  0.3283 -0.4248  0.2652
19945LIG     C981260   3.880   4.136  16.599  0.8964  0.0280  0.3307
19945LIG    C1081261   3.945   3.139  16.601  0.0083  0.1958 -0.5606
19945LIG    C1181262   3.857   3.195  16.354 -0.7676  0.0566  0.0695
19945LIG    C1281263   3.697   3.106  16.528  0.2239 -0.8419  0.7139
19945LIG    C1381264   3.863   4.232  16.476 -0.2865  0.1441  0.0595
19945LIG    C1481265   4.075   3.097  16.551  0.5349  0.1314 -0.3686
19945LIG    C1581266   3.914   3.124  16.739 -0.0055  0.5053  0.1665
19945LIG    C1681267   3.805   3.302  16.271 -0.3941  0.4882 -0.3017
19945LIG    C1781268   3.697   2.968  16.516  0.1059 -0.6584  0.2467
19945LIG    C1881269   3.896   3.079  16.282 -0.0252 -0.4587  0.6086
19945LIG    C1981270   3.570   3.163  16.546  0.0039  0.1020  0.6408
19945LIG    C2081271   3.725   4.287  16.460 -0.1528  0.4871 -0.4415
19945LIG    C2181272   4.166   3.045  16.644  0.0582  0.3496  0.3768
19945LIG    C2281273   4.005   3.066  16.826 -0.3896 -0.4179 -0.0789
19945LIG    C2381274   3.794   3.293  16.135 -0.2260  0.1114 -0.4905
19945LIG    C2481275   3.582   2.891  16.532  0.2908  0.0661  0.9082
19945LIG    C2581276   3.884   3.071  16.150 -0.9303  0.3266 -0.1274
19945LIG    C2681277   3.451   3.088  16.543 -0.3996 -0.0569 -0.3684
19945LIG    C2781278   4.132   3.023  16.780 -0.3443 -0.8871  0.6031
19945LIG    C2881279   3.830   3.175  16.077  0.3050 -0.2285 -0.8582
19945LIG    C2981280   3.457   2.951  16.542 -0.5137 -0.2176  0.0167
19945LIG    C3081281   4.366   2.938  16.814  0.3035  0.3846 -0.4288
19945LIG     H181282   3.689   3.779  16.626  3.8886 -0.0013  1.5202
19945LIG     H281283   3.678   3.831  16.455 -1.9596 -1.3496 -0.1511
19945LIG     H381284   3.746   3.543  16.671  1.1668  0.5182  1.1610
19945LIG     H481285   3.889   3.627  16.667  0.5843  0.7833 -0.2173
19945LIG     H581286   3.905   3.897  16.450 -0.2501  1.8395  0.6089
19945LIG     H681287   3.933   3.843  16.618  0.8499 -0.0384 -1.0999
19945LIG     H781288   3.853   3.697  16.295 -0.6511  0.8543  0.9905
19945LIG     H881289   3.910   3.539  16.342 -3.5198  0.1126 -2.3868
19945LIG     H981290   3.970   3.679  16.424  0.4383  1.2266 -1.6120
19945LIG    H1081291   3.608   3.620  16.352  3.4375  0.6198 -2.6641
19945LIG    H1181292   3.581   3.583  16.526 -1.7817 -3.1650 -2.0516
19945LIG    H1281293   3.645   3.468  16.433 -1.3078  0.5590  0.2086
19945LIG    H1381294   3.975   3.435  16.501 -0.2987  0.0394 -1.0692
19945LIG    H1481295   3.950   3.390  16.668  0.5491 -1.4493 -1.6250
19945LIG    H1581296   3.737   3.994  16.695  0.2695 -0.2573 -0.0590
19945LIG    H1681297   3.704   4.041  16.530  1.2085 -0.7301 -1.9525
19945LIG    H1781298   3.982   4.095  16.613 -0.2990 -2.5300  2.0636
19945LIG    H1881299   3.864   4.194  16.692 -0.8017 -0.8376  0.5994
19945LIG    H1981300   3.889   4.179  16.382  2.5457  0.3228  0.6943
19945LIG    H2081301   3.936   4.316  16.485 -0.5823  0.6105 -1.6690
19945LIG    H2181302   4.095   3.102  16.444  1.7709  1.6468 -0.0871
19945LIG    H2281303   3.813   3.136  16.774  0.3220 -0.9982  1.7031
19945LIG    H2381304   3.769   3.394  16.315  1.1131  2.1856 -2.4820
19945LIG    H2481305   3.791   2.921  16.492 -0.3513 -0.6161 -1.7220
19945LIG    H2581306   3.938   2.993  16.332  0.5531 -0.3636  0.2938
19945LIG    H2681307   3.555   3.270  16.550  0.5208  0.2004 -0.0360
19945LIG    H2781308   4.261   3.018  16.599 -0.2674 -0.3658  0.0941
19945LIG    H2881309   3.990   3.062  16.932  1.4869 -3.3368  0.1321
19945LIG    H2981310   3.748   3.372  16.077  0.2644  0.8982  0.1927
19945LIG    H3081311   3.574   2.784  16.522 -0.5854  0.3874 -2.3516
19945LIG    H3181312   3.908   2.975  16.107 -0.1676 -0.3945  1.8640
19945LIG    H3281313   3.359   3.144  16.543 -0.0507  0.5143 -0.4027
19945LIG    H3381314   3.804   3.164  15.973 -1.5331  1.1596 -0.5685
19945LIG    H3481315   3.365   2.895  16.551 -0.5144 -0.2158  0.0204
19945LIG    H3581316   3.589   4.401  16.540  1.0293  1.7550  1.6772
19945LIG    H3681317   4.363   2.852  16.744 -1.3953  1.4030 -1.6231
19945LIG    H3781318   4.432   2.924  16.903 -0.1011 -0.6261 -0.2837
19945LIG    H3881319   4.416   3.019  16.757 -0.7575  2.3550  1.3594
   6.78697   6.78697  17.23950
